 Entering Gaussian System, Link 0=g16
 Input=gaussian_test.inp
 Output=gaussian_test.log
 Initial command:
 /sw/restricted/lms/sw/Gaussian/g16_B01/g16/l1.exe "/scratch/user/peterchao1/peterchao1/10002758_1712087136000000763637075/Gau-108168.inp" -scrdir="/scratch/user/peterchao1/peterchao1/10002758_1712087136000000763637075/"
 Entering Link 1 = /sw/restricted/lms/sw/Gaussian/g16_B01/g16/l1.exe PID=    108170.
  
 Copyright (c) 1988-2017, Gaussian, Inc.  All Rights Reserved.
  
 This is part of the Gaussian(R) 16 program.  It is based on
 the Gaussian(R) 09 system (copyright 2009, Gaussian, Inc.),
 the Gaussian(R) 03 system (copyright 2003, Gaussian, Inc.),
 the Gaussian(R) 98 system (copyright 1998, Gaussian, Inc.),
 the Gaussian(R) 94 system (copyright 1995, Gaussian, Inc.),
 the Gaussian 92(TM) system (copyright 1992, Gaussian, Inc.),
 the Gaussian 90(TM) system (copyright 1990, Gaussian, Inc.),
 the Gaussian 88(TM) system (copyright 1988, Gaussian, Inc.),
 the Gaussian 86(TM) system (copyright 1986, Carnegie Mellon
 University), and the Gaussian 82(TM) system (copyright 1983,
 Carnegie Mellon University). Gaussian is a federally registered
 trademark of Gaussian, Inc.
  
 This software contains proprietary and confidential information,
 including trade secrets, belonging to Gaussian, Inc.
  
 This software is provided under written license and may be
 used, copied, transmitted, or stored only in accord with that
 written license.
  
 The following legend is applicable only to US Government
 contracts under FAR:
  
                    RESTRICTED RIGHTS LEGEND
  
 Use, reproduction and disclosure by the US Government is
 subject to restrictions as set forth in subparagraphs (a)
 and (c) of the Commercial Computer Software - Restricted
 Rights clause in FAR 52.227-19.
  
 Gaussian, Inc.
 340 Quinnipiac St., Bldg. 40, Wallingford CT 06492
  
  
 ---------------------------------------------------------------
 Warning -- This program may not be used in any manner that
 competes with the business of Gaussian, Inc. or will provide
 assistance to any competitor of Gaussian, Inc.  The licensee
 of this program is prohibited from giving any competitor of
 Gaussian, Inc. access to this program.  By using this program,
 the user acknowledges that Gaussian, Inc. is engaged in the
 business of creating and licensing software in the field of
 computational chemistry and represents and warrants to the
 licensee that it is not a competitor of Gaussian, Inc. and that
 it will not use this program in any manner prohibited above.
 ---------------------------------------------------------------
  

 Cite this work as:
 Gaussian 16, Revision B.01,
 M. J. Frisch, G. W. Trucks, H. B. Schlegel, G. E. Scuseria, 
 M. A. Robb, J. R. Cheeseman, G. Scalmani, V. Barone, 
 G. A. Petersson, H. Nakatsuji, X. Li, M. Caricato, A. V. Marenich, 
 J. Bloino, B. G. Janesko, R. Gomperts, B. Mennucci, H. P. Hratchian, 
 J. V. Ortiz, A. F. Izmaylov, J. L. Sonnenberg, D. Williams-Young, 
 F. Ding, F. Lipparini, F. Egidi, J. Goings, B. Peng, A. Petrone, 
 T. Henderson, D. Ranasinghe, V. G. Zakrzewski, J. Gao, N. Rega, 
 G. Zheng, W. Liang, M. Hada, M. Ehara, K. Toyota, R. Fukuda, 
 J. Hasegawa, M. Ishida, T. Nakajima, Y. Honda, O. Kitao, H. Nakai, 
 T. Vreven, K. Throssell, J. A. Montgomery, Jr., J. E. Peralta, 
 F. Ogliaro, M. J. Bearpark, J. J. Heyd, E. N. Brothers, K. N. Kudin, 
 V. N. Staroverov, T. A. Keith, R. Kobayashi, J. Normand, 
 K. Raghavachari, A. P. Rendell, J. C. Burant, S. S. Iyengar, 
 J. Tomasi, M. Cossi, J. M. Millam, M. Klene, C. Adamo, R. Cammi, 
 J. W. Ochterski, R. L. Martin, K. Morokuma, O. Farkas, 
 J. B. Foresman, and D. J. Fox, Gaussian, Inc., Wallingford CT, 2016.
 
 ******************************************
 Gaussian 16:  ES64L-G16RevB.01 20-Dec-2017
                 2-Apr-2024 
 ******************************************
 %nprocshared=4
 Will use up to    4 processors via shared memory.
 %mem=8000mb
 %chk=monomer.chk
 %nprocshared=4
 Will use up to    4 processors via shared memory.
 %mem=8000mb
 ----------------------------------------------------------------------
 #T wB97XD/def2svpp opt=(calcall,tight) int(grid=ultrafine) scf=(veryti
 ght,qc) Volume=tight
 ----------------------------------------------------------------------
 -------
 Monomer
 -------
 Symbolic Z-matrix:
 Charge =  0 Multiplicity = 1
 C                    -0.51043  -1.74042   0.01789 
 C                    -0.29681  -0.27376  -0.28826 
 C                    -0.48471   0.07698  -1.754 
 Cl                   -1.36583   0.7207    0.74976 
 N                     1.14479   0.12031   0.12629 
 O                     1.65609  -0.52529   1.00304 
 O                     1.62722   1.07448  -0.42577 
 H                    -0.33698  -1.96098   1.07577 
 H                     0.18129  -2.34645  -0.58571 
 H                    -1.54321  -2.01532  -0.23929 
 H                    -0.38201   1.15541  -1.91959 
 H                    -1.48814  -0.24314  -2.06428 
 H                     0.25976  -0.45392  -2.36875 
 

 GradGradGradGradGradGradGradGradGradGradGradGradGradGradGradGradGradGrad
 Initialization pass.
                           ----------------------------
                           !    Initial Parameters    !
                           ! (Angstroms and Degrees)  !
 --------------------------                            --------------------------
 ! Name  Definition              Value          Derivative Info.                !
 --------------------------------------------------------------------------------
 ! R1    R(1,2)                  1.5134         calculate D2E/DX2 analytically  !
 ! R2    R(1,8)                  1.0945         calculate D2E/DX2 analytically  !
 ! R3    R(1,9)                  1.1            calculate D2E/DX2 analytically  !
 ! R4    R(1,10)                 1.0992         calculate D2E/DX2 analytically  !
 ! R5    R(2,3)                  1.5188         calculate D2E/DX2 analytically  !
 ! R6    R(2,4)                  1.7914         calculate D2E/DX2 analytically  !
 ! R7    R(2,5)                  1.5509         calculate D2E/DX2 analytically  !
 ! R8    R(3,11)                 1.0959         calculate D2E/DX2 analytically  !
 ! R9    R(3,12)                 1.098          calculate D2E/DX2 analytically  !
 ! R10   R(3,13)                 1.1018         calculate D2E/DX2 analytically  !
 ! R11   R(5,6)                  1.2029         calculate D2E/DX2 analytically  !
 ! R12   R(5,7)                  1.2033         calculate D2E/DX2 analytically  !
 ! A1    A(2,1,8)              111.6205         calculate D2E/DX2 analytically  !
 ! A2    A(2,1,9)              109.5203         calculate D2E/DX2 analytically  !
 ! A3    A(2,1,10)             109.1255         calculate D2E/DX2 analytically  !
 ! A4    A(8,1,9)              108.6441         calculate D2E/DX2 analytically  !
 ! A5    A(8,1,10)             108.944          calculate D2E/DX2 analytically  !
 ! A6    A(9,1,10)             108.9439         calculate D2E/DX2 analytically  !
 ! A7    A(1,2,3)              113.6758         calculate D2E/DX2 analytically  !
 ! A8    A(1,2,4)              109.6654         calculate D2E/DX2 analytically  !
 ! A9    A(1,2,5)              108.8665         calculate D2E/DX2 analytically  !
 ! A10   A(3,2,4)              110.9269         calculate D2E/DX2 analytically  !
 ! A11   A(3,2,5)              108.3168         calculate D2E/DX2 analytically  !
 ! A12   A(4,2,5)              104.9959         calculate D2E/DX2 analytically  !
 ! A13   A(2,3,11)             111.1915         calculate D2E/DX2 analytically  !
 ! A14   A(2,3,12)             108.5691         calculate D2E/DX2 analytically  !
 ! A15   A(2,3,13)             110.096          calculate D2E/DX2 analytically  !
 ! A16   A(11,3,12)            109.2591         calculate D2E/DX2 analytically  !
 ! A17   A(11,3,13)            109.0587         calculate D2E/DX2 analytically  !
 ! A18   A(12,3,13)            108.6218         calculate D2E/DX2 analytically  !
 ! A19   A(2,5,6)              116.9718         calculate D2E/DX2 analytically  !
 ! A20   A(2,5,7)              116.8404         calculate D2E/DX2 analytically  !
 ! A21   A(6,5,7)              126.1269         calculate D2E/DX2 analytically  !
 ! D1    D(8,1,2,3)            178.2552         calculate D2E/DX2 analytically  !
 ! D2    D(8,1,2,4)            -56.9352         calculate D2E/DX2 analytically  !
 ! D3    D(8,1,2,5)             57.4267         calculate D2E/DX2 analytically  !
 ! D4    D(9,1,2,3)             57.8996         calculate D2E/DX2 analytically  !
 ! D5    D(9,1,2,4)           -177.2907         calculate D2E/DX2 analytically  !
 ! D6    D(9,1,2,5)            -62.9288         calculate D2E/DX2 analytically  !
 ! D7    D(10,1,2,3)           -61.2768         calculate D2E/DX2 analytically  !
 ! D8    D(10,1,2,4)            63.5328         calculate D2E/DX2 analytically  !
 ! D9    D(10,1,2,5)           177.8947         calculate D2E/DX2 analytically  !
 ! D10   D(1,2,3,11)           176.4843         calculate D2E/DX2 analytically  !
 ! D11   D(1,2,3,12)            56.2568         calculate D2E/DX2 analytically  !
 ! D12   D(1,2,3,13)           -62.5335         calculate D2E/DX2 analytically  !
 ! D13   D(4,2,3,11)            52.3542         calculate D2E/DX2 analytically  !
 ! D14   D(4,2,3,12)           -67.8733         calculate D2E/DX2 analytically  !
 ! D15   D(4,2,3,13)           173.3365         calculate D2E/DX2 analytically  !
 ! D16   D(5,2,3,11)           -62.3793         calculate D2E/DX2 analytically  !
 ! D17   D(5,2,3,12)           177.3932         calculate D2E/DX2 analytically  !
 ! D18   D(5,2,3,13)            58.603          calculate D2E/DX2 analytically  !
 ! D19   D(1,2,5,6)            -26.5762         calculate D2E/DX2 analytically  !
 ! D20   D(1,2,5,7)            156.0863         calculate D2E/DX2 analytically  !
 ! D21   D(3,2,5,6)           -150.6412         calculate D2E/DX2 analytically  !
 ! D22   D(3,2,5,7)             32.0213         calculate D2E/DX2 analytically  !
 ! D23   D(4,2,5,6)             90.7921         calculate D2E/DX2 analytically  !
 ! D24   D(4,2,5,7)            -86.5453         calculate D2E/DX2 analytically  !
 --------------------------------------------------------------------------------
 Number of steps in this run=     67 maximum allowed number of steps=    100.
 GradGradGradGradGradGradGradGradGradGradGradGradGradGradGradGradGradGrad

                    Distance matrix (angstroms):
                    1          2          3          4          5
     1  C    0.000000
     2  C    1.513428   0.000000
     3  C    2.538349   1.518788   0.000000
     4  Cl   2.706370   1.791423   2.731212   0.000000
     5  N    2.492758   1.550925   2.488500   2.655630   0.000000
     6  O    2.672242   2.354688   3.542175   3.278509   1.202879
     7  O    3.562313   2.353415   2.686898   3.235016   1.203308
     8  H    1.094458   2.170004   3.490375   2.890715   2.725609
     9  H    1.100038   2.147817   2.771549   3.685707   2.742299
    10  H    1.099245   2.142181   2.791507   2.914700   3.452524
    11  H    3.486570   2.170489   1.095889   2.877896   2.754663
    12  H    2.744677   2.138802   1.098014   2.977039   3.444279
    13  H    2.818571   2.161176   1.101818   3.707738   2.708924
                    6          7          8          9         10
     6  O    0.000000
     7  O    2.145136   0.000000
     8  H    2.457404   3.914940   0.000000
     9  H    2.831217   3.717404   1.782610   0.000000
    10  H    3.741535   4.430945   1.785307   1.789845   0.000000
    11  H    3.939588   2.505000   4.322744   3.789402   3.771650
    12  H    4.401624   3.758499   3.759805   3.065473   2.544463
    13  H    3.650181   2.825093   3.806844   2.601360   3.197384
                   11         12         13
    11  H    0.000000
    12  H    1.788966   0.000000
    13  H    1.789843   1.786694   0.000000
 Framework group  C1[X(C3H6ClNO2)]
 Deg. of freedom    33
                         Standard orientation:                         
 ---------------------------------------------------------------------
 Center     Atomic      Atomic             Coordinates (Angstroms)
 Number     Number       Type             X           Y           Z
 ---------------------------------------------------------------------
      1          6           0       -0.510430    1.740422   -0.017894
      2          6           0       -0.296814    0.273758    0.288257
      3          6           0       -0.484707   -0.076981    1.753998
      4         17           0       -1.365825   -0.720698   -0.749755
      5          7           0        1.144792   -0.120312   -0.126291
      6          8           0        1.656092    0.525290   -1.003039
      7          8           0        1.627217   -1.074484    0.425771
      8          1           0       -0.336977    1.960983   -1.075772
      9          1           0        0.181290    2.346452    0.585707
     10          1           0       -1.543207    2.015323    0.239286
     11          1           0       -0.382005   -1.155407    1.919592
     12          1           0       -1.488142    0.243138    2.064285
     13          1           0        0.259755    0.453922    2.368751
 ---------------------------------------------------------------------
 Rotational constants (GHZ):           2.7375901           1.8494233           1.8332308
   114 basis functions,   211 primitive gaussians,   121 cartesian basis functions
    32 alpha electrons       32 beta electrons
       nuclear repulsion energy       398.0531293751 Hartrees.
 NAtoms=   13 NActive=   13 NUniq=   13 SFac= 1.00D+00 NAtFMM=   60 NAOKFM=F Big=F
 Nuclear repulsion after empirical dispersion term =      398.0467597464 Hartrees.
   1 Symmetry operations used in ECPInt.
 ECPInt:  NShTT=    1596 NPrTT=    6674 LenC2=    1584 LenP2D=    5239.
 LDataN:  DoStor=T MaxTD1= 4 Len=   56
 ExpMin= 1.22D-01 ExpMax= 1.04D+04 ExpMxC= 1.57D+03 IAcc=3 IRadAn=         5 AccDes= 0.00D+00
 Harris functional with IExCor= 4639 and IRadAn=       5 diagonalized for initial guess.
 HarFok:  IExCor= 4639 AccDes= 0.00D+00 IRadAn=         5 IDoV= 1 UseB2=F ITyADJ=14
 ICtDFT=  3500011 ScaDFX=  1.000000  1.000000  1.000000  1.000000
 FoFCou: FMM=F IPFlag=           0 FMFlag=      100000 FMFlg1=           0
         NFxFlg=           0 DoJE=T BraDBF=F KetDBF=T FulRan=T
         wScrn=  0.000000 ICntrl=       500 IOpCl=  0 I1Cent=   200000004 NGrid=           0
         NMat0=    1 NMatS0=      1 NMatT0=    0 NMatD0=    1 NMtDS0=    0 NMtDT0=    0
 Petite list used in FoFCou.
     Minimum is close to point  2 DX=  5.13D-02 DF= -1.32D-05 DXR=  7.87D-02 DFR=  6.23D-03 which will be used.
     Accept linear search using points  1 and  2.
     Minimum is close to point  2 DX=  5.55D-04 DF= -1.65D-11 DXR=  5.55D-04 DFR=  3.06D-07 which will be used.
 SCF Done:  E(RwB97XD) =  -782.738004809     a.u. after    8 cycles
            Convg  =    0.1017D-08                    42 Fock formations.
              S**2 =  0.0000                  -V/T =  2.0044
 DoSCS=F DFT=T ScalE2(SS,OS)=  1.000000  1.000000
 NROrb=    114 NOA=    32 NOB=    32 NVA=    82 NVB=    82
   1 Symmetry operations used in ECPInt.
 ECPInt:  NShTT=    1596 NPrTT=    6674 LenC2=    1584 LenP2D=    5239.
 LDataN:  DoStor=T MaxTD1= 5 Len=  102
 Symmetrizing basis deriv contribution to polar:
 IMax=3 JMax=2 DiffMx= 0.00D+00
 Calling FoFCou, ICntrl=  3107 FMM=F I1Cent=   0 AccDes= 0.00D+00.
 End of G2Drv F.D. properties file   721 does not exist.
 End of G2Drv F.D. properties file   722 does not exist.
 End of G2Drv F.D. properties file   788 does not exist.
          IDoAtm=1111111111111
 End of Minotr F.D. properties file   721 does not exist.
 End of Minotr F.D. properties file   722 does not exist.
 End of Minotr F.D. properties file   788 does not exist.

 **********************************************************************

            Population analysis using the SCF Density.

 **********************************************************************

 Orbital symmetries:
       Occupied  (A) (A) (A) (A) (A) (A) (A) (A) (A) (A) (A) (A)
                 (A) (A) (A) (A) (A) (A) (A) (A) (A) (A) (A) (A)
                 (A) (A) (A) (A) (A) (A) (A) (A)
       Virtual   (A) (A) (A) (A) (A) (A) (A) (A) (A) (A) (A) (A)
                 (A) (A) (A) (A) (A) (A) (A) (A) (A) (A) (A) (A)
                 (A) (A) (A) (A) (A) (A) (A) (A) (A) (A) (A) (A)
                 (A) (A) (A) (A) (A) (A) (A) (A) (A) (A) (A) (A)
                 (A) (A) (A) (A) (A) (A) (A) (A) (A) (A) (A) (A)
                 (A) (A) (A) (A) (A) (A) (A) (A) (A) (A) (A) (A)
                 (A) (A) (A) (A) (A) (A) (A) (A) (A) (A)
 The electronic state is 1-A.
 Alpha  occ. eigenvalues -- -101.69116 -19.30008 -19.29959 -14.69139 -10.42855
 Alpha  occ. eigenvalues --  -10.31911 -10.31755  -9.59939  -7.35349  -7.34340
 Alpha  occ. eigenvalues --   -7.34295  -1.35204  -1.17497  -1.01037  -0.89341
 Alpha  occ. eigenvalues --   -0.81943  -0.80654  -0.66851  -0.65411  -0.63306
 Alpha  occ. eigenvalues --   -0.61351  -0.56460  -0.54952  -0.51868  -0.51138
 Alpha  occ. eigenvalues --   -0.47879  -0.47451  -0.42655  -0.41132  -0.40104
 Alpha  occ. eigenvalues --   -0.39231  -0.38770
 Alpha virt. eigenvalues --   -0.00317   0.10164   0.13057   0.14815   0.18375
 Alpha virt. eigenvalues --    0.19664   0.21266   0.22312   0.22472   0.26168
 Alpha virt. eigenvalues --    0.27095   0.37220   0.43636   0.45493   0.49715
 Alpha virt. eigenvalues --    0.50951   0.53512   0.56472   0.56656   0.62580
 Alpha virt. eigenvalues --    0.65346   0.69116   0.71444   0.72043   0.72680
 Alpha virt. eigenvalues --    0.74419   0.76308   0.77730   0.77972   0.78874
 Alpha virt. eigenvalues --    0.80410   0.84492   0.86118   0.86427   0.88100
 Alpha virt. eigenvalues --    0.89387   0.92457   0.97478   0.98592   1.02127
 Alpha virt. eigenvalues --    1.04031   1.04694   1.05580   1.13236   1.16172
 Alpha virt. eigenvalues --    1.19065   1.21051   1.25835   1.34411   1.36899
 Alpha virt. eigenvalues --    1.44135   1.53911   1.62041   1.68638   1.80935
 Alpha virt. eigenvalues --    1.84835   1.86185   1.96859   1.97501   2.07917
 Alpha virt. eigenvalues --    2.08568   2.11141   2.19391   2.20714   2.25134
 Alpha virt. eigenvalues --    2.34259   2.42492   2.48822   2.50607   2.53192
 Alpha virt. eigenvalues --    2.64947   2.68942   2.70914   2.72687   2.74381
 Alpha virt. eigenvalues --    2.84814   3.13383   3.23358   3.40203   3.50381
 Alpha virt. eigenvalues --    3.80681   3.87215
          Condensed to atoms (all electrons):
 Mulliken charges:
               1
     1  C   -0.228630
     2  C   -0.161508
     3  C   -0.231672
     4  Cl  -0.067722
     5  N    0.254453
     6  O   -0.228874
     7  O   -0.228826
     8  H    0.164410
     9  H    0.136964
    10  H    0.143804
    11  H    0.164863
    12  H    0.142702
    13  H    0.140035
 Sum of Mulliken charges =   0.00000
 Mulliken charges with hydrogens summed into heavy atoms:
               1
     1  C    0.216548
     2  C   -0.161508
     3  C    0.215928
     4  Cl  -0.067722
     5  N    0.254453
     6  O   -0.228874
     7  O   -0.228826
 APT charges:
               1
     1  C   -0.086158
     2  C    0.566065
     3  C   -0.082119
     4  Cl  -0.309030
     5  N    0.929837
     6  O   -0.619195
     7  O   -0.621512
     8  H    0.058471
     9  H    0.018682
    10  H    0.034533
    11  H    0.057203
    12  H    0.032616
    13  H    0.020607
 Sum of APT charges =   0.00000
 APT charges with hydrogens summed into heavy atoms:
               1
     1  C    0.025528
     2  C    0.566065
     3  C    0.028308
     4  Cl  -0.309030
     5  N    0.929837
     6  O   -0.619195
     7  O   -0.621512
 Electronic spatial extent (au):  <R**2>=            822.4159
 Charge=              0.0000 electrons
 Dipole moment (field-independent basis, Debye):
    X=             -2.2767    Y=              1.9046    Z=              1.9857  Tot=              3.5712
  Exact polarizability:  52.406   1.437  53.937   1.457  -3.308  52.917
 Approx polarizability:  58.499   3.023  65.998   2.775  -8.698  63.477
 Evaluate density.
 Using the total density.
 Monte-Carlo method of calculating molar volume:
 based on  0.001 e/bohr**3 density envelope.
 Number of points per bohr**3 =  100 CutOff= 1.00D-04
 Using the SCF density.
 There are      1916 points.  Will hold      1916 in memory.
 LenV=  1048322564 MDV=  1048576000.
 Box volume = 7043.677 fraction occupied=0.116
 Integrated density= 4.4307067902316192D+01 error=-1.9692932097683808D+01
 Molar volume =  819.802 bohr**3/mol ( 73.158 cm**3/mol)
 Recommended a0 for SCRF calculation =  3.88 angstrom (  7.34 bohr)
   1 Symmetry operations used in ECPInt.
 ECPInt:  NShTT=    1596 NPrTT=    6674 LenC2=    1584 LenP2D=    5239.
 LDataN:  DoStor=T MaxTD1= 6 Len=  172
 Calling FoFJK, ICntrl=    100127 FMM=F ISym2X=0 I1Cent= 0 IOpClX= 0 NMat=1 NMatS=1 NMatT=0.
 FormGI is forming the generalized inverse of G from B-inverse, IUseBI=4.

 GradGradGradGradGradGradGradGradGradGradGradGradGradGradGradGradGradGrad
 Internal  Forces:  Max     0.005730163 RMS     0.001465315
 Step number   1 out of a maximum of   67
 All quantities printed in internal units (Hartrees-Bohrs-Radians)
 Mixed Optimization -- RFO/linear search
 Second derivative matrix not updated -- analytic derivatives used.
 ITU=  0
     Eigenvalues ---   -0.00016   0.00318   0.00450   0.04444   0.04524
     Eigenvalues ---    0.04552   0.04632   0.04733   0.06271   0.08059
     Eigenvalues ---    0.09285   0.12821   0.13151   0.14310   0.14631
     Eigenvalues ---    0.15277   0.15773   0.17634   0.21355   0.21911
     Eigenvalues ---    0.24059   0.30601   0.33220   0.33568   0.34628
     Eigenvalues ---    0.34987   0.35176   0.35448   0.36156   0.36809
     Eigenvalues ---    0.42156   0.72686   0.93327
 Linear search not attempted -- first point.
 Iteration  1 RMS(Cart)=  0.08085924 RMS(Int)=  0.03542525
 Iteration  2 RMS(Cart)=  0.03988933 RMS(Int)=  0.00187554
 Iteration  3 RMS(Cart)=  0.00193731 RMS(Int)=  0.00007644
 Iteration  4 RMS(Cart)=  0.00000398 RMS(Int)=  0.00007637
 Iteration  5 RMS(Cart)=  0.00000000 RMS(Int)=  0.00007637
 Variable       Old X    -DE/DX   Delta X   Delta X   Delta X     New X
                                 (Linear)    (Quad)   (Total)
    R1        2.85996   0.00128   0.00000  -0.00049  -0.00049   2.85947
    R2        2.06823   0.00257   0.00000   0.00698   0.00698   2.07521
    R3        2.07877   0.00210   0.00000   0.00401   0.00401   2.08278
    R4        2.07727   0.00142   0.00000   0.00416   0.00416   2.08143
    R5        2.87009  -0.00160   0.00000  -0.00391  -0.00391   2.86618
    R6        3.38530   0.00186   0.00000   0.01766   0.01766   3.40296
    R7        2.93082  -0.00006   0.00000  -0.01038  -0.01038   2.92044
    R8        2.07093   0.00170   0.00000   0.00498   0.00498   2.07591
    R9        2.07495   0.00248   0.00000   0.00578   0.00578   2.08072
   R10        2.08213   0.00057   0.00000   0.00447   0.00447   2.08660
   R11        2.27311   0.00573   0.00000   0.00737   0.00737   2.28048
   R12        2.27392   0.00494   0.00000   0.00490   0.00490   2.27882
    A1        1.94815  -0.00156   0.00000  -0.00598  -0.00599   1.94215
    A2        1.91149   0.00108   0.00000   0.00898   0.00900   1.92049
    A3        1.90460  -0.00061   0.00000  -0.01006  -0.01007   1.89453
    A4        1.89620   0.00036   0.00000  -0.00017  -0.00016   1.89604
    A5        1.90143   0.00101   0.00000   0.00673   0.00668   1.90811
    A6        1.90143  -0.00024   0.00000   0.00069   0.00072   1.90215
    A7        1.98402  -0.00027   0.00000   0.00868   0.00862   1.99263
    A8        1.91402   0.00116   0.00000   0.00039   0.00047   1.91450
    A9        1.90008   0.00034   0.00000   0.02376   0.02372   1.92380
   A10        1.93604  -0.00144   0.00000  -0.01813  -0.01820   1.91784
   A11        1.89048   0.00112   0.00000  -0.00554  -0.00585   1.88464
   A12        1.83252  -0.00094   0.00000  -0.00978  -0.00994   1.82259
   A13        1.94066  -0.00029   0.00000  -0.00988  -0.00992   1.93074
   A14        1.89489   0.00084   0.00000   0.01112   0.01115   1.90604
   A15        1.92154  -0.00108   0.00000  -0.00933  -0.00937   1.91217
   A16        1.90693  -0.00005   0.00000   0.00571   0.00574   1.91267
   A17        1.90343   0.00030   0.00000   0.00078   0.00067   1.90410
   A18        1.89581   0.00030   0.00000   0.00198   0.00201   1.89782
   A19        2.04154   0.00164   0.00000   0.01171   0.01152   2.05306
   A20        2.03925   0.00009   0.00000  -0.00557  -0.00576   2.03349
   A21        2.20133  -0.00164   0.00000  -0.00459  -0.00478   2.19655
    D1        3.11114   0.00106   0.00000   0.03167   0.03173  -3.14031
    D2       -0.99371  -0.00013   0.00000   0.01447   0.01445  -0.97926
    D3        1.00229  -0.00044   0.00000   0.01604   0.01595   1.01824
    D4        1.01054   0.00090   0.00000   0.02974   0.02982   1.04036
    D5       -3.09431  -0.00030   0.00000   0.01255   0.01253  -3.08177
    D6       -1.09831  -0.00060   0.00000   0.01411   0.01404  -1.08428
    D7       -1.06948   0.00092   0.00000   0.02959   0.02969  -1.03979
    D8        1.10886  -0.00027   0.00000   0.01240   0.01240   1.12126
    D9        3.10485  -0.00058   0.00000   0.01396   0.01391   3.11876
   D10        3.08023   0.00020   0.00000   0.05518   0.05517   3.13540
   D11        0.98187  -0.00011   0.00000   0.04703   0.04705   1.02892
   D12       -1.09141  -0.00034   0.00000   0.04338   0.04344  -1.04797
   D13        0.91375  -0.00000   0.00000   0.06239   0.06239   0.97615
   D14       -1.18461  -0.00031   0.00000   0.05423   0.05427  -1.13034
   D15        3.02529  -0.00054   0.00000   0.05058   0.05066   3.07596
   D16       -1.08872   0.00126   0.00000   0.08710   0.08700  -1.00173
   D17        3.09610   0.00095   0.00000   0.07895   0.07888  -3.10821
   D18        1.02281   0.00071   0.00000   0.07530   0.07527   1.09808
   D19       -0.46384   0.00091   0.00000   0.32548   0.32550  -0.13834
   D20        2.72422  -0.00120   0.00000   0.29189   0.29191   3.01613
   D21       -2.62919   0.00032   0.00000   0.30335   0.30337  -2.32582
   D22        0.55888  -0.00179   0.00000   0.26975   0.26978   0.82865
   D23        1.58462   0.00193   0.00000   0.33218   0.33214   1.91676
   D24       -1.51050  -0.00018   0.00000   0.29859   0.29854  -1.21196
         Item               Value     Threshold  Converged?
 Maximum Force            0.005730     0.000015     NO 
 RMS     Force            0.001465     0.000010     NO 
 Maximum Displacement     0.461479     0.000060     NO 
 RMS     Displacement     0.116113     0.000040     NO 
 GradGradGradGradGradGradGradGradGradGradGradGradGradGradGradGradGradGrad

                    Distance matrix (angstroms):
                    1          2          3          4          5
     1  C    0.000000
     2  C    1.513168   0.000000
     3  C    2.543514   1.516719   0.000000
     4  Cl   2.714565   1.800769   2.720497   0.000000
     5  N    2.508975   1.545432   2.477102   2.649117   0.000000
     6  O    2.657014   2.361061   3.458383   3.459890   1.206781
     7  O    3.607808   2.346540   2.766526   3.049076   1.205899
     8  H    1.098154   2.168319   3.494042   2.886081   2.752269
     9  H    1.102161   2.155736   2.801109   3.699933   2.766200
    10  H    1.101446   2.136170   2.777537   2.920437   3.459866
    11  H    3.488269   2.163540   1.098526   2.881805   2.693879
    12  H    2.783685   2.147477   1.101072   2.941876   3.442098
    13  H    2.798856   2.154295   1.104182   3.702804   2.727012
                    6          7          8          9         10
     6  O    0.000000
     7  O    2.148308   0.000000
     8  H    2.547120   3.916065   0.000000
     9  H    2.686868   3.859347   1.787232   0.000000
    10  H    3.745478   4.451355   1.794366   1.793823   0.000000
    11  H    3.842374   2.484347   4.317599   3.802017   3.773854
    12  H    4.358081   3.802671   3.786748   3.143753   2.563054
    13  H    3.488739   3.056031   3.800427   2.603869   3.145561
                   11         12         13
    11  H    0.000000
    12  H    1.797256   0.000000
    13  H    1.794344   1.792388   0.000000
 Framework group  C1[X(C3H6ClNO2)]
 Deg. of freedom    33
                         Standard orientation:                         
 ---------------------------------------------------------------------
 Center     Atomic      Atomic             Coordinates (Angstroms)
 Number     Number       Type             X           Y           Z
 ---------------------------------------------------------------------
      1          6           0       -0.428412    1.745475   -0.334412
      2          6           0       -0.278750    0.347036    0.223842
      3          6           0       -0.506763    0.247972    1.720048
      4         17           0       -1.391712   -0.773852   -0.640851
      5          7           0        1.133519   -0.201589   -0.080898
      6          8           0        1.840686    0.448133   -0.811717
      7          8           0        1.422858   -1.255783    0.428169
      8          1           0       -0.255065    1.762385   -1.418667
      9          1           0        0.293605    2.424030    0.148301
     10          1           0       -1.449679    2.099713   -0.122959
     11          1           0       -0.390302   -0.789685    2.061320
     12          1           0       -1.522184    0.602392    1.955987
     13          1           0        0.223307    0.886084    2.248281
 ---------------------------------------------------------------------
 Rotational constants (GHZ):           2.7532970           1.9148138           1.7612213
   114 basis functions,   211 primitive gaussians,   121 cartesian basis functions
    32 alpha electrons       32 beta electrons
       nuclear repulsion energy       397.8339961557 Hartrees.
 NAtoms=   13 NActive=   13 NUniq=   13 SFac= 1.00D+00 NAtFMM=   60 NAOKFM=F Big=F
 Nuclear repulsion after empirical dispersion term =      397.8276404287 Hartrees.
   1 Symmetry operations used in ECPInt.
 ECPInt:  NShTT=    1596 NPrTT=    6674 LenC2=    1584 LenP2D=    5238.
 LDataN:  DoStor=T MaxTD1= 4 Len=   56
 Initial guess from the checkpoint file:  "monomer.chk"
 B after Tr=     0.000000   -0.000000    0.000000
         Rot=    0.997360    0.064394    0.015644    0.029684 Ang=   8.33 deg.
 ExpMin= 1.22D-01 ExpMax= 1.04D+04 ExpMxC= 1.57D+03 IAcc=3 IRadAn=         5 AccDes= 0.00D+00
 Harris functional with IExCor= 4639 and IRadAn=       5 diagonalized for initial guess.
 HarFok:  IExCor= 4639 AccDes= 0.00D+00 IRadAn=         5 IDoV= 1 UseB2=F ITyADJ=14
 ICtDFT=  3500011 ScaDFX=  1.000000  1.000000  1.000000  1.000000
 FoFCou: FMM=F IPFlag=           0 FMFlag=      100000 FMFlg1=           0
         NFxFlg=           0 DoJE=T BraDBF=F KetDBF=T FulRan=T
         wScrn=  0.000000 ICntrl=       500 IOpCl=  0 I1Cent=   200000004 NGrid=           0
         NMat0=    1 NMatS0=      1 NMatT0=    0 NMatD0=    1 NMtDS0=    0 NMtDT0=    0
 Petite list used in FoFCou.
     Accept linear search using points  3 and  4.
     Accept linear search using points  1 and  2.
     Accept linear search using points  1 and  2.
     Minimum is close to point  2 DX= -7.48D-02 DF= -3.26D-05 DXR=  9.06D-02 DFR=  6.82D-03 which will be used.
     Accept linear search using points  1 and  2.
     Accept linear search using points  1 and  2.
     Accept linear search using points  1 and  2.
     Accept linear search using points  2 and  3.
     Accept linear search using points  1 and  2.
     Accept linear search using points  1 and  2.
     Accept linear search using points  1 and  2.
     Accept linear search using points  1 and  2.
     Minimum is close to point  2 DX= -2.84D-04 DF= -2.08D-11 DXR=  2.84D-04 DFR=  8.09D-08 which will be used.
     Accept linear search using points  2 and  3.
     Minimum is close to point  2 DX=  4.48D-06 DF=  0.00D+00 DXR=  4.48D-06 DFR=  0.00D+00 which will be used.
 SCF Done:  E(RwB97XD) =  -782.738308397     a.u. after   18 cycles
            Convg  =    0.1188D-07                    65 Fock formations.
              S**2 =  0.0000                  -V/T =  2.0044
 DoSCS=F DFT=T ScalE2(SS,OS)=  1.000000  1.000000
 NROrb=    114 NOA=    32 NOB=    32 NVA=    82 NVB=    82
   1 Symmetry operations used in ECPInt.
 ECPInt:  NShTT=    1596 NPrTT=    6674 LenC2=    1584 LenP2D=    5238.
 LDataN:  DoStor=T MaxTD1= 5 Len=  102
 Symmetrizing basis deriv contribution to polar:
 IMax=3 JMax=2 DiffMx= 0.00D+00
 Calling FoFCou, ICntrl=  3107 FMM=F I1Cent=   0 AccDes= 0.00D+00.
 End of G2Drv F.D. properties file   721 does not exist.
 End of G2Drv F.D. properties file   722 does not exist.
 End of G2Drv F.D. properties file   788 does not exist.
          IDoAtm=1111111111111
 End of Minotr F.D. properties file   721 does not exist.
 End of Minotr F.D. properties file   722 does not exist.
 End of Minotr F.D. properties file   788 does not exist.
   1 Symmetry operations used in ECPInt.
 ECPInt:  NShTT=    1596 NPrTT=    6674 LenC2=    1584 LenP2D=    5238.
 LDataN:  DoStor=T MaxTD1= 6 Len=  172
 Calling FoFJK, ICntrl=    100127 FMM=F ISym2X=0 I1Cent= 0 IOpClX= 0 NMat=1 NMatS=1 NMatT=0.
 FormGI is forming the generalized inverse of G from B-inverse, IUseBI=4.

 GradGradGradGradGradGradGradGradGradGradGradGradGradGradGradGradGradGrad
 Using GEDIIS/GDIIS optimizer.
 Internal  Forces:  Max     0.001557095 RMS     0.000419687
 Step number   2 out of a maximum of   67
 All quantities printed in internal units (Hartrees-Bohrs-Radians)
 Mixed Optimization -- En-DIIS/RFO-DIIS
 Second derivative matrix not updated -- analytic derivatives used.
 Trust test= 7.58D-01 RLast= 7.73D-01 DXMaxT set to 5.05D-01
 ITU=  1  0
 Use linear search instead of GDIIS.
     Eigenvalues ---    0.00096   0.00328   0.00450   0.04306   0.04467
     Eigenvalues ---    0.04531   0.04582   0.04722   0.06510   0.08049
     Eigenvalues ---    0.09381   0.12836   0.13181   0.14500   0.14510
     Eigenvalues ---    0.15267   0.15636   0.18070   0.20717   0.21830
     Eigenvalues ---    0.23674   0.30232   0.32153   0.33486   0.34149
     Eigenvalues ---    0.34611   0.34770   0.34876   0.35572   0.35793
     Eigenvalues ---    0.41257   0.70824   0.91319
 Quintic linear search produced a step of -0.16377.
 Iteration  1 RMS(Cart)=  0.01990175 RMS(Int)=  0.00043996
 Iteration  2 RMS(Cart)=  0.00045712 RMS(Int)=  0.00000882
 Iteration  3 RMS(Cart)=  0.00000021 RMS(Int)=  0.00000881
 Variable       Old X    -DE/DX   Delta X   Delta X   Delta X     New X
                                 (Linear)    (Quad)   (Total)
    R1        2.85947   0.00016   0.00008   0.00151   0.00159   2.86106
    R2        2.07521   0.00038  -0.00114   0.00199   0.00085   2.07606
    R3        2.08278  -0.00003  -0.00066   0.00063  -0.00003   2.08276
    R4        2.08143  -0.00004  -0.00068   0.00068  -0.00000   2.08143
    R5        2.86618   0.00021   0.00064  -0.00041   0.00023   2.86641
    R6        3.40296  -0.00020  -0.00289   0.00094  -0.00195   3.40101
    R7        2.92044  -0.00014   0.00170  -0.00100   0.00070   2.92114
    R8        2.07591   0.00028  -0.00082   0.00154   0.00072   2.07664
    R9        2.08072   0.00001  -0.00095   0.00111   0.00017   2.08089
   R10        2.08660  -0.00018  -0.00073  -0.00021  -0.00094   2.08566
   R11        2.28048   0.00016  -0.00121   0.00153   0.00032   2.28080
   R12        2.27882  -0.00009  -0.00080   0.00051  -0.00029   2.27853
    A1        1.94215  -0.00018   0.00098  -0.00278  -0.00180   1.94035
    A2        1.92049   0.00001  -0.00147   0.00156   0.00009   1.92057
    A3        1.89453   0.00022   0.00165  -0.00018   0.00147   1.89600
    A4        1.89604   0.00012   0.00003   0.00196   0.00198   1.89802
    A5        1.90811  -0.00010  -0.00109  -0.00044  -0.00153   1.90659
    A6        1.90215  -0.00006  -0.00012  -0.00010  -0.00022   1.90193
    A7        1.99263   0.00046  -0.00141   0.00094  -0.00046   1.99217
    A8        1.91450  -0.00009  -0.00008   0.00016   0.00007   1.91457
    A9        1.92380  -0.00096  -0.00388  -0.00261  -0.00649   1.91731
   A10        1.91784  -0.00029   0.00298  -0.00373  -0.00074   1.91709
   A11        1.88464   0.00020   0.00096   0.00176   0.00276   1.88740
   A12        1.82259   0.00071   0.00163   0.00372   0.00537   1.82795
   A13        1.93074   0.00009   0.00162  -0.00062   0.00101   1.93175
   A14        1.90604  -0.00005  -0.00183  -0.00010  -0.00193   1.90410
   A15        1.91217   0.00011   0.00153   0.00066   0.00220   1.91437
   A16        1.91267  -0.00017  -0.00094  -0.00228  -0.00323   1.90944
   A17        1.90410  -0.00000  -0.00011   0.00077   0.00067   1.90478
   A18        1.89782   0.00002  -0.00033   0.00161   0.00128   1.89910
   A19        2.05306  -0.00156  -0.00189  -0.00315  -0.00503   2.04804
   A20        2.03349   0.00105   0.00094   0.00354   0.00450   2.03798
   A21        2.19655   0.00052   0.00078  -0.00018   0.00061   2.19716
    D1       -3.14031  -0.00000  -0.00520   0.00091  -0.00429   3.13858
    D2       -0.97926  -0.00012  -0.00237  -0.00319  -0.00555  -0.98481
    D3        1.01824   0.00014  -0.00261  -0.00009  -0.00269   1.01555
    D4        1.04036  -0.00003  -0.00488  -0.00078  -0.00567   1.03469
    D5       -3.08177  -0.00016  -0.00205  -0.00487  -0.00693  -3.08870
    D6       -1.08428   0.00011  -0.00230  -0.00178  -0.00406  -1.08834
    D7       -1.03979  -0.00010  -0.00486  -0.00147  -0.00634  -1.04613
    D8        1.12126  -0.00022  -0.00203  -0.00556  -0.00760   1.11366
    D9        3.11876   0.00004  -0.00228  -0.00247  -0.00474   3.11402
   D10        3.13540   0.00018  -0.00904   0.01584   0.00681  -3.14097
   D11        1.02892   0.00036  -0.00771   0.01913   0.01142   1.04034
   D12       -1.04797   0.00030  -0.00711   0.01683   0.00971  -1.03826
   D13        0.97615   0.00019  -0.01022   0.01785   0.00763   0.98378
   D14       -1.13034   0.00038  -0.00889   0.02114   0.01224  -1.11810
   D15        3.07596   0.00032  -0.00830   0.01885   0.01053   3.08649
   D16       -1.00173  -0.00060  -0.01425   0.01443   0.00020  -1.00153
   D17       -3.10821  -0.00041  -0.01292   0.01771   0.00481  -3.10341
   D18        1.09808  -0.00047  -0.01233   0.01542   0.00310   1.10118
   D19       -0.13834   0.00061  -0.05331   0.00693  -0.04638  -0.18471
   D20        3.01613  -0.00065  -0.04781  -0.01021  -0.05802   2.95811
   D21       -2.32582   0.00052  -0.04968   0.00627  -0.04341  -2.36922
   D22        0.82865  -0.00073  -0.04418  -0.01087  -0.05505   0.77360
   D23        1.91676   0.00042  -0.05439   0.00790  -0.04650   1.87026
   D24       -1.21196  -0.00083  -0.04889  -0.00925  -0.05814  -1.27010
         Item               Value     Threshold  Converged?
 Maximum Force            0.001557     0.000015     NO 
 RMS     Force            0.000420     0.000010     NO 
 Maximum Displacement     0.080584     0.000060     NO 
 RMS     Displacement     0.019917     0.000040     NO 
 GradGradGradGradGradGradGradGradGradGradGradGradGradGradGradGradGradGrad

                    Distance matrix (angstroms):
                    1          2          3          4          5
     1  C    0.000000
     2  C    1.514009   0.000000
     3  C    2.543943   1.516840   0.000000
     4  Cl   2.714412   1.799738   2.719011   0.000000
     5  N    2.504276   1.545802   2.479984   2.653994   0.000000
     6  O    2.647786   2.358002   3.472518   3.438441   1.206949
     7  O    3.602371   2.349933   2.752387   3.092496   1.205744
     8  H    1.098603   2.168115   3.494061   2.887564   2.743394
     9  H    1.102147   2.156528   2.799033   3.699810   2.762148
    10  H    1.101444   2.137990   2.782043   2.917633   3.457380
    11  H    3.489708   2.164664   1.098909   2.885158   2.698289
    12  H    2.787235   2.146227   1.101160   2.932178   3.443466
    13  H    2.796461   2.155637   1.103684   3.702205   2.733587
                    6          7          8          9         10
     6  O    0.000000
     7  O    2.148656   0.000000
     8  H    2.517095   3.917518   0.000000
     9  H    2.697902   3.836771   1.788858   0.000000
    10  H    3.735140   4.451588   1.793759   1.793670   0.000000
    11  H    3.855647   2.475639   4.318502   3.799820   3.780046
    12  H    4.367327   3.793324   3.789652   3.146817   2.571362
    13  H    3.520549   3.026966   3.798329   2.598716   3.145399
                   11         12         13
    11  H    0.000000
    12  H    1.795590   0.000000
    13  H    1.794680   1.792876   0.000000
 Framework group  C1[X(C3H6ClNO2)]
 Deg. of freedom    33
                         Standard orientation:                         
 ---------------------------------------------------------------------
 Center     Atomic      Atomic             Coordinates (Angstroms)
 Number     Number       Type             X           Y           Z
 ---------------------------------------------------------------------
      1          6           0       -0.431635    1.752317   -0.262719
      2          6           0       -0.280175    0.331559    0.238011
      3          6           0       -0.505083    0.172139    1.729589
      4         17           0       -1.395413   -0.752781   -0.667255
      5          7           0        1.135036   -0.194100   -0.094199
      6          8           0        1.813114    0.471526   -0.838428
      7          8           0        1.460474   -1.237115    0.415732
      8          1           0       -0.255939    1.812288   -1.345522
      9          1           0        0.287171    2.412085    0.249874
     10          1           0       -1.454301    2.096320   -0.041365
     11          1           0       -0.380970   -0.877369    2.030803
     12          1           0       -1.524657    0.505859    1.977889
     13          1           0        0.218120    0.795413    2.283326
 ---------------------------------------------------------------------
 Rotational constants (GHZ):           2.7548194           1.8990666           1.7684905
   114 basis functions,   211 primitive gaussians,   121 cartesian basis functions
    32 alpha electrons       32 beta electrons
       nuclear repulsion energy       397.6991319783 Hartrees.
 NAtoms=   13 NActive=   13 NUniq=   13 SFac= 1.00D+00 NAtFMM=   60 NAOKFM=F Big=F
 Nuclear repulsion after empirical dispersion term =      397.6927757250 Hartrees.
   1 Symmetry operations used in ECPInt.
 ECPInt:  NShTT=    1596 NPrTT=    6674 LenC2=    1584 LenP2D=    5235.
 LDataN:  DoStor=T MaxTD1= 4 Len=   56
 Initial guess from the checkpoint file:  "monomer.chk"
 B after Tr=    -0.000000   -0.000000    0.000000
         Rot=    0.999850   -0.016800   -0.002641   -0.003325 Ang=  -1.99 deg.
 ExpMin= 1.22D-01 ExpMax= 1.04D+04 ExpMxC= 1.57D+03 IAcc=3 IRadAn=         5 AccDes= 0.00D+00
 Harris functional with IExCor= 4639 and IRadAn=       5 diagonalized for initial guess.
 HarFok:  IExCor= 4639 AccDes= 0.00D+00 IRadAn=         5 IDoV= 1 UseB2=F ITyADJ=14
 ICtDFT=  3500011 ScaDFX=  1.000000  1.000000  1.000000  1.000000
 FoFCou: FMM=F IPFlag=           0 FMFlag=      100000 FMFlg1=           0
         NFxFlg=           0 DoJE=T BraDBF=F KetDBF=T FulRan=T
         wScrn=  0.000000 ICntrl=       500 IOpCl=  0 I1Cent=   200000004 NGrid=           0
         NMat0=    1 NMatS0=      1 NMatT0=    0 NMatD0=    1 NMtDS0=    0 NMtDT0=    0
 Petite list used in FoFCou.
     Minimum is close to point  4 DX=  1.72D-02 DF= -3.34D-07 DXR=  1.41D-02 DFR=  1.99D-04 which will be used.
     Accept linear search using points  1 and  2.
     Accept linear search using points  1 and  2.
     Accept linear search using points  1 and  2.
     Minimum is close to point  2 DX= -2.52D-04 DF= -7.73D-12 DXR=  2.52D-04 DFR=  6.34D-08 which will be used.
 SCF Done:  E(RwB97XD) =  -782.738352362     a.u. after    9 cycles
            Convg  =    0.4956D-08                    43 Fock formations.
              S**2 =  0.0000                  -V/T =  2.0044
 DoSCS=F DFT=T ScalE2(SS,OS)=  1.000000  1.000000
 NROrb=    114 NOA=    32 NOB=    32 NVA=    82 NVB=    82
   1 Symmetry operations used in ECPInt.
 ECPInt:  NShTT=    1596 NPrTT=    6674 LenC2=    1584 LenP2D=    5235.
 LDataN:  DoStor=T MaxTD1= 5 Len=  102
 Symmetrizing basis deriv contribution to polar:
 IMax=3 JMax=2 DiffMx= 0.00D+00
 Calling FoFCou, ICntrl=  3107 FMM=F I1Cent=   0 AccDes= 0.00D+00.
 End of G2Drv F.D. properties file   721 does not exist.
 End of G2Drv F.D. properties file   722 does not exist.
 End of G2Drv F.D. properties file   788 does not exist.
          IDoAtm=1111111111111
 End of Minotr F.D. properties file   721 does not exist.
 End of Minotr F.D. properties file   722 does not exist.
 End of Minotr F.D. properties file   788 does not exist.
   1 Symmetry operations used in ECPInt.
 ECPInt:  NShTT=    1596 NPrTT=    6674 LenC2=    1584 LenP2D=    5235.
 LDataN:  DoStor=T MaxTD1= 6 Len=  172
 Calling FoFJK, ICntrl=    100127 FMM=F ISym2X=0 I1Cent= 0 IOpClX= 0 NMat=1 NMatS=1 NMatT=0.
 FormGI is forming the generalized inverse of G from B-inverse, IUseBI=4.

 GradGradGradGradGradGradGradGradGradGradGradGradGradGradGradGradGradGrad
 Using GEDIIS/GDIIS optimizer.
 Internal  Forces:  Max     0.000307339 RMS     0.000071643
 Step number   3 out of a maximum of   67
 All quantities printed in internal units (Hartrees-Bohrs-Radians)
 Mixed Optimization -- En-DIIS/RFO-DIIS
 Swapping is turned off.
 Second derivative matrix not updated -- analytic derivatives used.
 Trust test= 1.02D+00 RLast= 1.31D-01 DXMaxT set to 5.05D-01
 ITU=  1  1  0
     Eigenvalues ---    0.00057   0.00323   0.00455   0.04346   0.04477
     Eigenvalues ---    0.04535   0.04565   0.04718   0.06425   0.08014
     Eigenvalues ---    0.09314   0.12822   0.13173   0.14375   0.14535
     Eigenvalues ---    0.15264   0.15644   0.17899   0.20748   0.21928
     Eigenvalues ---    0.23682   0.30368   0.32364   0.33411   0.34249
     Eigenvalues ---    0.34624   0.34775   0.34856   0.35489   0.35793
     Eigenvalues ---    0.41603   0.70810   0.91289
 En-DIIS/RFO-DIIS/Sim-DIIS IScMMF=       -3 using points:     3    2
 RFO step:  Lambda=-6.16261449D-06.
 DidBck=F Rises=F RFO-DIIS coefs:    1.49023   -0.49023
 Iteration  1 RMS(Cart)=  0.00992562 RMS(Int)=  0.00011301
 Iteration  2 RMS(Cart)=  0.00011708 RMS(Int)=  0.00000369
 Iteration  3 RMS(Cart)=  0.00000001 RMS(Int)=  0.00000369
 Variable       Old X    -DE/DX   Delta X   Delta X   Delta X     New X
                                 (Linear)    (Quad)   (Total)
    R1        2.86106  -0.00001   0.00078  -0.00097  -0.00019   2.86087
    R2        2.07606  -0.00005   0.00042  -0.00065  -0.00024   2.07582
    R3        2.08276  -0.00000  -0.00001   0.00024   0.00023   2.08299
    R4        2.08143   0.00001  -0.00000  -0.00001  -0.00001   2.08142
    R5        2.86641  -0.00006   0.00011  -0.00072  -0.00061   2.86580
    R6        3.40101   0.00003  -0.00096   0.00195   0.00099   3.40200
    R7        2.92114   0.00003   0.00034  -0.00028   0.00006   2.92120
    R8        2.07664  -0.00001   0.00035  -0.00056  -0.00020   2.07643
    R9        2.08089  -0.00001   0.00008  -0.00013  -0.00005   2.08084
   R10        2.08566   0.00002  -0.00046   0.00052   0.00006   2.08572
   R11        2.28080  -0.00002   0.00016  -0.00035  -0.00019   2.28061
   R12        2.27853   0.00002  -0.00014   0.00041   0.00026   2.27879
    A1        1.94035   0.00005  -0.00088   0.00113   0.00025   1.94060
    A2        1.92057   0.00000   0.00004  -0.00049  -0.00045   1.92013
    A3        1.89600  -0.00004   0.00072  -0.00067   0.00005   1.89605
    A4        1.89802  -0.00002   0.00097  -0.00104  -0.00006   1.89796
    A5        1.90659   0.00000  -0.00075   0.00119   0.00044   1.90703
    A6        1.90193   0.00001  -0.00011  -0.00012  -0.00023   1.90170
    A7        1.99217  -0.00003  -0.00022   0.00057   0.00034   1.99252
    A8        1.91457  -0.00001   0.00004   0.00011   0.00015   1.91472
    A9        1.91731   0.00018  -0.00318   0.00327   0.00009   1.91740
   A10        1.91709   0.00005  -0.00036   0.00026  -0.00011   1.91699
   A11        1.88740  -0.00011   0.00135   0.00036   0.00171   1.88911
   A12        1.82795  -0.00008   0.00263  -0.00504  -0.00241   1.82554
   A13        1.93175  -0.00007   0.00050  -0.00068  -0.00018   1.93157
   A14        1.90410   0.00002  -0.00095   0.00093  -0.00001   1.90409
   A15        1.91437  -0.00001   0.00108  -0.00117  -0.00009   1.91427
   A16        1.90944   0.00005  -0.00158   0.00251   0.00093   1.91036
   A17        1.90478   0.00002   0.00033  -0.00084  -0.00051   1.90426
   A18        1.89910  -0.00001   0.00063  -0.00075  -0.00012   1.89898
   A19        2.04804   0.00031  -0.00246   0.00324   0.00076   2.04880
   A20        2.03798  -0.00023   0.00220  -0.00267  -0.00048   2.03751
   A21        2.19716  -0.00008   0.00030  -0.00059  -0.00030   2.19686
    D1        3.13858  -0.00001  -0.00210   0.00532   0.00322  -3.14139
    D2       -0.98481   0.00002  -0.00272   0.00617   0.00345  -0.98136
    D3        1.01555   0.00002  -0.00132   0.00201   0.00069   1.01624
    D4        1.03469  -0.00002  -0.00278   0.00621   0.00344   1.03813
    D5       -3.08870   0.00001  -0.00340   0.00706   0.00366  -3.08503
    D6       -1.08834   0.00001  -0.00199   0.00290   0.00090  -1.08744
    D7       -1.04613  -0.00001  -0.00311   0.00706   0.00395  -1.04218
    D8        1.11366   0.00002  -0.00373   0.00791   0.00418   1.11784
    D9        3.11402   0.00002  -0.00232   0.00374   0.00142   3.11544
   D10       -3.14097  -0.00002   0.00334  -0.00192   0.00142  -3.13955
   D11        1.04034  -0.00005   0.00560  -0.00521   0.00039   1.04073
   D12       -1.03826  -0.00005   0.00476  -0.00416   0.00060  -1.03766
   D13        0.98378  -0.00002   0.00374  -0.00269   0.00105   0.98483
   D14       -1.11810  -0.00005   0.00600  -0.00598   0.00002  -1.11807
   D15        3.08649  -0.00005   0.00516  -0.00493   0.00023   3.08672
   D16       -1.00153   0.00010   0.00010   0.00294   0.00303  -0.99850
   D17       -3.10341   0.00008   0.00236  -0.00035   0.00201  -3.10140
   D18        1.10118   0.00008   0.00152   0.00070   0.00222   1.10340
   D19       -0.18471  -0.00009  -0.02273  -0.00545  -0.02818  -0.21290
   D20        2.95811   0.00004  -0.02844   0.00514  -0.02330   2.93481
   D21       -2.36922  -0.00010  -0.02128  -0.00855  -0.02982  -2.39905
   D22        0.77360   0.00003  -0.02699   0.00204  -0.02494   0.74866
   D23        1.87026  -0.00006  -0.02279  -0.00648  -0.02928   1.84098
   D24       -1.27010   0.00007  -0.02850   0.00411  -0.02439  -1.29449
         Item               Value     Threshold  Converged?
 Maximum Force            0.000307     0.000015     NO 
 RMS     Force            0.000072     0.000010     NO 
 Maximum Displacement     0.045842     0.000060     NO 
 RMS     Displacement     0.009924     0.000040     NO 
 GradGradGradGradGradGradGradGradGradGradGradGradGradGradGradGradGradGrad

                    Distance matrix (angstroms):
                    1          2          3          4          5
     1  C    0.000000
     2  C    1.513907   0.000000
     3  C    2.543869   1.516515   0.000000
     4  Cl   2.714923   1.800263   2.719104   0.000000
     5  N    2.504297   1.545834   2.481285   2.652006   0.000000
     6  O    2.651919   2.358484   3.482934   3.421442   1.206846
     7  O    3.600376   2.349735   2.744223   3.103781   1.205883
     8  H    1.098478   2.168107   3.493890   2.886461   2.743903
     9  H    1.102269   2.156205   2.800262   3.700161   2.761408
    10  H    1.101438   2.137935   2.780371   2.920402   3.457430
    11  H    3.489391   2.164166   1.098801   2.885420   2.698334
    12  H    2.787390   2.145915   1.101136   2.932103   3.444329
    13  H    2.796131   2.155309   1.103718   3.702393   2.736238
                    6          7          8          9         10
     6  O    0.000000
     7  O    2.148521   0.000000
     8  H    2.513249   3.921032   0.000000
     9  H    2.712125   3.827729   1.788814   0.000000
    10  H    3.738171   4.449989   1.793933   1.793616   0.000000
    11  H    3.861596   2.467720   4.318059   3.800035   3.779063
    12  H    4.375626   3.787290   3.788867   3.149367   2.569781
    13  H    3.541292   3.012722   3.798740   2.599709   3.142299
                   11         12         13
    11  H    0.000000
    12  H    1.796070   0.000000
    13  H    1.794291   1.792809   0.000000
 Framework group  C1[X(C3H6ClNO2)]
 Deg. of freedom    33
                         Standard orientation:                         
 ---------------------------------------------------------------------
 Center     Atomic      Atomic             Coordinates (Angstroms)
 Number     Number       Type             X           Y           Z
 ---------------------------------------------------------------------
      1          6           0       -0.442913    1.752894   -0.244263
      2          6           0       -0.282467    0.328412    0.242585
      3          6           0       -0.509870    0.151955    1.731535
      4         17           0       -1.387476   -0.755397   -0.676794
      5          7           0        1.136134   -0.185054   -0.094354
      6          8           0        1.799651    0.476111   -0.855330
      7          8           0        1.476806   -1.218449    0.425444
      8          1           0       -0.268167    1.824690   -1.326374
      9          1           0        0.272454    2.411741    0.274550
     10          1           0       -1.467325    2.088725   -0.018512
     11          1           0       -0.377417   -0.899387    2.022223
     12          1           0       -1.532581    0.475287    1.980571
     13          1           0        0.207046    0.775220    2.293462
 ---------------------------------------------------------------------
 Rotational constants (GHZ):           2.7497191           1.8954866           1.7756302
   114 basis functions,   211 primitive gaussians,   121 cartesian basis functions
    32 alpha electrons       32 beta electrons
       nuclear repulsion energy       397.7120318053 Hartrees.
 NAtoms=   13 NActive=   13 NUniq=   13 SFac= 1.00D+00 NAtFMM=   60 NAOKFM=F Big=F
 Nuclear repulsion after empirical dispersion term =      397.7056769681 Hartrees.
   1 Symmetry operations used in ECPInt.
 ECPInt:  NShTT=    1596 NPrTT=    6674 LenC2=    1584 LenP2D=    5235.
 LDataN:  DoStor=T MaxTD1= 4 Len=   56
 Initial guess from the checkpoint file:  "monomer.chk"
 B after Tr=     0.000000    0.000000   -0.000000
         Rot=    0.999989   -0.003061    0.000014   -0.003587 Ang=  -0.54 deg.
 ExpMin= 1.22D-01 ExpMax= 1.04D+04 ExpMxC= 1.57D+03 IAcc=3 IRadAn=         5 AccDes= 0.00D+00
 Harris functional with IExCor= 4639 and IRadAn=       5 diagonalized for initial guess.
 HarFok:  IExCor= 4639 AccDes= 0.00D+00 IRadAn=         5 IDoV= 1 UseB2=F ITyADJ=14
 ICtDFT=  3500011 ScaDFX=  1.000000  1.000000  1.000000  1.000000
 FoFCou: FMM=F IPFlag=           0 FMFlag=      100000 FMFlg1=           0
         NFxFlg=           0 DoJE=T BraDBF=F KetDBF=T FulRan=T
         wScrn=  0.000000 ICntrl=       500 IOpCl=  0 I1Cent=   200000004 NGrid=           0
         NMat0=    1 NMatS0=      1 NMatT0=    0 NMatD0=    1 NMtDS0=    0 NMtDT0=    0
 Petite list used in FoFCou.
     Minimum is close to point  4 DX=  2.49D-02 DF= -1.79D-07 DXR=  2.03D-02 DFR=  4.13D-04 which will be used.
     Accept linear search using points  1 and  2.
     Minimum is close to point  2 DX= -1.36D-04 DF= -1.93D-12 DXR=  1.36D-04 DFR=  1.88D-08 which will be used.
 SCF Done:  E(RwB97XD) =  -782.738354712     a.u. after    6 cycles
            Convg  =    0.2619D-08                    36 Fock formations.
              S**2 =  0.0000                  -V/T =  2.0044
 DoSCS=F DFT=T ScalE2(SS,OS)=  1.000000  1.000000
 NROrb=    114 NOA=    32 NOB=    32 NVA=    82 NVB=    82
   1 Symmetry operations used in ECPInt.
 ECPInt:  NShTT=    1596 NPrTT=    6674 LenC2=    1584 LenP2D=    5235.
 LDataN:  DoStor=T MaxTD1= 5 Len=  102
 Symmetrizing basis deriv contribution to polar:
 IMax=3 JMax=2 DiffMx= 0.00D+00
 Calling FoFCou, ICntrl=  3107 FMM=F I1Cent=   0 AccDes= 0.00D+00.
 End of G2Drv F.D. properties file   721 does not exist.
 End of G2Drv F.D. properties file   722 does not exist.
 End of G2Drv F.D. properties file   788 does not exist.
          IDoAtm=1111111111111
 End of Minotr F.D. properties file   721 does not exist.
 End of Minotr F.D. properties file   722 does not exist.
 End of Minotr F.D. properties file   788 does not exist.
   1 Symmetry operations used in ECPInt.
 ECPInt:  NShTT=    1596 NPrTT=    6674 LenC2=    1584 LenP2D=    5235.
 LDataN:  DoStor=T MaxTD1= 6 Len=  172
 Calling FoFJK, ICntrl=    100127 FMM=F ISym2X=0 I1Cent= 0 IOpClX= 0 NMat=1 NMatS=1 NMatT=0.
 FormGI is forming the generalized inverse of G from B-inverse, IUseBI=4.

 GradGradGradGradGradGradGradGradGradGradGradGradGradGradGradGradGradGrad
 Using GEDIIS/GDIIS optimizer.
 Internal  Forces:  Max     0.000062907 RMS     0.000015607
 Step number   4 out of a maximum of   67
 All quantities printed in internal units (Hartrees-Bohrs-Radians)
 Mixed Optimization -- En-DIIS/RFO-DIIS
 Swapping is turned off.
 Second derivative matrix not updated -- analytic derivatives used.
 Trust test= 8.22D-01 RLast= 6.65D-02 DXMaxT set to 5.05D-01
 ITU=  1  1  1  0
     Eigenvalues ---    0.00050   0.00319   0.00449   0.04331   0.04470
     Eigenvalues ---    0.04533   0.04561   0.04718   0.06416   0.08004
     Eigenvalues ---    0.09323   0.12824   0.13174   0.14367   0.14531
     Eigenvalues ---    0.15261   0.15651   0.17889   0.20772   0.21893
     Eigenvalues ---    0.23686   0.30405   0.32360   0.33427   0.34243
     Eigenvalues ---    0.34598   0.34774   0.34857   0.35524   0.35858
     Eigenvalues ---    0.41576   0.70795   0.91285
 En-DIIS/RFO-DIIS/Sim-DIIS IScMMF=       -3 using points:     4    3    2
 RFO step:  Lambda=-6.62678397D-07.
 DidBck=F Rises=F RFO-DIIS coefs:    1.30670   -0.25037   -0.05633
 Iteration  1 RMS(Cart)=  0.00414442 RMS(Int)=  0.00001954
 Iteration  2 RMS(Cart)=  0.00002041 RMS(Int)=  0.00000037
 Iteration  3 RMS(Cart)=  0.00000000 RMS(Int)=  0.00000037
 Variable       Old X    -DE/DX   Delta X   Delta X   Delta X     New X
                                 (Linear)    (Quad)   (Total)
    R1        2.86087   0.00000   0.00003   0.00004   0.00007   2.86094
    R2        2.07582  -0.00000  -0.00002  -0.00002  -0.00005   2.07577
    R3        2.08299   0.00000   0.00007   0.00002   0.00009   2.08307
    R4        2.08142   0.00000  -0.00000  -0.00000  -0.00001   2.08141
    R5        2.86580   0.00002  -0.00018   0.00004  -0.00013   2.86567
    R6        3.40200  -0.00000   0.00019  -0.00003   0.00017   3.40217
    R7        2.92120   0.00004   0.00006   0.00010   0.00016   2.92136
    R8        2.07643  -0.00001  -0.00002  -0.00006  -0.00008   2.07635
    R9        2.08084   0.00000  -0.00000   0.00002   0.00001   2.08086
   R10        2.08572  -0.00000  -0.00003   0.00001  -0.00003   2.08570
   R11        2.28061   0.00001  -0.00004   0.00002  -0.00002   2.28059
   R12        2.27879  -0.00000   0.00006  -0.00002   0.00004   2.27883
    A1        1.94060  -0.00000  -0.00003  -0.00004  -0.00007   1.94053
    A2        1.92013  -0.00000  -0.00013  -0.00002  -0.00016   1.91997
    A3        1.89605   0.00000   0.00010   0.00000   0.00010   1.89615
    A4        1.89796   0.00000   0.00009  -0.00001   0.00009   1.89804
    A5        1.90703  -0.00000   0.00005   0.00006   0.00011   1.90714
    A6        1.90170  -0.00000  -0.00008   0.00001  -0.00008   1.90162
    A7        1.99252  -0.00001   0.00008  -0.00024  -0.00016   1.99235
    A8        1.91472  -0.00001   0.00005  -0.00010  -0.00005   1.91467
    A9        1.91740  -0.00002  -0.00034  -0.00001  -0.00035   1.91705
   A10        1.91699   0.00000  -0.00007   0.00007  -0.00000   1.91699
   A11        1.88911   0.00002   0.00068   0.00017   0.00085   1.88996
   A12        1.82554   0.00002  -0.00044   0.00015  -0.00029   1.82525
   A13        1.93157   0.00003   0.00000   0.00044   0.00044   1.93201
   A14        1.90409  -0.00000  -0.00011  -0.00010  -0.00021   1.90388
   A15        1.91427  -0.00000   0.00009  -0.00003   0.00006   1.91433
   A16        1.91036  -0.00002   0.00010  -0.00021  -0.00010   1.91026
   A17        1.90426  -0.00001  -0.00012  -0.00005  -0.00017   1.90409
   A18        1.89898   0.00000   0.00004  -0.00005  -0.00001   1.89897
   A19        2.04880  -0.00004  -0.00005  -0.00011  -0.00016   2.04864
   A20        2.03751   0.00006   0.00011   0.00018   0.00029   2.03779
   A21        2.19686  -0.00003  -0.00006  -0.00007  -0.00013   2.19673
    D1       -3.14139   0.00001   0.00075  -0.00001   0.00074  -3.14065
    D2       -0.98136  -0.00001   0.00074  -0.00017   0.00058  -0.98079
    D3        1.01624   0.00000   0.00006  -0.00006   0.00000   1.01624
    D4        1.03813   0.00001   0.00073   0.00004   0.00078   1.03891
    D5       -3.08503  -0.00001   0.00073  -0.00012   0.00062  -3.08442
    D6       -1.08744   0.00000   0.00005  -0.00001   0.00004  -1.08739
    D7       -1.04218   0.00001   0.00085   0.00005   0.00090  -1.04128
    D8        1.11784  -0.00001   0.00085  -0.00012   0.00074   1.11858
    D9        3.11544   0.00000   0.00017  -0.00000   0.00016   3.11560
   D10       -3.13955  -0.00001   0.00082  -0.00163  -0.00082  -3.14037
   D11        1.04073  -0.00000   0.00076  -0.00159  -0.00082   1.03991
   D12       -1.03766   0.00000   0.00073  -0.00144  -0.00071  -1.03838
   D13        0.98483   0.00001   0.00075  -0.00138  -0.00063   0.98420
   D14       -1.11807   0.00001   0.00070  -0.00133  -0.00063  -1.11871
   D15        3.08672   0.00002   0.00066  -0.00119  -0.00052   3.08620
   D16       -0.99850  -0.00002   0.00094  -0.00168  -0.00074  -0.99924
   D17       -3.10140  -0.00002   0.00089  -0.00163  -0.00075  -3.10214
   D18        1.10340  -0.00002   0.00085  -0.00149  -0.00064   1.10276
   D19       -0.21290   0.00000  -0.01126  -0.00018  -0.01144  -0.22434
   D20        2.93481  -0.00002  -0.01041  -0.00007  -0.01049   2.92432
   D21       -2.39905   0.00001  -0.01159   0.00001  -0.01158  -2.41063
   D22        0.74866  -0.00001  -0.01075   0.00012  -0.01063   0.73803
   D23        1.84098  -0.00001  -0.01160  -0.00023  -0.01183   1.82916
   D24       -1.29449  -0.00003  -0.01076  -0.00012  -0.01088  -1.30537
         Item               Value     Threshold  Converged?
 Maximum Force            0.000063     0.000015     NO 
 RMS     Force            0.000016     0.000010     NO 
 Maximum Displacement     0.018523     0.000060     NO 
 RMS     Displacement     0.004144     0.000040     NO 
 GradGradGradGradGradGradGradGradGradGradGradGradGradGradGradGradGradGrad

                    Distance matrix (angstroms):
                    1          2          3          4          5
     1  C    0.000000
     2  C    1.513944   0.000000
     3  C    2.543706   1.516446   0.000000
     4  Cl   2.714977   1.800351   2.719123   0.000000
     5  N    2.504092   1.545918   2.482063   2.651845   0.000000
     6  O    2.652803   2.358438   3.486951   3.414937   1.206835
     7  O    3.599435   2.350032   2.741550   3.110117   1.205906
     8  H    1.098452   2.168071   3.493702   2.886130   2.743533
     9  H    1.102314   2.156158   2.800302   3.700189   2.760981
    10  H    1.101435   2.138041   2.779873   2.920919   3.457363
    11  H    3.489452   2.164390   1.098759   2.885475   2.700008
    12  H    2.786626   2.145702   1.101144   2.932266   3.444839
    13  H    2.796283   2.155282   1.103703   3.702426   2.736895
                    6          7          8          9         10
     6  O    0.000000
     7  O    2.148458   0.000000
     8  H    2.510463   3.922014   0.000000
     9  H    2.717334   3.823553   1.788885   0.000000
    10  H    3.738593   4.449560   1.793980   1.793602   0.000000
    11  H    3.865384   2.467097   4.318191   3.800281   3.778615
    12  H    4.378349   3.785866   3.787993   3.148905   2.568561
    13  H    3.548962   3.006077   3.798958   2.600073   3.142034
                   11         12         13
    11  H    0.000000
    12  H    1.795976   0.000000
    13  H    1.794133   1.792794   0.000000
 Framework group  C1[X(C3H6ClNO2)]
 Deg. of freedom    33
                         Standard orientation:                         
 ---------------------------------------------------------------------
 Center     Atomic      Atomic             Coordinates (Angstroms)
 Number     Number       Type             X           Y           Z
 ---------------------------------------------------------------------
      1          6           0       -0.446743    1.753044   -0.235014
      2          6           0       -0.283232    0.326443    0.244673
      3          6           0       -0.511284    0.142087    1.732495
      4         17           0       -1.385296   -0.755219   -0.680921
      5          7           0        1.136663   -0.181825   -0.095069
      6          8           0        1.793781    0.478643   -0.862161
      7          8           0        1.484412   -1.211247    0.427971
      8          1           0       -0.272143    1.830586   -1.316725
      9          1           0        0.267324    2.410692    0.287195
     10          1           0       -1.471798    2.085690   -0.007482
     11          1           0       -0.377480   -0.910358    2.018376
     12          1           0       -1.534696    0.462625    1.982295
     13          1           0        0.204203    0.763657    2.298083
 ---------------------------------------------------------------------
 Rotational constants (GHZ):           2.7483357           1.8932412           1.7781238
   114 basis functions,   211 primitive gaussians,   121 cartesian basis functions
    32 alpha electrons       32 beta electrons
       nuclear repulsion energy       397.6993411980 Hartrees.
 NAtoms=   13 NActive=   13 NUniq=   13 SFac= 1.00D+00 NAtFMM=   60 NAOKFM=F Big=F
 Nuclear repulsion after empirical dispersion term =      397.6929859674 Hartrees.
   1 Symmetry operations used in ECPInt.
 ECPInt:  NShTT=    1596 NPrTT=    6674 LenC2=    1584 LenP2D=    5235.
 LDataN:  DoStor=T MaxTD1= 4 Len=   56
 Initial guess from the checkpoint file:  "monomer.chk"
 B after Tr=     0.000000    0.000000   -0.000000
         Rot=    0.999998   -0.001725   -0.000165   -0.001325 Ang=  -0.25 deg.
     Minimum is close to point  4 DX=  2.43D-02 DF= -2.96D-08 DXR=  1.98D-02 DFR=  3.93D-04 which will be used.
     Accept linear search using points  1 and  2.
     Minimum is close to point  2 DX= -4.05D-05 DF= -1.14D-13 DXR=  4.05D-05 DFR=  2.31D-09 which will be used.
 SCF Done:  E(RwB97XD) =  -782.738354773     a.u. after    4 cycles
            Convg  =    0.9267D-09                    29 Fock formations.
              S**2 =  0.0000                  -V/T =  2.0044
 DoSCS=F DFT=T ScalE2(SS,OS)=  1.000000  1.000000
 NROrb=    114 NOA=    32 NOB=    32 NVA=    82 NVB=    82
   1 Symmetry operations used in ECPInt.
 ECPInt:  NShTT=    1596 NPrTT=    6674 LenC2=    1584 LenP2D=    5235.
 LDataN:  DoStor=T MaxTD1= 5 Len=  102
 Symmetrizing basis deriv contribution to polar:
 IMax=3 JMax=2 DiffMx= 0.00D+00
 Calling FoFCou, ICntrl=  3107 FMM=F I1Cent=   0 AccDes= 0.00D+00.
 End of G2Drv F.D. properties file   721 does not exist.
 End of G2Drv F.D. properties file   722 does not exist.
 End of G2Drv F.D. properties file   788 does not exist.
          IDoAtm=1111111111111
 End of Minotr F.D. properties file   721 does not exist.
 End of Minotr F.D. properties file   722 does not exist.
 End of Minotr F.D. properties file   788 does not exist.
   1 Symmetry operations used in ECPInt.
 ECPInt:  NShTT=    1596 NPrTT=    6674 LenC2=    1584 LenP2D=    5235.
 LDataN:  DoStor=T MaxTD1= 6 Len=  172
 Calling FoFJK, ICntrl=    100127 FMM=F ISym2X=0 I1Cent= 0 IOpClX= 0 NMat=1 NMatS=1 NMatT=0.
 FormGI is forming the generalized inverse of G from B-inverse, IUseBI=4.

 GradGradGradGradGradGradGradGradGradGradGradGradGradGradGradGradGradGrad
 Using GEDIIS/GDIIS optimizer.
 Internal  Forces:  Max     0.000013597 RMS     0.000003533
 Step number   5 out of a maximum of   67
 All quantities printed in internal units (Hartrees-Bohrs-Radians)
 Mixed Optimization -- En-DIIS/RFO-DIIS
 Swapping is turned off.
 Second derivative matrix not updated -- analytic derivatives used.
 Trust test= 1.92D-01 RLast= 2.75D-02 DXMaxT set to 5.05D-01
 ITU=  0  1  1  1  0
     Eigenvalues ---    0.00044   0.00319   0.00448   0.04329   0.04467
     Eigenvalues ---    0.04534   0.04559   0.04718   0.06412   0.07996
     Eigenvalues ---    0.09322   0.12825   0.13173   0.14360   0.14529
     Eigenvalues ---    0.15259   0.15655   0.17877   0.20782   0.21882
     Eigenvalues ---    0.23689   0.30416   0.32368   0.33427   0.34246
     Eigenvalues ---    0.34589   0.34773   0.34854   0.35533   0.35880
     Eigenvalues ---    0.41581   0.70789   0.91285
 En-DIIS/RFO-DIIS/Sim-DIIS IScMMF=       -3 using points:     5    4    3    2
 RFO step:  Lambda=-5.42903979D-08.
 DidBck=F Rises=F RFO-DIIS coefs:    1.32451   -0.31720   -0.00411   -0.00321
 Iteration  1 RMS(Cart)=  0.00147703 RMS(Int)=  0.00000249
 Iteration  2 RMS(Cart)=  0.00000260 RMS(Int)=  0.00000003
 Iteration  3 RMS(Cart)=  0.00000000 RMS(Int)=  0.00000003
 Variable       Old X    -DE/DX   Delta X   Delta X   Delta X     New X
                                 (Linear)    (Quad)   (Total)
    R1        2.86094   0.00000   0.00003  -0.00000   0.00002   2.86096
    R2        2.07577   0.00000  -0.00001   0.00000  -0.00001   2.07576
    R3        2.08307   0.00000   0.00003  -0.00000   0.00003   2.08310
    R4        2.08141  -0.00000  -0.00000  -0.00000  -0.00000   2.08141
    R5        2.86567   0.00000  -0.00005  -0.00000  -0.00005   2.86562
    R6        3.40217  -0.00000   0.00005  -0.00000   0.00005   3.40222
    R7        2.92136   0.00000   0.00005  -0.00003   0.00002   2.92139
    R8        2.07635  -0.00000  -0.00002  -0.00000  -0.00003   2.07633
    R9        2.08086   0.00000   0.00001  -0.00000   0.00000   2.08086
   R10        2.08570  -0.00000  -0.00001   0.00000  -0.00001   2.08568
   R11        2.28059  -0.00000  -0.00001  -0.00000  -0.00001   2.28058
   R12        2.27883  -0.00000   0.00002  -0.00000   0.00002   2.27885
    A1        1.94053  -0.00000  -0.00003  -0.00000  -0.00003   1.94050
    A2        1.91997  -0.00000  -0.00005  -0.00001  -0.00006   1.91991
    A3        1.89615   0.00000   0.00004   0.00001   0.00004   1.89620
    A4        1.89804   0.00000   0.00003  -0.00000   0.00003   1.89807
    A5        1.90714   0.00000   0.00003   0.00001   0.00004   1.90718
    A6        1.90162  -0.00000  -0.00003  -0.00000  -0.00003   1.90159
    A7        1.99235   0.00000  -0.00005   0.00002  -0.00004   1.99232
    A8        1.91467  -0.00000  -0.00002   0.00002   0.00000   1.91467
    A9        1.91705  -0.00001  -0.00013   0.00000  -0.00013   1.91692
   A10        1.91699  -0.00000  -0.00000  -0.00001  -0.00001   1.91698
   A11        1.88996   0.00000   0.00030  -0.00001   0.00029   1.89025
   A12        1.82525   0.00000  -0.00010  -0.00002  -0.00012   1.82514
   A13        1.93201   0.00000   0.00014  -0.00003   0.00012   1.93212
   A14        1.90388  -0.00000  -0.00008   0.00001  -0.00007   1.90381
   A15        1.91433  -0.00000   0.00003  -0.00000   0.00002   1.91436
   A16        1.91026  -0.00000  -0.00004   0.00002  -0.00002   1.91024
   A17        1.90409  -0.00000  -0.00006  -0.00000  -0.00006   1.90403
   A18        1.89897   0.00000  -0.00000   0.00000   0.00000   1.89897
   A19        2.04864  -0.00001  -0.00006  -0.00000  -0.00007   2.04857
   A20        2.03779   0.00001   0.00010  -0.00001   0.00010   2.03789
   A21        2.19673   0.00000  -0.00004   0.00001  -0.00003   2.19670
    D1       -3.14065   0.00000   0.00025  -0.00003   0.00022  -3.14043
    D2       -0.98079  -0.00000   0.00019  -0.00002   0.00018  -0.98061
    D3        1.01624   0.00000  -0.00000  -0.00003  -0.00003   1.01621
    D4        1.03891   0.00000   0.00026  -0.00002   0.00024   1.03914
    D5       -3.08442  -0.00000   0.00020  -0.00000   0.00020  -3.08422
    D6       -1.08739   0.00000   0.00001  -0.00002  -0.00001  -1.08741
    D7       -1.04128   0.00000   0.00030  -0.00002   0.00028  -1.04100
    D8        1.11858  -0.00000   0.00025  -0.00000   0.00024   1.11882
    D9        3.11560   0.00000   0.00005  -0.00002   0.00003   3.11564
   D10       -3.14037  -0.00000  -0.00023   0.00002  -0.00022  -3.14059
   D11        1.03991   0.00000  -0.00023   0.00000  -0.00023   1.03968
   D12       -1.03838   0.00000  -0.00020  -0.00001  -0.00020  -1.03858
   D13        0.98420   0.00000  -0.00017  -0.00001  -0.00018   0.98402
   D14       -1.11871   0.00000  -0.00017  -0.00003  -0.00019  -1.11890
   D15        3.08620   0.00000  -0.00013  -0.00004  -0.00017   3.08603
   D16       -0.99924  -0.00001  -0.00022   0.00002  -0.00020  -0.99943
   D17       -3.10214  -0.00000  -0.00021   0.00001  -0.00021  -3.10235
   D18        1.10276  -0.00000  -0.00018  -0.00000  -0.00018   1.10258
   D19       -0.22434   0.00000  -0.00407  -0.00000  -0.00407  -0.22841
   D20        2.92432  -0.00001  -0.00376   0.00000  -0.00376   2.92056
   D21       -2.41063   0.00000  -0.00412  -0.00001  -0.00413  -2.41476
   D22        0.73803  -0.00000  -0.00381  -0.00001  -0.00382   0.73421
   D23        1.82916   0.00000  -0.00420   0.00001  -0.00419   1.82496
   D24       -1.30537  -0.00001  -0.00389   0.00001  -0.00389  -1.30926
         Item               Value     Threshold  Converged?
 Maximum Force            0.000014     0.000015     YES
 RMS     Force            0.000004     0.000010     YES
 Maximum Displacement     0.006555     0.000060     NO 
 RMS     Displacement     0.001477     0.000040     NO 
 GradGradGradGradGradGradGradGradGradGradGradGradGradGradGradGradGradGrad

                    Distance matrix (angstroms):
                    1          2          3          4          5
     1  C    0.000000
     2  C    1.513957   0.000000
     3  C    2.543664   1.516419   0.000000
     4  Cl   2.715012   1.800379   2.719117   0.000000
     5  N    2.503998   1.545931   2.482310   2.651761   0.000000
     6  O    2.653095   2.358398   3.488338   3.412589   1.206830
     7  O    3.599065   2.350119   2.740551   3.112347   1.205914
     8  H    1.098445   2.168059   3.493648   2.886045   2.743365
     9  H    1.102329   2.156136   2.800315   3.700207   2.760818
    10  H    1.101433   2.138083   2.779741   2.921120   3.457321
    11  H    3.489466   2.164438   1.098745   2.885463   2.700506
    12  H    2.786414   2.145632   1.101146   2.932301   3.444996
    13  H    2.796339   2.155272   1.103697   3.702427   2.737121
                    6          7          8          9         10
     6  O    0.000000
     7  O    2.148444   0.000000
     8  H    2.509431   3.922318   0.000000
     9  H    2.719186   3.822027   1.788911   0.000000
    10  H    3.738715   4.449380   1.794001   1.793593   0.000000
    11  H    3.866616   2.466759   4.318214   3.800340   3.778499
    12  H    4.379295   3.785303   3.787743   3.148790   2.568227
    13  H    3.551665   3.003681   3.799031   2.600188   3.141962
                   11         12         13
    11  H    0.000000
    12  H    1.795956   0.000000
    13  H    1.794078   1.792793   0.000000
 Framework group  C1[X(C3H6ClNO2)]
 Deg. of freedom    33
                         Standard orientation:                         
 ---------------------------------------------------------------------
 Center     Atomic      Atomic             Coordinates (Angstroms)
 Number     Number       Type             X           Y           Z
 ---------------------------------------------------------------------
      1          6           0       -0.448035    1.753125   -0.231585
      2          6           0       -0.283489    0.325736    0.245438
      3          6           0       -0.511726    0.138436    1.732836
      4         17           0       -1.384550   -0.755058   -0.682417
      5          7           0        1.136822   -0.180700   -0.095360
      6          8           0        1.791663    0.479550   -0.864575
      7          8           0        1.487062   -1.208734    0.428766
      8          1           0       -0.273471    1.832789   -1.313141
      9          1           0        0.265594    2.410268    0.291891
     10          1           0       -1.473302    2.084662   -0.003406
     11          1           0       -0.377398   -0.914428    2.016869
     12          1           0       -1.535384    0.457934    1.982970
     13          1           0        0.203265    0.759346    2.299763
 ---------------------------------------------------------------------
 Rotational constants (GHZ):           2.7478577           1.8924717           1.7790405
   114 basis functions,   211 primitive gaussians,   121 cartesian basis functions
    32 alpha electrons       32 beta electrons
       nuclear repulsion energy       397.6967402629 Hartrees.
 NAtoms=   13 NActive=   13 NUniq=   13 SFac= 1.00D+00 NAtFMM=   60 NAOKFM=F Big=F
 Nuclear repulsion after empirical dispersion term =      397.6903849554 Hartrees.
   1 Symmetry operations used in ECPInt.
 ECPInt:  NShTT=    1596 NPrTT=    6674 LenC2=    1584 LenP2D=    5235.
 LDataN:  DoStor=T MaxTD1= 4 Len=   56
 Initial guess from the checkpoint file:  "monomer.chk"
 B after Tr=    -0.000000    0.000000    0.000000
         Rot=    1.000000   -0.000653   -0.000068   -0.000456 Ang=  -0.09 deg.
     Accept linear search using points  1 and  2.
     Minimum is close to point  2 DX= -4.86D-06 DF=  0.00D+00 DXR=  4.86D-06 DFR=  0.00D+00 which will be used.
 SCF Done:  E(RwB97XD) =  -782.738354701     a.u. after    3 cycles
            Convg  =    0.1520D-09                    24 Fock formations.
              S**2 =  0.0000                  -V/T =  2.0044
 DoSCS=F DFT=T ScalE2(SS,OS)=  1.000000  1.000000
 NROrb=    114 NOA=    32 NOB=    32 NVA=    82 NVB=    82
   1 Symmetry operations used in ECPInt.
 ECPInt:  NShTT=    1596 NPrTT=    6674 LenC2=    1584 LenP2D=    5235.
 LDataN:  DoStor=T MaxTD1= 5 Len=  102
 Symmetrizing basis deriv contribution to polar:
 IMax=3 JMax=2 DiffMx= 0.00D+00
 Calling FoFCou, ICntrl=  3107 FMM=F I1Cent=   0 AccDes= 0.00D+00.
 End of G2Drv F.D. properties file   721 does not exist.
 End of G2Drv F.D. properties file   722 does not exist.
 End of G2Drv F.D. properties file   788 does not exist.
          IDoAtm=1111111111111
 End of Minotr F.D. properties file   721 does not exist.
 End of Minotr F.D. properties file   722 does not exist.
 End of Minotr F.D. properties file   788 does not exist.
   1 Symmetry operations used in ECPInt.
 ECPInt:  NShTT=    1596 NPrTT=    6674 LenC2=    1584 LenP2D=    5235.
 LDataN:  DoStor=T MaxTD1= 6 Len=  172
 Calling FoFJK, ICntrl=    100127 FMM=F ISym2X=0 I1Cent= 0 IOpClX= 0 NMat=1 NMatS=1 NMatT=0.
 FormGI is forming the generalized inverse of G from B-inverse, IUseBI=4.

 GradGradGradGradGradGradGradGradGradGradGradGradGradGradGradGradGradGrad
 Using GEDIIS/GDIIS optimizer.
 Internal  Forces:  Max     0.000001876 RMS     0.000000454
 Step number   6 out of a maximum of   67
 All quantities printed in internal units (Hartrees-Bohrs-Radians)
 Mixed Optimization -- En-DIIS/RFO-DIIS
 Swapping is turned off.
 Second derivative matrix not updated -- analytic derivatives used.
 Trust test=-2.68D+00 RLast= 9.79D-03 DXMaxT set to 2.52D-01
 ITU= -1  0  1  1  1  0
[...]
     6   8    -0.06  -0.05   0.06    -0.10  -0.07   0.09    -0.19  -0.21   0.24
     7   8    -0.04   0.09  -0.04    -0.06   0.12  -0.05     0.10  -0.33   0.17
     8   1    -0.37  -0.21  -0.09     0.43   0.06   0.07     0.07  -0.01  -0.01
     9   1    -0.06  -0.16   0.34     0.10   0.09  -0.27     0.05  -0.00  -0.02
    10   1    -0.00   0.09  -0.19    -0.03  -0.22   0.29     0.00  -0.10   0.06
    11   1    -0.43  -0.15  -0.28     0.46   0.08   0.10    -0.08   0.02   0.02
    12   1     0.02  -0.14   0.18    -0.03   0.24  -0.29    -0.01  -0.06   0.08
    13   1    -0.11   0.41  -0.24     0.12  -0.29   0.15    -0.01   0.02  -0.02
                     28                     29                     30
                      A                      A                      A
 Frequencies --   3058.2533              3065.7100              3155.3458
 Red. masses --      1.0388                 1.0383                 1.1048
 Frc consts  --      5.7244                 5.7494                 6.4809
 IR Inten    --      3.3557                 6.1172                 1.1353
  Atom  AN      X      Y      Z        X      Y      Z        X      Y      Z
     1   6     0.00  -0.01  -0.00    -0.00   0.05  -0.00     0.03   0.01   0.01
     2   6     0.00   0.00  -0.00     0.00  -0.00   0.00    -0.00  -0.00  -0.00
     3   6     0.00   0.01   0.05     0.00   0.00   0.01    -0.08  -0.03  -0.01
     4  17    -0.00  -0.00  -0.00    -0.00  -0.00  -0.00     0.00   0.00   0.00
     5   7     0.00  -0.00   0.00     0.00   0.00  -0.00     0.00   0.00  -0.00
     6   8    -0.00   0.00   0.00    -0.00  -0.00   0.00    -0.00  -0.00   0.00
     7   8     0.00   0.00  -0.00    -0.00   0.00  -0.00     0.00  -0.00   0.00
     8   1     0.02   0.01  -0.11    -0.07  -0.03   0.43     0.01   0.00  -0.03
     9   1     0.11   0.10   0.08    -0.42  -0.38  -0.30    -0.17  -0.16  -0.12
    10   1    -0.15   0.05   0.03     0.54  -0.17  -0.12    -0.25   0.08   0.06
    11   1    -0.05   0.40  -0.10    -0.01   0.11  -0.03    -0.03   0.18  -0.05
    12   1     0.49  -0.15  -0.11     0.13  -0.04  -0.03     0.62  -0.20  -0.15
    13   1    -0.45  -0.39  -0.35    -0.12  -0.10  -0.10     0.39   0.34   0.31
                     31                     32                     33
                      A                      A                      A
 Frequencies --   3162.3429              3192.2791              3192.7339
 Red. masses --      1.1052                 1.1053                 1.1059
 Frc consts  --      6.5119                 6.6363                 6.6417
 IR Inten    --      5.9867                 0.0419                 0.5357
  Atom  AN      X      Y      Z        X      Y      Z        X      Y      Z
     1   6    -0.08  -0.01  -0.02    -0.01   0.01   0.05     0.02  -0.01  -0.07
     2   6    -0.00  -0.00  -0.00     0.00  -0.00   0.00     0.00  -0.00  -0.00
     3   6    -0.03  -0.01  -0.00     0.02  -0.07   0.00     0.02  -0.05   0.00
     4  17     0.00   0.00   0.00    -0.00   0.00  -0.00    -0.00   0.00   0.00
     5   7     0.00  -0.00   0.00    -0.00  -0.00   0.00     0.00   0.00   0.00
     6   8     0.00   0.00  -0.00    -0.00   0.00  -0.00     0.00  -0.00   0.00
     7   8     0.00   0.00  -0.00     0.00   0.00  -0.00     0.00   0.00  -0.00
     8   1    -0.02  -0.01   0.07     0.09   0.04  -0.53    -0.11  -0.05   0.69
     9   1     0.41   0.38   0.30    -0.11  -0.10  -0.08     0.14   0.12   0.10
    10   1     0.61  -0.20  -0.14     0.20  -0.06  -0.04    -0.27   0.09   0.06
    11   1    -0.01   0.09  -0.02    -0.08   0.67  -0.18    -0.06   0.51  -0.14
    12   1     0.25  -0.08  -0.06    -0.32   0.09   0.08    -0.25   0.07   0.06
    13   1     0.16   0.14   0.13     0.10   0.08   0.08     0.08   0.06   0.06
 
 Temperature   298.150 Kelvin.  Pressure   1.00000 Atm.
 Zero-point correction=                           0.098363 (Hartree/Particle)
 Thermal correction to Energy=                    0.105816
 Thermal correction to Enthalpy=                  0.106760
 Thermal correction to Gibbs Free Energy=         0.065612
 Sum of electronic and zero-point Energies=           -782.639992
 Sum of electronic and thermal Energies=              -782.632539
 Sum of electronic and thermal Enthalpies=            -782.631595
 Sum of electronic and thermal Free Energies=         -782.672743

 ----------------------------------------------------------------------

 Electric dipole moment (input orientation):
 (Debye = 10**-18 statcoulomb cm , SI units = C m)
                  (au)            (Debye)         (10**-30 SI)
   Tot        0.141353D+01      0.359283D+01      0.119844D+02
   x         -0.888973D+00     -0.225954D+01     -0.753702D+01
   y         -0.771274D+00     -0.196038D+01     -0.653914D+01
   z         -0.782898D+00     -0.198993D+01     -0.663768D+01

 Dipole polarizability, Alpha (input orientation).
 (esu units = cm**3 , SI units = C**2 m**2 J**-1)
 Alpha(0;0):
               (au)            (10**-24 esu)      (10**-40 SI)
   iso        0.532606D+02      0.789241D+01      0.878149D+01
   aniso      0.807111D+01      0.119601D+01      0.133075D+01
   xx         0.527440D+02      0.781586D+01      0.869632D+01
   yx        -0.257591D+01     -0.381710D+00     -0.424710D+00
   yy         0.562352D+02      0.833319D+01      0.927193D+01
   zx        -0.773000D+00     -0.114547D+00     -0.127450D+00
   zy        -0.262740D+01     -0.389340D+00     -0.433200D+00
   zz         0.508027D+02      0.752818D+01      0.837623D+01

 ----------------------------------------------------------------------

 Dipole orientation:
     6         -0.03318881          2.48318150          2.37359643
     6          0.05606322          0.00612091          0.94483951
     6          1.39275114         -2.10717062          2.34447368
    17         -3.10216797         -0.96402918          0.13270579
     7          1.39020314          0.39200732         -1.62531242
     8          1.72387188          2.53782777         -2.32183611
     8          1.99132786         -1.48932037         -2.76215633
     1         -1.02096852          3.94484613          1.27970247
     1          1.90096472          3.14229187          2.77850274
     1         -1.03389306          2.17782479          4.17292963
     1          1.39696347         -3.84867165          1.21386397
     1          0.41411360         -2.45420002          4.14775898
     1          3.36206286         -1.54900944          2.74489974

 Electric dipole moment (dipole orientation):
 (Debye = 10**-18 statcoulomb cm , SI units = C m)
                  (au)            (Debye)         (10**-30 SI)
   Tot        0.141353D+01      0.359283D+01      0.119844D+02
   x          0.000000D+00      0.000000D+00      0.000000D+00
   y          0.000000D+00      0.000000D+00      0.000000D+00
   z          0.141353D+01      0.359283D+01      0.119844D+02

 Dipole polarizability, Alpha (dipole orientation).
 (esu units = cm**3 , SI units = C**2 m**2 J**-1)
 Alpha(0;0):
               (au)            (10**-24 esu)      (10**-40 SI)
   iso        0.532606D+02      0.789241D+01      0.878149D+01
   aniso      0.807111D+01      0.119601D+01      0.133075D+01
   xx         0.529895D+02      0.785224D+01      0.873680D+01
   yx         0.174115D+01      0.258012D+00      0.287077D+00
   yy         0.574988D+02      0.852045D+01      0.948028D+01
   zx        -0.775104D+00     -0.114859D+00     -0.127797D+00
   zy         0.109304D+01      0.161972D+00      0.180219D+00
   zz         0.492935D+02      0.730454D+01      0.812739D+01

 ----------------------------------------------------------------------
 1\1\GINC-C600\Freq\RwB97XD\def2SVPP\C3H6Cl1N1O2\PETERCHAO1\02-Apr-2024
 \0\\#T wB97XD/def2svpp opt=(calcall,tight) int(grid=ultrafine) scf=(ve
 rytight,qc) Volume=tight\\Monomer\\0,1\C,-0.512835747,-1.7437429691,0.
 032358314\C,-0.2916123569,-0.2819820378,-0.2938137895\C,-0.4770797612,
 0.0617179089,-1.7590733597\Cl,-1.3805694828,0.7366099512,0.7151571341\
 N,1.1351251157,0.1391321372,0.1268899623\O,1.7493216469,-0.6167013365,
 0.8395707169\O,1.5307425844,1.2019408925,-0.2831794959\H,-0.367632443,
 -1.9377391158,1.1037414036\H,0.1924229582,-2.3686446335,-0.5396932219\
 H,-1.5420990847,-2.0157076203,-0.2501416629\H,-0.3026669504,1.13266755
 62,-1.931943578\H,-1.5038234638,-0.1961396289,-2.0621080107\H,0.231741
 9847,-0.5228141041,-2.3706604123\\Version=ES64L-G16RevB.01\State=1-A\H
 F=-782.7383547\RMSD=1.117e-09\RMSF=1.767e-06\ZeroPoint=0.0983626\Therm
 al=0.1058156\Dipole=-0.8889725,-0.7712745,-0.7828978\DipoleDeriv=-0.05
 39456,0.0300406,0.0205278,-0.0053548,-0.1050145,0.0096064,0.0085588,0.
 0253298,-0.0933449,0.4888797,-0.1551254,-0.1970231,-0.1489277,0.600521
 3,0.1998276,-0.1923065,0.1981885,0.6026436,-0.0688749,0.0056894,0.0300
 492,-0.0172545,-0.1055458,0.0365789,0.0100323,0.0160223,-0.0771182,-0.
 3124162,0.1053706,0.110105,0.1437658,-0.3063067,-0.1426517,0.1360006,-
 0.1349914,-0.3118947,1.0153264,0.0883751,0.2936485,0.1425029,1.1835987
 ,-0.6199682,0.30735,-0.6121827,0.5563321,-0.6683988,0.2288223,-0.32383
 23,-0.023583,-0.6727187,0.2521091,-0.2034258,0.3671776,-0.4911518,-0.5
 996626,-0.3301819,0.0380445,-0.1288224,-0.8509194,0.3303982,-0.1049497
 ,0.2028827,-0.4079767,0.1069382,0.0114461,-0.0162414,-0.0042894,0.0605
 217,-0.009944,-0.0063722,0.0266582,-0.0096776,0.0316434,0.0550344,0.06
 04101,0.0350314,0.0013791,-0.0346453,0.064423,-0.0327942,0.0359751,-0.
 0422975,-0.047855,-0.0392323,-0.0156405,0.0571494,0.0007197,-0.0453078
 ,-0.0113408,0.085499,0.114346,-0.0187498,0.0119275,-0.0072268,0.006811
 1,0.0292314,0.005694,-0.0123,0.0648415,-0.0373921,-0.0364538,-0.044832
 5,-0.0392326,0.094317,-0.0083672,-0.0184155,-0.0003136,0.0536697,0.025
 854,0.0635875,0.056449,0.0690316,0.0362069,-0.0428951,0.0387186,-0.032
 3363,-0.0077972\Polar=52.7440259,-2.5759073,56.2351643,-0.7729999,-2.6
 273996,50.8026501\PG=C01 [X(C3H6Cl1N1O2)]\NImag=0\\0.60603771,-0.01486
 471,0.50514095,0.00555112,0.01297700,0.61599505,-0.07721893,-0.0210039
 8,0.00102712,0.35048274,-0.01354006,-0.20424249,0.03653085,0.01494220,
 0.49269018,-0.00187867,0.03570548,-0.09033921,0.01397994,-0.07800832,0
 .46492410,0.00316302,-0.00100525,0.00531088,-0.07744685,-0.00384289,-0
 .01383411,0.60727738,0.00434232,-0.00765843,0.03551070,-0.00036779,-0.
 09065854,0.03548561,0.00776707,0.61355004,-0.00055253,0.00792088,-0.00
 734217,-0.01721420,0.03646281,-0.19982585,-0.00780650,0.01594690,0.498
 11459,-0.00380095,0.00674418,0.00433761,-0.06681254,0.02933573,0.03122
 169,-0.00366659,0.00498688,0.00775015,0.10276641,0.02482670,-0.0246908
 0,-0.02235746,0.02826020,-0.06434670,-0.02766295,0.00384027,-0.0017830
 3,-0.00476961,-0.06035321,0.09273033,0.00406515,-0.00517023,-0.0019073
 1,0.02665721,-0.02643575,-0.06268926,0.02503656,-0.02236322,-0.0244580
 3,-0.06128211,0.05489319,0.08933832,-0.00842314,-0.01326670,-0.0002208
 7,-0.08799646,-0.00339330,0.00122340,-0.00709092,0.00058032,-0.0149864
 1,-0.03035005,0.00497171,0.00531699,0.63163617,-0.03389841,-0.00975519
 ,-0.00997659,-0.00516643,-0.07813709,-0.00140096,0.00256091,0.00351477
 ,-0.00287631,0.02218816,-0.00628378,-0.00142455,0.03710960,0.93377006,
 0.00423732,-0.00223589,0.00271631,0.00060404,-0.00180383,-0.09043622,-
 0.03824459,-0.00931276,-0.01232558,0.02388898,-0.00177546,-0.00175685,
 0.15507361,-0.35813921,0.54397284,-0.00415371,0.00097127,-0.00023624,-
 0.02158585,0.02328536,-0.03921261,-0.00871145,-0.00261217,0.00079551,-
 0.00254880,0.00074223,0.00084483,-0.29377182,0.15762655,-0.18813581,0.
 28714627,-0.00469869,-0.00311638,-0.00072479,0.00640914,0.00456105,0.0
 1057341,0.00169564,0.00066844,-0.00048261,-0.00155783,0.00222098,-0.00
 019756,0.15606776,-0.30636478,0.20153590,-0.18614258,0.38355103,0.0014
 6980,0.00170652,-0.00083473,-0.02206316,0.01729899,-0.00190040,-0.0017
 3254,-0.00067398,-0.00035881,-0.00401927,0.00066001,0.00102009,-0.1908
 5504,0.20464010,-0.28156343,0.22731047,-0.28757295,0.29518211,-0.00887
 079,0.00039654,-0.00356824,-0.01140069,-0.04624419,0.00870729,-0.00373
 364,-0.00142172,-0.00009262,-0.00116162,-0.00115937,0.00036848,-0.2080
 0191,-0.18218336,0.04257502,0.04689593,0.03243663,-0.00955819,0.187978
 48,-0.00577761,-0.00014736,-0.00166548,-0.02101125,-0.02724270,0.01156
 683,0.00161708,-0.00024159,0.00324542,-0.00153625,0.00352346,0.0004138
 2,-0.18443602,-0.52527413,0.16357185,0.00768970,-0.08522494,0.06656745
 ,0.20362154,0.63281021,-0.00048001,0.00008568,0.00101368,-0.00104357,0
 .00392817,0.01362286,-0.00265029,0.00009042,-0.00209339,-0.00258473,0.
 00058237,0.00157577,0.04139544,0.16068383,-0.15319346,0.00436101,0.080
 32681,-0.01369186,-0.03760468,-0.24063656,0.15084067,-0.05246917,0.006
 96087,-0.03817061,-0.00085512,0.00026222,0.00565414,-0.00008705,-0.001
 09263,-0.00004832,-0.00004652,0.00030171,-0.00046031,0.00070648,-0.001
 26458,0.00149596,-0.00294426,-0.00093408,-0.00068317,0.00006535,0.0012
 8382,-0.00051302,0.05185242,0.00665485,-0.05670932,0.04287127,0.005354
 34,-0.00561753,0.03350402,-0.00166198,-0.00633885,-0.00035851,-0.00061
 238,0.00144674,0.00044635,0.00144741,-0.00079306,0.00127827,-0.0011484
 4,0.00031292,-0.00128430,0.00019215,0.00102532,-0.00040157,-0.00629492
 ,0.06178215,-0.03597422,0.04872965,-0.32240860,0.00047137,-0.00019577,
 -0.00551604,0.00022226,0.00152160,0.00077102,0.00025908,-0.00052650,0.
 00122486,-0.00196439,0.00224500,-0.00176324,-0.00159119,-0.00294812,0.
 00125179,0.00031128,-0.00080308,0.00058485,0.04083927,-0.05177591,0.33
 959187,-0.16241360,0.10011840,0.09314527,0.00186788,-0.00365859,-0.002
 80208,0.00021566,-0.00011181,0.00000874,0.00152591,-0.00117871,-0.0004
 4085,0.00007530,-0.00020208,-0.00055291,-0.00067975,-0.00101258,-0.000
 73213,0.00021759,0.00021464,-0.00003564,0.00344222,-0.00407472,-0.0032
 5462,0.16904041,0.09693256,-0.13564530,-0.07817076,0.02024302,-0.01610
 970,-0.01682050,0.00004157,0.00121220,-0.00083958,0.00085903,-0.006096
 08,-0.00051492,0.00138728,-0.00096217,0.00112764,-0.00093730,0.0010911
 9,-0.00060151,-0.00001029,0.00056934,-0.00025219,-0.00528091,0.0039776
 3,0.00345986,-0.10672832,0.14612908,0.09274917,-0.08013098,-0.12465935
 ,-0.00541863,0.00330550,0.00210755,-0.00048034,0.00016139,-0.00005788,
 -0.00019399,0.00119816,0.00153454,0.00098059,-0.00184978,0.00143501,-0
 .00052001,0.00134847,-0.00011283,-0.00018065,0.00050639,-0.00060643,0.
 01955677,-0.01729077,-0.01075484,-0.10062607,0.08547643,0.12632773,-0.
 29201807,-0.06469190,-0.06669497,-0.00520853,0.00121846,-0.00098251,0.
 00022882,0.00064345,-0.00032304,0.00118697,0.00061867,0.00024499,0.000
 73706,0.00187578,-0.00088692,-0.00009652,-0.00145797,0.00027485,-0.000
 03550,-0.00091610,0.00042610,-0.00058004,0.00010533,0.00094158,-0.0136
 4978,-0.00590788,-0.00581512,0.30876291,-0.05996736,-0.06375105,-0.016
 68254,-0.03118655,-0.00783431,-0.00943711,0.00001342,0.00093996,-0.000
 90687,-0.00007789,0.00085920,0.00019703,0.00234842,-0.00594678,0.00249
 038,-0.00008283,0.00130801,-0.00006220,-0.00302196,-0.00166768,-0.0001
 0576,0.00629692,0.00094560,0.00054627,0.01657996,0.00583374,0.00664788
 ,0.06864783,0.06952049,-0.06756114,-0.01760475,-0.06782602,0.00784623,
 0.00157216,0.00072076,0.00036814,0.00004524,-0.00020161,0.00006767,-0.
 00056298,-0.00030542,-0.00133899,0.00293045,-0.00131647,-0.00073052,-0
 .00137056,0.00090892,0.00086191,-0.00006913,0.00047132,-0.02779914,-0.
 00870112,-0.00318010,0.01555937,0.00624341,0.00490283,0.07260956,0.016
 82127,0.06611032,-0.00010434,-0.00011698,-0.00093718,-0.00076919,0.004
 76348,0.00038130,-0.05534322,-0.04463389,0.00818575,-0.00005724,-0.000
 52819,0.00029037,0.00059625,0.00269201,-0.00059252,0.00040057,-0.00117
 834,0.00071675,-0.00205270,-0.00121864,-0.00064317,0.00059866,0.000161
 77,-0.00021690,0.00008396,-0.00029688,0.00003043,0.00021337,0.00019236
 ,-0.00004881,0.05342783,0.00016269,0.00078800,0.00150159,0.00037911,-0
 .00624854,0.00042633,-0.04274977,-0.32153544,0.04387562,0.00028944,0.0
 0121971,-0.00060956,-0.00144469,-0.00280663,0.00135803,-0.00001494,0.0
 0081732,-0.00028701,-0.00142782,0.00115109,-0.00309672,-0.00019464,-0.
 00015201,0.00004071,-0.00008777,0.00025264,-0.00012463,0.00003076,0.00
 008422,-0.00015690,0.04760699,0.33923885,-0.00160077,-0.00025872,-0.00
 648661,0.00609401,0.03354737,-0.00532030,0.00749268,0.03770106,-0.0544
 0962,-0.00050854,0.00047359,0.00150686,0.00159184,0.00261978,-0.000392
 52,0.00030458,-0.00111478,0.00108441,-0.00072467,-0.00195824,0.0002834
 7,0.00024458,0.00199598,-0.00016914,-0.00014840,-0.00002385,0.00007000
 ,0.00001875,-0.00028042,0.00004716,-0.00806362,-0.04650931,0.05933483,
 0.00013667,-0.00025490,0.00061040,-0.00430777,-0.00070951,0.00107276,-
 0.29223593,-0.06132125,-0.07200444,0.00118314,0.00006033,0.00042138,0.
 00138594,-0.00082400,0.00078651,-0.00012223,0.00042069,-0.00035443,0.0
 0011599,0.00052282,-0.00061472,0.00021681,0.00004799,0.00005744,-0.000
 01825,-0.00004852,-0.00015192,0.00049481,0.00019898,0.00003209,-0.0012
 6271,0.00093342,-0.00009794,0.30822682,0.00030748,-0.00013293,-0.00002
 692,0.00859775,0.00090964,0.00274732,-0.06211578,-0.06425599,-0.018096
 91,-0.00003518,-0.00029684,-0.00062469,-0.00181114,-0.00235350,0.00286
 462,0.00075738,0.00056044,-0.00036562,-0.00046115,0.00107728,-0.001780
 79,-0.00005295,0.00006542,-0.00016245,0.00013343,-0.00007543,0.0000605
 1,-0.00002754,-0.00027125,0.00078873,-0.02765374,-0.00217491,-0.009347
 15,0.06650817,0.06239201,0.00000039,-0.00090349,0.00093043,-0.03120105
 ,-0.00903110,-0.00923615,-0.06717032,-0.01704189,-0.06717528,-0.000056
 04,0.00024581,0.00115717,0.00243831,0.00229695,-0.00619592,-0.00286837
 ,0.00041392,-0.00073468,-0.00062794,-0.00024705,0.00100786,0.00019441,
 -0.00025104,0.00011652,0.00007453,0.00002380,-0.00002005,0.00023726,0.
 00077101,-0.00026795,0.00596624,0.00040424,0.00093429,0.07649691,0.017
 28997,0.07334593,0.00013531,0.00001317,-0.00015428,0.00125130,-0.00241
 891,-0.00353053,-0.16256921,0.09324121,0.09628791,0.00178188,-0.000402
 33,-0.00106270,0.00049710,-0.00051415,-0.00024869,0.00017163,-0.000047
 76,0.00022607,-0.00001650,-0.00005375,-0.00001272,0.00010023,-0.000171
 39,-0.00010097,0.00029245,-0.00025335,0.00006979,-0.00003549,0.0000587
 2,0.00013363,0.00426876,-0.00348277,-0.00460249,-0.01381327,0.01585327
 ,0.01651567,0.16793581,-0.00047974,-0.00007971,0.00021314,-0.00544977,
 0.00227674,0.00332085,0.09383972,-0.12741353,-0.07912122,-0.00023067,0
 .00149682,0.00139009,0.00043937,0.00139229,-0.00095955,-0.00013421,-0.
 00038527,-0.00002549,-0.00071699,-0.00035829,0.00057632,0.00000917,0.0
 0005500,-0.00013126,0.00000814,-0.00017714,0.00069143,-0.00013889,-0.0
 0002015,0.00006418,0.02021004,-0.01063430,-0.01684532,-0.00553422,0.00
 455604,0.00602888,-0.10182194,0.12929151,-0.00002559,-0.00082116,0.001
 14852,0.02026069,-0.01717107,-0.01611184,0.09348817,-0.07707106,-0.130
 63740,0.00111951,-0.00039816,-0.00624074,0.00134553,0.00025130,0.00081
 951,-0.00032165,0.00021286,-0.00025059,-0.00046700,-0.00049221,0.00018
 465,-0.00031057,-0.00003267,0.00025105,-0.00019520,0.00089217,-0.00016
 628,-0.00005054,0.00000106,-0.00006374,-0.00506863,0.00317761,0.003517
 18,-0.00625403,0.00665337,0.00613784,-0.10352068,0.08479795,0.14141183
 \\0.00000071,-0.00000051,-0.00000064,0.00000043,-0.00000023,0.00000050
 ,-0.00000212,0.00000142,0.00000124,0.00000243,-0.00000107,0.00000359,0
 .00000126,-0.00000099,-0.00000157,0.00000241,-0.00000180,-0.00000344,0
 .00000071,-0.00000054,-0.00000107,0.00000260,-0.00000170,-0.00000113,-
 0.00000041,-0.00000003,-0.00000258,0.00000017,0.,0.00000088,-0.0000022
 0,0.00000157,0.00000209,-0.00000269,0.00000194,0.00000279,-0.00000331,
 0.00000194,-0.00000066\\\@


 "THE TIME HAS COME", THE WALRUS SAID,
 "TO TALK OF MANY THINGS,
 OF SHOES AND SHIPS AND SEALING WAX,
 OF CABBAGES AND KINGS,
 AND WHY THE SEA IS BOILING HOT,
 AND WHETHER PIGS HAVE WINGS."
 File lengths (MBytes):  RWF=     29 Int=      0 D2E=      0 Chk=      2 Scr=      1
 Normal termination of Gaussian 16 at Tue Apr  2 14:55:04 2024.
real 564.86
user 2003.74
sys 9.86
