 Entering Gaussian System, Link 0=g16
 Input=gaussian_test.inp
 Output=gaussian_test.log
 Initial command:
 /sw/restricted/lms/sw/Gaussian/g16_B01/g16/l1.exe "/scratch/user/peterchao1/peterchao1/9982554_1711744428000000269603667/Gau-11558.inp" -scrdir="/scratch/user/peterchao1/peterchao1/9982554_1711744428000000269603667/"
 Entering Link 1 = /sw/restricted/lms/sw/Gaussian/g16_B01/g16/l1.exe PID=     11559.
  
 Copyright (c) 1988-2017, Gaussian, Inc.  All Rights Reserved.
  
 This is part of the Gaussian(R) 16 program.  It is based on
 the Gaussian(R) 09 system (copyright 2009, Gaussian, Inc.),
 the Gaussian(R) 03 system (copyright 2003, Gaussian, Inc.),
 the Gaussian(R) 98 system (copyright 1998, Gaussian, Inc.),
 the Gaussian(R) 94 system (copyright 1995, Gaussian, Inc.),
 the Gaussian 92(TM) system (copyright 1992, Gaussian, Inc.),
 the Gaussian 90(TM) system (copyright 1990, Gaussian, Inc.),
 the Gaussian 88(TM) system (copyright 1988, Gaussian, Inc.),
 the Gaussian 86(TM) system (copyright 1986, Carnegie Mellon
 University), and the Gaussian 82(TM) system (copyright 1983,
 Carnegie Mellon University). Gaussian is a federally registered
 trademark of Gaussian, Inc.
  
 This software contains proprietary and confidential information,
 including trade secrets, belonging to Gaussian, Inc.
  
 This software is provided under written license and may be
 used, copied, transmitted, or stored only in accord with that
 written license.
  
 The following legend is applicable only to US Government
 contracts under FAR:
  
                    RESTRICTED RIGHTS LEGEND
  
 Use, reproduction and disclosure by the US Government is
 subject to restrictions as set forth in subparagraphs (a)
 and (c) of the Commercial Computer Software - Restricted
 Rights clause in FAR 52.227-19.
  
 Gaussian, Inc.
 340 Quinnipiac St., Bldg. 40, Wallingford CT 06492
  
  
 ---------------------------------------------------------------
 Warning -- This program may not be used in any manner that
 competes with the business of Gaussian, Inc. or will provide
 assistance to any competitor of Gaussian, Inc.  The licensee
 of this program is prohibited from giving any competitor of
 Gaussian, Inc. access to this program.  By using this program,
 the user acknowledges that Gaussian, Inc. is engaged in the
 business of creating and licensing software in the field of
 computational chemistry and represents and warrants to the
 licensee that it is not a competitor of Gaussian, Inc. and that
 it will not use this program in any manner prohibited above.
 ---------------------------------------------------------------
  

 Cite this work as:
 Gaussian 16, Revision B.01,
 M. J. Frisch, G. W. Trucks, H. B. Schlegel, G. E. Scuseria, 
 M. A. Robb, J. R. Cheeseman, G. Scalmani, V. Barone, 
 G. A. Petersson, H. Nakatsuji, X. Li, M. Caricato, A. V. Marenich, 
 J. Bloino, B. G. Janesko, R. Gomperts, B. Mennucci, H. P. Hratchian, 
 J. V. Ortiz, A. F. Izmaylov, J. L. Sonnenberg, D. Williams-Young, 
 F. Ding, F. Lipparini, F. Egidi, J. Goings, B. Peng, A. Petrone, 
 T. Henderson, D. Ranasinghe, V. G. Zakrzewski, J. Gao, N. Rega, 
 G. Zheng, W. Liang, M. Hada, M. Ehara, K. Toyota, R. Fukuda, 
 J. Hasegawa, M. Ishida, T. Nakajima, Y. Honda, O. Kitao, H. Nakai, 
 T. Vreven, K. Throssell, J. A. Montgomery, Jr., J. E. Peralta, 
 F. Ogliaro, M. J. Bearpark, J. J. Heyd, E. N. Brothers, K. N. Kudin, 
 V. N. Staroverov, T. A. Keith, R. Kobayashi, J. Normand, 
 K. Raghavachari, A. P. Rendell, J. C. Burant, S. S. Iyengar, 
 J. Tomasi, M. Cossi, J. M. Millam, M. Klene, C. Adamo, R. Cammi, 
 J. W. Ochterski, R. L. Martin, K. Morokuma, O. Farkas, 
 J. B. Foresman, and D. J. Fox, Gaussian, Inc., Wallingford CT, 2016.
 
 ******************************************
 Gaussian 16:  ES64L-G16RevB.01 20-Dec-2017
                29-Mar-2024 
 ******************************************
 %nprocshared=4
 Will use up to    4 processors via shared memory.
 %mem=8000mb
 %chk=monomer.chk
 %nprocshared=4
 Will use up to    4 processors via shared memory.
 %mem=8000mb
 ----------------------------------------------------------------------
 #T wB97XD/def2svpp opt=tight freq int(grid=ultrafine) scf=(verytight,q
 c) Volume=tight
 ----------------------------------------------------------------------
 -------
 Monomer
 -------
 Symbolic Z-matrix:
 Charge =  0 Multiplicity = 1
 C                    -1.08622   0.76762  -1.25727 
 C                    -0.63538   0.0157   -0.00003 
 C                    -1.08502   0.76176   1.26114 
 C                    -1.23896  -1.38926  -0.00301 
 C                     0.894    -0.115    -0.00036 
 N                     1.56926   1.05917  -0.00015 
 O                     1.47661  -1.17525  -0.00038 
 H                    -0.73035   1.79575  -1.26505 
 H                    -2.17322   0.78688  -1.3032 
 H                    -0.71442   0.26858  -2.1494 
 H                    -0.7133    0.25791   2.15059 
 H                    -2.17197   0.78188   1.30762 
 H                    -0.72792   1.78941   1.27375 
 H                    -0.91128  -1.93652  -0.88277 
 H                    -2.32509  -1.33615  -0.00241 
 H                    -0.91049  -1.94063   0.87389 
 H                     1.11239   1.95165  -0.00046 
 H                     2.57504   1.03164  -0.00021 
 

 GradGradGradGradGradGradGradGradGradGradGradGradGradGradGradGradGradGrad
 Initialization pass.
                           ----------------------------
                           !    Initial Parameters    !
                           ! (Angstroms and Degrees)  !
 --------------------------                            --------------------------
 ! Name  Definition              Value          Derivative Info.                !
 --------------------------------------------------------------------------------
 ! R1    R(1,2)                  1.5327         estimate D2E/DX2                !
 ! R2    R(1,8)                  1.088          estimate D2E/DX2                !
 ! R3    R(1,9)                  1.0881         estimate D2E/DX2                !
 ! R4    R(1,10)                 1.0877         estimate D2E/DX2                !
 ! R5    R(2,3)                  1.5328         estimate D2E/DX2                !
 ! R6    R(2,4)                  1.5291         estimate D2E/DX2                !
 ! R7    R(2,5)                  1.5349         estimate D2E/DX2                !
 ! R8    R(3,11)                 1.0877         estimate D2E/DX2                !
 ! R9    R(3,12)                 1.0881         estimate D2E/DX2                !
 ! R10   R(3,13)                 1.088          estimate D2E/DX2                !
 ! R11   R(4,14)                 1.0867         estimate D2E/DX2                !
 ! R12   R(4,15)                 1.0874         estimate D2E/DX2                !
 ! R13   R(4,16)                 1.0867         estimate D2E/DX2                !
 ! R14   R(5,6)                  1.3545         estimate D2E/DX2                !
 ! R15   R(5,7)                  1.2098         estimate D2E/DX2                !
 ! R16   R(6,17)                 1.0026         estimate D2E/DX2                !
 ! R17   R(6,18)                 1.0062         estimate D2E/DX2                !
 ! A1    A(2,1,8)              111.915          estimate D2E/DX2                !
 ! A2    A(2,1,9)              109.7026         estimate D2E/DX2                !
 ! A3    A(2,1,10)             110.3125         estimate D2E/DX2                !
 ! A4    A(8,1,9)              108.0423         estimate D2E/DX2                !
 ! A5    A(8,1,10)             108.4139         estimate D2E/DX2                !
 ! A6    A(9,1,10)             108.3575         estimate D2E/DX2                !
 ! A7    A(1,2,3)              110.4779         estimate D2E/DX2                !
 ! A8    A(1,2,4)              109.453          estimate D2E/DX2                !
 ! A9    A(1,2,5)              109.5525         estimate D2E/DX2                !
 ! A10   A(3,2,4)              109.4526         estimate D2E/DX2                !
 ! A11   A(3,2,5)              109.507          estimate D2E/DX2                !
 ! A12   A(4,2,5)              108.3637         estimate D2E/DX2                !
 ! A13   A(2,3,11)             110.3105         estimate D2E/DX2                !
 ! A14   A(2,3,12)             109.7057         estimate D2E/DX2                !
 ! A15   A(2,3,13)             111.9005         estimate D2E/DX2                !
 ! A16   A(11,3,12)            108.3611         estimate D2E/DX2                !
 ! A17   A(11,3,13)            108.4132         estimate D2E/DX2                !
 ! A18   A(12,3,13)            108.0535         estimate D2E/DX2                !
 ! A19   A(2,4,14)             110.198          estimate D2E/DX2                !
 ! A20   A(2,4,15)             110.4488         estimate D2E/DX2                !
 ! A21   A(2,4,16)             110.2005         estimate D2E/DX2                !
 ! A22   A(14,4,15)            109.0401         estimate D2E/DX2                !
 ! A23   A(14,4,16)            107.8566         estimate D2E/DX2                !
 ! A24   A(15,4,16)            109.0414         estimate D2E/DX2                !
 ! A25   A(2,5,6)              115.0183         estimate D2E/DX2                !
 ! A26   A(2,5,7)              123.6739         estimate D2E/DX2                !
 ! A27   A(6,5,7)              121.3078         estimate D2E/DX2                !
 ! A28   A(5,6,17)             122.9883         estimate D2E/DX2                !
 ! A29   A(5,6,18)             118.3357         estimate D2E/DX2                !
 ! A30   A(17,6,18)            118.676          estimate D2E/DX2                !
 ! D1    D(8,1,2,3)             55.7858         estimate D2E/DX2                !
 ! D2    D(8,1,2,4)            176.3772         estimate D2E/DX2                !
 ! D3    D(8,1,2,5)            -64.9372         estimate D2E/DX2                !
 ! D4    D(9,1,2,3)            -64.1261         estimate D2E/DX2                !
 ! D5    D(9,1,2,4)             56.4652         estimate D2E/DX2                !
 ! D6    D(9,1,2,5)            175.1509         estimate D2E/DX2                !
 ! D7    D(10,1,2,3)           176.5813         estimate D2E/DX2                !
 ! D8    D(10,1,2,4)           -62.8274         estimate D2E/DX2                !
 ! D9    D(10,1,2,5)            55.8583         estimate D2E/DX2                !
 ! D10   D(1,2,3,11)          -176.6445         estimate D2E/DX2                !
 ! D11   D(1,2,3,12)            64.0578         estimate D2E/DX2                !
 ! D12   D(1,2,3,13)           -55.8609         estimate D2E/DX2                !
 ! D13   D(4,2,3,11)            62.7639         estimate D2E/DX2                !
 ! D14   D(4,2,3,12)           -56.5338         estimate D2E/DX2                !
 ! D15   D(4,2,3,13)          -176.4526         estimate D2E/DX2                !
 ! D16   D(5,2,3,11)           -55.8944         estimate D2E/DX2                !
 ! D17   D(5,2,3,12)          -175.192          estimate D2E/DX2                !
 ! D18   D(5,2,3,13)            64.8892         estimate D2E/DX2                !
 ! D19   D(1,2,4,14)            59.9371         estimate D2E/DX2                !
 ! D20   D(1,2,4,15)           -60.6041         estimate D2E/DX2                !
 ! D21   D(1,2,4,16)           178.8515         estimate D2E/DX2                !
 ! D22   D(3,2,4,14)          -178.8493         estimate D2E/DX2                !
 ! D23   D(3,2,4,15)            60.6096         estimate D2E/DX2                !
 ! D24   D(3,2,4,16)           -59.9348         estimate D2E/DX2                !
 ! D25   D(5,2,4,14)           -59.4837         estimate D2E/DX2                !
 ! D26   D(5,2,4,15)           179.9751         estimate D2E/DX2                !
 ! D27   D(5,2,4,16)            59.4307         estimate D2E/DX2                !
 ! D28   D(1,2,5,6)             60.5354         estimate D2E/DX2                !
 ! D29   D(1,2,5,7)           -119.4872         estimate D2E/DX2                !
 ! D30   D(3,2,5,6)            -60.775          estimate D2E/DX2                !
 ! D31   D(3,2,5,7)            119.2023         estimate D2E/DX2                !
 ! D32   D(4,2,5,6)            179.8937         estimate D2E/DX2                !
 ! D33   D(4,2,5,7)             -0.1289         estimate D2E/DX2                !
 ! D34   D(2,5,6,17)            -0.0443         estimate D2E/DX2                !
 ! D35   D(2,5,6,18)           179.9908         estimate D2E/DX2                !
 ! D36   D(7,5,6,17)           179.9778         estimate D2E/DX2                !
 ! D37   D(7,5,6,18)             0.0129         estimate D2E/DX2                !
 --------------------------------------------------------------------------------
 Number of steps in this run=     94 maximum allowed number of steps=    108.
 GradGradGradGradGradGradGradGradGradGradGradGradGradGradGradGradGradGrad

                    Distance matrix (angstroms):
                    1          2          3          4          5
     1  C    0.000000
     2  C    1.532740   0.000000
     3  C    2.518414   1.532751   0.000000
     4  C    2.499732   1.529136   2.499733   0.000000
     5  C    2.506013   1.534949   2.505319   2.484602   0.000000
     6  N    2.952443   2.439108   2.953735   3.725713   1.354497
     7  O    3.452913   2.424634   3.450420   2.723988   1.209777
     8  H    1.088002   2.185830   2.752553   3.463486   2.808722
     9  H    1.088138   2.158221   2.785790   2.701653   3.452330
    10  H    1.087739   2.165638   3.465882   2.762349   2.711553
    11  H    3.465888   2.165619   1.087734   2.761794   2.710918
    12  H    2.785268   2.158263   1.088129   2.702243   3.451868
    13  H    2.752904   2.185658   1.087997   3.463411   2.807271
    14  H    2.735552   2.160215   3.450687   1.086666   2.712117
    15  H    2.745053   2.163942   2.745095   1.087429   3.442924
    16  H    3.450698   2.160243   2.735566   1.086662   2.711714
    17  H    2.795597   2.608172   2.799302   4.085406   2.078159
    18  H    3.880039   3.367328   3.880710   4.517453   2.034871
                    6          7          8          9         10
     6  N    0.000000
     7  O    2.236339   0.000000
     8  H    2.725937   3.911125   0.000000
     9  H    3.972182   4.343790   1.761006   0.000000
    10  H    3.234117   3.391688   1.764818   1.764303   0.000000
    11  H    3.236945   3.387675   3.745908   3.786798   4.300005
    12  H    3.972910   4.342046   3.118467   2.610825   3.786675
    13  H    2.726381   3.908013   2.538809   3.120035   3.745806
    14  H    3.988261   2.657090   3.756156   3.030867   2.550600
    15  H    4.572038   3.805101   3.734464   2.494464   3.127130
    16  H    3.988973   2.654881   4.309060   3.711260   3.749571
    17  H    1.002624   3.148040   2.240353   3.721429   3.284496
    18  H    1.006152   2.465145   3.620671   4.929870   4.002728
                   11         12         13         14         15
    11  H    0.000000
    12  H    1.764332   0.000000
    13  H    1.764803   1.761120   0.000000
    14  H    3.749135   3.711717   4.308912   0.000000
    15  H    3.126393   2.495129   3.734787   1.770406   0.000000
    16  H    2.549990   3.031747   3.755845   1.756659   1.770417
    17  H    3.290730   3.723772   2.244257   4.471190   4.756667
    18  H    4.004722   4.930207   3.620325   4.662971   5.442215
                   16         17         18
    16  H    0.000000
    17  H    4.472845   0.000000
    18  H    4.663409   1.727932   0.000000
 Framework group  C1[X(C5H11NO)]
 Deg. of freedom    48
                         Standard orientation:                         
 ---------------------------------------------------------------------
 Center     Atomic      Atomic             Coordinates (Angstroms)
 Number     Number       Type             X           Y           Z
 ---------------------------------------------------------------------
      1          6           0        0.955013   -0.817489   -1.257287
      2          6           0        0.566799   -0.031403   -0.000048
      3          6           0        0.954298   -0.811549    1.261120
      4          6           0        1.282619    1.319837   -0.003027
      5          6           0       -0.946883    0.223223   -0.000380
      6          7           0       -1.715382   -0.892156   -0.000174
      7          8           0       -1.441357    1.327331   -0.000399
      8          1           0        0.516727   -1.813277   -1.265067
      9          1           0        2.036846   -0.925062   -1.303218
     10          1           0        0.625025   -0.289867   -2.149418
     11          1           0        0.624772   -0.279147    2.150573
     12          1           0        2.036013   -0.919977    1.307601
     13          1           0        0.514824   -1.806757    1.273733
     14          1           0        1.000518    1.891924   -0.882787
     15          1           0        2.360835    1.178587   -0.002432
     16          1           0        1.000071    1.896082    0.873867
     17          1           0       -1.332588   -1.818829   -0.000479
     18          1           0       -2.715590   -0.782947   -0.000233
 ---------------------------------------------------------------------
 Rotational constants (GHZ):           3.3050692           2.3752022           1.9860531
   120 basis functions,   219 primitive gaussians,   127 cartesian basis functions
    28 alpha electrons       28 beta electrons
       nuclear repulsion energy       330.6488560404 Hartrees.
 NAtoms=   18 NActive=   18 NUniq=   18 SFac= 1.00D+00 NAtFMM=   60 NAOKFM=F Big=F
 Nuclear repulsion after empirical dispersion term =      330.6375341112 Hartrees.
   1 Symmetry operations used in ECPInt.
 ECPInt:  NShTT=    2080 NPrTT=    8380 LenC2=    2075 LenP2D=    6872.
 LDataN:  DoStor=T MaxTD1= 4 Len=   56
 ExpMin= 1.22D-01 ExpMax= 2.27D+03 ExpMxC= 3.41D+02 IAcc=3 IRadAn=         5 AccDes= 0.00D+00
 Harris functional with IExCor= 4639 and IRadAn=       5 diagonalized for initial guess.
 HarFok:  IExCor= 4639 AccDes= 0.00D+00 IRadAn=         5 IDoV= 1 UseB2=F ITyADJ=14
 ICtDFT=  3500011 ScaDFX=  1.000000  1.000000  1.000000  1.000000
 FoFCou: FMM=F IPFlag=           0 FMFlag=      100000 FMFlg1=           0
         NFxFlg=           0 DoJE=T BraDBF=F KetDBF=T FulRan=T
         wScrn=  0.000000 ICntrl=       500 IOpCl=  0 I1Cent=   200000004 NGrid=           0
         NMat0=    1 NMatS0=      1 NMatT0=    0 NMatD0=    1 NMtDS0=    0 NMtDT0=    0
 Petite list used in FoFCou.
     Accept linear search using points  2 and  3.
     Accept linear search using points  1 and  2.
     Accept linear search using points  1 and  2.
     Minimum is close to point  2 DX= -3.45D-04 DF= -4.55D-12 DXR=  3.46D-04 DFR=  1.20D-07 which will be used.
 SCF Done:  E(RwB97XD) =  -326.793482992     a.u. after    7 cycles
            Convg  =    0.3619D-09                    35 Fock formations.
              S**2 =  0.0000                  -V/T =  2.0092

 **********************************************************************

            Population analysis using the SCF Density.

 **********************************************************************

 Orbital symmetries:
       Occupied  (A) (A) (A) (A) (A) (A) (A) (A) (A) (A) (A) (A)
                 (A) (A) (A) (A) (A) (A) (A) (A) (A) (A) (A) (A)
                 (A) (A) (A) (A)
       Virtual   (A) (A) (A) (A) (A) (A) (A) (A) (A) (A) (A) (A)
                 (A) (A) (A) (A) (A) (A) (A) (A) (A) (A) (A) (A)
                 (A) (A) (A) (A) (A) (A) (A) (A) (A) (A) (A) (A)
                 (A) (A) (A) (A) (A) (A) (A) (A) (A) (A) (A) (A)
                 (A) (A) (A) (A) (A) (A) (A) (A) (A) (A) (A) (A)
                 (A) (A) (A) (A) (A) (A) (A) (A) (A) (A) (A) (A)
                 (A) (A) (A) (A) (A) (A) (A) (A) (A) (A) (A) (A)
                 (A) (A) (A) (A) (A) (A) (A) (A)
 The electronic state is 1-A.
 Alpha  occ. eigenvalues --  -19.21127 -14.45552 -10.39013 -10.31345 -10.28781
 Alpha  occ. eigenvalues --  -10.28776 -10.26999  -1.12427  -0.99541  -0.91454
 Alpha  occ. eigenvalues --   -0.78932  -0.77686  -0.72284  -0.65370  -0.61770
 Alpha  occ. eigenvalues --   -0.56695  -0.54218  -0.52832  -0.50700  -0.50190
 Alpha  occ. eigenvalues --   -0.47473  -0.46486  -0.45300  -0.44135  -0.41535
 Alpha  occ. eigenvalues --   -0.41519  -0.34984  -0.32689
 Alpha virt. eigenvalues --    0.11371   0.11619   0.15716   0.18105   0.18626
 Alpha virt. eigenvalues --    0.19581   0.20803   0.21128   0.24477   0.24745
 Alpha virt. eigenvalues --    0.25923   0.27253   0.27556   0.29179   0.32262
 Alpha virt. eigenvalues --    0.34070   0.39342   0.45499   0.47809   0.48720
 Alpha virt. eigenvalues --    0.50226   0.55393   0.57130   0.61775   0.66016
 Alpha virt. eigenvalues --    0.66888   0.69273   0.70412   0.72465   0.73832
 Alpha virt. eigenvalues --    0.74906   0.76858   0.78789   0.79289   0.80216
 Alpha virt. eigenvalues --    0.80622   0.82018   0.82348   0.84234   0.84388
 Alpha virt. eigenvalues --    0.85277   0.85379   0.86883   0.88604   0.88971
 Alpha virt. eigenvalues --    0.92126   0.97998   1.03360   1.05599   1.11606
 Alpha virt. eigenvalues --    1.15160   1.18383   1.25743   1.32482   1.37449
 Alpha virt. eigenvalues --    1.43001   1.50206   1.55683   1.64170   1.76761
 Alpha virt. eigenvalues --    1.78426   1.79794   1.85474   1.91015   1.93546
 Alpha virt. eigenvalues --    1.96959   2.08638   2.08760   2.11422   2.11455
 Alpha virt. eigenvalues --    2.16176   2.23138   2.24636   2.25949   2.26485
 Alpha virt. eigenvalues --    2.26882   2.30155   2.36612   2.56198   2.56323
 Alpha virt. eigenvalues --    2.58659   2.58781   2.69296   2.72556   2.72784
 Alpha virt. eigenvalues --    2.83297   2.89374   2.98287   3.13312   3.27801
 Alpha virt. eigenvalues --    3.56554   3.73843
          Condensed to atoms (all electrons):
 Mulliken charges:
               1
     1  C   -0.247490
     2  C   -0.369585
     3  C   -0.247272
     4  C   -0.218884
     5  C    0.200600
     6  N   -0.410036
     7  O   -0.249880
     8  H    0.097785
     9  H    0.119408
    10  H    0.127232
    11  H    0.127231
    12  H    0.119393
    13  H    0.097782
    14  H    0.121600
    15  H    0.103502
    16  H    0.121733
    17  H    0.250922
    18  H    0.255960
 Sum of Mulliken charges =   0.00000
 Mulliken charges with hydrogens summed into heavy atoms:
               1
     1  C    0.096935
     2  C   -0.369585
     3  C    0.097133
     4  C    0.127951
     5  C    0.200600
     6  N    0.096846
     7  O   -0.249880
 Electronic spatial extent (au):  <R**2>=            766.9707
 Charge=              0.0000 electrons
 Dipole moment (field-independent basis, Debye):
    X=              0.6478    Y=             -3.5409    Z=             -0.0000  Tot=              3.5996
 Evaluate density.
 Using the total density.
 Monte-Carlo method of calculating molar volume:
 based on  0.001 e/bohr**3 density envelope.
 Number of points per bohr**3 =  100 CutOff= 1.00D-04
 Using the SCF density.
 There are      1750 points.  Will hold      1750 in memory.
 LenV=  1048331362 MDV=  1048576000.
 Box volume = 5359.960 fraction occupied=0.186
 Integrated density= 4.6087500050346783D+01 error=-9.9124999496532169D+00
 Molar volume =  998.484 bohr**3/mol ( 89.104 cm**3/mol)
 Recommended a0 for SCRF calculation =  4.11 angstrom (  7.77 bohr)
   1 Symmetry operations used in ECPInt.
 ECPInt:  NShTT=    2080 NPrTT=    8380 LenC2=    2075 LenP2D=    6872.
 LDataN:  DoStor=T MaxTD1= 5 Len=  102
 Calling FoFJK, ICntrl=      2127 FMM=F ISym2X=0 I1Cent= 0 IOpClX= 0 NMat=1 NMatS=1 NMatT=0.

 GradGradGradGradGradGradGradGradGradGradGradGradGradGradGradGradGradGrad
 FormGI is forming the generalized inverse of G from B-inverse, IUseBI=4.
 Internal  Forces:  Max     0.012100709 RMS     0.004207318
 Step number   1 out of a maximum of   94
 All quantities printed in internal units (Hartrees-Bohrs-Radians)
 Mixed Optimization -- RFO/linear search
 Second derivative matrix not updated -- first step.
 ITU=  0
     Eigenvalues ---    0.00304   0.00333   0.00333   0.00381   0.01075
     Eigenvalues ---    0.02294   0.02294   0.04697   0.05245   0.05453
     Eigenvalues ---    0.05454   0.05539   0.05621   0.05676   0.05676
     Eigenvalues ---    0.05707   0.15062   0.15068   0.16000   0.16000
     Eigenvalues ---    0.16000   0.16000   0.16000   0.16000   0.16000
     Eigenvalues ---    0.16000   0.16000   0.16000   0.16000   0.25000
     Eigenvalues ---    0.25000   0.28971   0.29171   0.29172   0.29503
     Eigenvalues ---    0.35029   0.35030   0.35045   0.35045   0.35075
     Eigenvalues ---    0.35076   0.35111   0.35201   0.35201   0.46623
     Eigenvalues ---    0.47230   0.54076   1.00060
 Linear search not attempted -- first point.
 Iteration  1 RMS(Cart)=  0.02239015 RMS(Int)=  0.00009887
 Iteration  2 RMS(Cart)=  0.00014484 RMS(Int)=  0.00002636
 Iteration  3 RMS(Cart)=  0.00000002 RMS(Int)=  0.00002636
 Variable       Old X    -DE/DX   Delta X   Delta X   Delta X     New X
                                 (Linear)    (Quad)   (Total)
    R1        2.89646   0.00517   0.00000   0.01747   0.01747   2.91393
    R2        2.05603   0.01079   0.00000   0.03043   0.03043   2.08645
    R3        2.05628   0.01077   0.00000   0.03038   0.03038   2.08666
    R4        2.05553   0.01077   0.00000   0.03034   0.03034   2.08587
    R5        2.89648   0.00518   0.00000   0.01753   0.01753   2.91400
    R6        2.88965   0.00287   0.00000   0.00961   0.00961   2.89925
    R7        2.90063   0.00519   0.00000   0.01766   0.01766   2.91830
    R8        2.05552   0.01077   0.00000   0.03034   0.03034   2.08586
    R9        2.05627   0.01078   0.00000   0.03041   0.03041   2.08668
   R10        2.05602   0.01079   0.00000   0.03043   0.03043   2.08645
   R11        2.05350   0.01031   0.00000   0.02895   0.02895   2.08245
   R12        2.05494   0.01116   0.00000   0.03141   0.03141   2.08635
   R13        2.05349   0.01030   0.00000   0.02892   0.02892   2.08241
   R14        2.55963   0.01210   0.00000   0.02221   0.02221   2.58184
   R15        2.28615   0.00749   0.00000   0.00745   0.00745   2.29360
   R16        1.89468   0.00690   0.00000   0.01449   0.01449   1.90917
   R17        1.90135   0.00647   0.00000   0.01375   0.01375   1.91511
    A1        1.95328   0.00170   0.00000   0.01027   0.01023   1.96351
    A2        1.91467   0.00057   0.00000   0.00255   0.00254   1.91721
    A3        1.92532   0.00158   0.00000   0.01068   0.01063   1.93594
    A4        1.88569  -0.00141   0.00000  -0.01060  -0.01060   1.87510
    A5        1.89218  -0.00155   0.00000  -0.00770  -0.00777   1.88441
    A6        1.89120  -0.00106   0.00000  -0.00624  -0.00625   1.88494
    A7        1.92820  -0.00053   0.00000  -0.00303  -0.00303   1.92517
    A8        1.91032   0.00022   0.00000   0.00053   0.00053   1.91085
    A9        1.91205   0.00032   0.00000   0.00293   0.00293   1.91498
   A10        1.91031   0.00022   0.00000   0.00060   0.00060   1.91091
   A11        1.91126   0.00033   0.00000   0.00308   0.00308   1.91434
   A12        1.89130  -0.00056   0.00000  -0.00413  -0.00413   1.88718
   A13        1.92528   0.00157   0.00000   0.01061   0.01056   1.93585
   A14        1.91473   0.00058   0.00000   0.00258   0.00257   1.91730
   A15        1.95303   0.00171   0.00000   0.01032   0.01028   1.96331
   A16        1.89126  -0.00106   0.00000  -0.00626  -0.00628   1.88498
   A17        1.89217  -0.00155   0.00000  -0.00771  -0.00779   1.88438
   A18        1.88589  -0.00142   0.00000  -0.01057  -0.01057   1.87531
   A19        1.92332   0.00209   0.00000   0.01325   0.01321   1.93652
   A20        1.92770  -0.00126   0.00000  -0.00875  -0.00871   1.91898
   A21        1.92336   0.00207   0.00000   0.01317   0.01312   1.93649
   A22        1.90311  -0.00056   0.00000  -0.00449  -0.00445   1.89866
   A23        1.88245  -0.00184   0.00000  -0.00905  -0.00918   1.87328
   A24        1.90313  -0.00056   0.00000  -0.00445  -0.00442   1.89872
   A25        2.00745   0.00387   0.00000   0.01525   0.01525   2.02269
   A26        2.15852  -0.00416   0.00000  -0.01638  -0.01638   2.14213
   A27        2.11722   0.00029   0.00000   0.00114   0.00114   2.11836
   A28        2.14655   0.00072   0.00000   0.00437   0.00437   2.15092
   A29        2.06535  -0.00093   0.00000  -0.00569  -0.00569   2.05965
   A30        2.07129   0.00022   0.00000   0.00133   0.00133   2.07261
    D1        0.97365  -0.00006   0.00000   0.00524   0.00522   0.97887
    D2        3.07836   0.00001   0.00000   0.00442   0.00440   3.08276
    D3       -1.13337  -0.00035   0.00000   0.00146   0.00144  -1.13193
    D4       -1.11921   0.00023   0.00000   0.01023   0.01023  -1.10898
    D5        0.98550   0.00030   0.00000   0.00940   0.00941   0.99491
    D6        3.05696  -0.00005   0.00000   0.00644   0.00645   3.06341
    D7        3.08192   0.00020   0.00000   0.00972   0.00973   3.09166
    D8       -1.09654   0.00027   0.00000   0.00889   0.00891  -1.08764
    D9        0.97491  -0.00009   0.00000   0.00593   0.00595   0.98086
   D10       -3.08303  -0.00019   0.00000  -0.00965  -0.00966  -3.09269
   D11        1.11802  -0.00022   0.00000  -0.01011  -0.01011   1.10791
   D12       -0.97496   0.00006   0.00000  -0.00521  -0.00519  -0.98015
   D13        1.09544  -0.00027   0.00000  -0.00878  -0.00879   1.08664
   D14       -0.98670  -0.00030   0.00000  -0.00924  -0.00924  -0.99594
   D15       -3.07968  -0.00001   0.00000  -0.00434  -0.00432  -3.08400
   D16       -0.97554   0.00008   0.00000  -0.00595  -0.00597  -0.98151
   D17       -3.05768   0.00005   0.00000  -0.00641  -0.00642  -3.06409
   D18        1.13253   0.00034   0.00000  -0.00152  -0.00150   1.13103
   D19        1.04610   0.00003   0.00000  -0.00124  -0.00128   1.04482
   D20       -1.05774   0.00019   0.00000   0.00141   0.00141  -1.05633
   D21        3.12155   0.00035   0.00000   0.00406   0.00411   3.12565
   D22       -3.12151  -0.00036   0.00000  -0.00426  -0.00430  -3.12581
   D23        1.05784  -0.00020   0.00000  -0.00161  -0.00162   1.05622
   D24       -1.04606  -0.00003   0.00000   0.00104   0.00108  -1.04498
   D25       -1.03819  -0.00016   0.00000  -0.00264  -0.00268  -1.04087
   D26        3.14116   0.00000   0.00000   0.00001   0.00001   3.14117
   D27        1.03726   0.00017   0.00000   0.00267   0.00271   1.03997
   D28        1.05654  -0.00012   0.00000   0.00030   0.00030   1.05684
   D29       -2.08545  -0.00012   0.00000   0.00034   0.00035  -2.08510
   D30       -1.06072   0.00013   0.00000   0.00025   0.00024  -1.06048
   D31        2.08047   0.00013   0.00000   0.00030   0.00029   2.08076
   D32        3.13974  -0.00000   0.00000   0.00018   0.00018   3.13992
   D33       -0.00225  -0.00000   0.00000   0.00023   0.00023  -0.00202
   D34       -0.00077   0.00000   0.00000   0.00010   0.00010  -0.00067
   D35        3.14143  -0.00000   0.00000  -0.00005  -0.00005   3.14138
   D36        3.14120   0.00000   0.00000   0.00006   0.00006   3.14127
   D37        0.00022  -0.00000   0.00000  -0.00009  -0.00009   0.00013
         Item               Value     Threshold  Converged?
 Maximum Force            0.012101     0.000015     NO 
 RMS     Force            0.004207     0.000010     NO 
 Maximum Displacement     0.077123     0.000060     NO 
 RMS     Displacement     0.022458     0.000040     NO 
 GradGradGradGradGradGradGradGradGradGradGradGradGradGradGradGradGradGrad

                    Distance matrix (angstroms):
                    1          2          3          4          5
     1  C    0.000000
     2  C    1.541983   0.000000
     3  C    2.530957   1.542025   0.000000
     4  C    2.511903   1.534219   2.511995   0.000000
     5  C    2.523803   1.544296   2.523265   2.492586   0.000000
     6  N    2.990904   2.468634   2.992081   3.751812   1.366249
     7  O    3.465668   2.425922   3.463540   2.713405   1.213720
     8  H    1.104103   2.213561   2.780980   3.494262   2.841106
     9  H    1.104215   2.180189   2.800700   2.726300   3.485158
    10  H    1.103793   2.193540   3.498554   2.785920   2.747116
    11  H    3.498519   2.193502   1.103788   2.785470   2.746628
    12  H    2.800274   2.180295   1.104223   2.726967   3.484842
    13  H    2.781380   2.213455   1.104100   3.494278   2.839856
    14  H    2.763427   2.185743   3.482936   1.101984   2.736501
    15  H    2.754488   2.174537   2.754533   1.104048   3.463523
    16  H    3.482820   2.185700   2.763557   1.101964   2.736033
    17  H    2.846020   2.650845   2.849274   4.128297   2.097734
    18  H    3.924519   3.398470   3.925100   4.539558   2.047961
                    6          7          8          9         10
     6  N    0.000000
     7  O    2.250853   0.000000
     8  H    2.774350   3.943694   0.000000
     9  H    4.025621   4.369493   1.780146   0.000000
    10  H    3.284619   3.420197   1.785870   1.786307   0.000000
    11  H    3.287185   3.416702   3.794769   3.819291   4.354641
    12  H    4.026308   4.368064   3.146719   2.616967   3.819266
    13  H    2.774737   3.940958   2.574490   3.148210   3.794767
    14  H    4.027763   2.656776   3.801389   3.070547   2.581029
    15  H    4.611085   3.810825   3.761448   2.505009   3.147186
    16  H    4.028298   2.654646   4.361268   3.751743   3.793806
    17  H    1.010290   3.170380   2.295234   3.786519   3.343119
    18  H    1.013431   2.478091   3.679058   4.989754   4.056633
                   11         12         13         14         15
    11  H    0.000000
    12  H    1.786333   0.000000
    13  H    1.785844   1.780293   0.000000
    14  H    3.793533   3.752281   4.361260   0.000000
    15  H    3.146452   2.505667   3.761787   1.793559   0.000000
    16  H    2.580576   3.071548   3.801185   1.775437   1.793580
    17  H    3.348666   3.788576   2.298637   4.527881   4.810999
    18  H    4.058383   4.990062   3.678676   4.694868   5.480084
                   16         17         18
    16  H    0.000000
    17  H    4.529274   0.000000
    18  H    4.695115   1.741470   0.000000
 Framework group  C1[X(C5H11NO)]
 Deg. of freedom    48
                         Standard orientation:                         
 ---------------------------------------------------------------------
 Center     Atomic      Atomic             Coordinates (Angstroms)
 Number     Number       Type             X           Y           Z
 ---------------------------------------------------------------------
      1          6           0        0.965413   -0.822812   -1.263770
      2          6           0        0.569580   -0.032901   -0.000018
      3          6           0        0.964796   -0.817663    1.267182
      4          6           0        1.280639    1.326590   -0.002675
      5          6           0       -0.953609    0.221551   -0.000345
      6          7           0       -1.744577   -0.892453   -0.000200
      7          8           0       -1.432746    1.336695   -0.000353
      8          1           0        0.527048   -1.835973   -1.283362
      9          1           0        2.062947   -0.936309   -1.306514
     10          1           0        0.641399   -0.293884   -2.176792
     11          1           0        0.641219   -0.284417    2.177838
     12          1           0        2.062232   -0.931986    1.310449
     13          1           0        0.525276   -1.830227    1.291121
     14          1           0        1.002258    1.915208   -0.891721
     15          1           0        2.374831    1.179399   -0.002067
     16          1           0        1.001715    1.918910    0.883712
     17          1           0       -1.376178   -1.833180   -0.000465
     18          1           0       -2.749645   -0.762522   -0.000219
 ---------------------------------------------------------------------
 Rotational constants (GHZ):           3.2618461           2.3418316           1.9588142
   120 basis functions,   219 primitive gaussians,   127 cartesian basis functions
    28 alpha electrons       28 beta electrons
       nuclear repulsion energy       328.1988091144 Hartrees.
 NAtoms=   18 NActive=   18 NUniq=   18 SFac= 1.00D+00 NAtFMM=   60 NAOKFM=F Big=F
 Nuclear repulsion after empirical dispersion term =      328.1874957074 Hartrees.
   1 Symmetry operations used in ECPInt.
 ECPInt:  NShTT=    2080 NPrTT=    8380 LenC2=    2075 LenP2D=    6849.
 LDataN:  DoStor=T MaxTD1= 4 Len=   56
 Initial guess from the checkpoint file:  "monomer.chk"
 B after Tr=    -0.000000    0.000000   -0.000000
         Rot=    0.999999   -0.000115   -0.000006    0.001180 Ang=  -0.14 deg.
 ExpMin= 1.22D-01 ExpMax= 2.27D+03 ExpMxC= 3.41D+02 IAcc=3 IRadAn=         5 AccDes= 0.00D+00
 Harris functional with IExCor= 4639 and IRadAn=       5 diagonalized for initial guess.
 HarFok:  IExCor= 4639 AccDes= 0.00D+00 IRadAn=         5 IDoV= 1 UseB2=F ITyADJ=14
 ICtDFT=  3500011 ScaDFX=  1.000000  1.000000  1.000000  1.000000
 FoFCou: FMM=F IPFlag=           0 FMFlag=      100000 FMFlg1=           0
         NFxFlg=           0 DoJE=T BraDBF=F KetDBF=T FulRan=T
         wScrn=  0.000000 ICntrl=       500 IOpCl=  0 I1Cent=   200000004 NGrid=           0
         NMat0=    1 NMatS0=      1 NMatT0=    0 NMatD0=    1 NMtDS0=    0 NMtDT0=    0
 Petite list used in FoFCou.
     Accept linear search using points  3 and  4.
     Minimum is close to point  3 DX=  5.89D-02 DF= -2.90D-07 DXR=  5.56D-02 DFR=  3.10D-03 which will be used.
     Accept linear search using points  1 and  2.
     Minimum is close to point  2 DX= -1.39D-04 DF= -9.09D-13 DXR=  1.39D-04 DFR=  1.94D-08 which will be used.
 SCF Done:  E(RwB97XD) =  -326.795438965     a.u. after    5 cycles
            Convg  =    0.5367D-09                    31 Fock formations.
              S**2 =  0.0000                  -V/T =  2.0102
   1 Symmetry operations used in ECPInt.
 ECPInt:  NShTT=    2080 NPrTT=    8380 LenC2=    2075 LenP2D=    6849.
 LDataN:  DoStor=T MaxTD1= 5 Len=  102
 Calling FoFJK, ICntrl=      2127 FMM=F ISym2X=0 I1Cent= 0 IOpClX= 0 NMat=1 NMatS=1 NMatT=0.

 GradGradGradGradGradGradGradGradGradGradGradGradGradGradGradGradGradGrad
 Using GEDIIS/GDIIS optimizer.
 FormGI is forming the generalized inverse of G from B-inverse, IUseBI=4.
 Internal  Forces:  Max     0.001750386 RMS     0.000435134
 Step number   2 out of a maximum of   94
 All quantities printed in internal units (Hartrees-Bohrs-Radians)
 Mixed Optimization -- En-DIIS/RFO-DIIS
 Trust test= 9.38D-01 RLast= 1.15D-01 DXMaxT set to 3.45D-01
 ITU=  1  0
 Use linear search instead of GDIIS.
     Eigenvalues ---    0.00304   0.00332   0.00333   0.00381   0.01085
     Eigenvalues ---    0.02294   0.02294   0.04709   0.05228   0.05351
     Eigenvalues ---    0.05356   0.05550   0.05581   0.05611   0.05613
     Eigenvalues ---    0.05623   0.15023   0.15110   0.15815   0.16000
     Eigenvalues ---    0.16000   0.16000   0.16000   0.16000   0.16000
     Eigenvalues ---    0.16000   0.16000   0.16000   0.16068   0.25000
     Eigenvalues ---    0.25266   0.28963   0.29171   0.29417   0.29731
     Eigenvalues ---    0.34905   0.35029   0.35036   0.35045   0.35076
     Eigenvalues ---    0.35092   0.35111   0.35201   0.35769   0.46685
     Eigenvalues ---    0.47255   0.54623   1.00456
 Quartic linear search produced a step of -0.03608.
 Iteration  1 RMS(Cart)=  0.00928827 RMS(Int)=  0.00004451
 Iteration  2 RMS(Cart)=  0.00004874 RMS(Int)=  0.00000358
 Iteration  3 RMS(Cart)=  0.00000000 RMS(Int)=  0.00000358
 Variable       Old X    -DE/DX   Delta X   Delta X   Delta X     New X
                                 (Linear)    (Quad)   (Total)
    R1        2.91393  -0.00174  -0.00063  -0.00488  -0.00551   2.90842
    R2        2.08645   0.00014  -0.00110   0.00191   0.00082   2.08727
    R3        2.08666   0.00008  -0.00110   0.00175   0.00065   2.08732
    R4        2.08587  -0.00008  -0.00109   0.00132   0.00023   2.08610
    R5        2.91400  -0.00175  -0.00063  -0.00490  -0.00553   2.90847
    R6        2.89925  -0.00147  -0.00035  -0.00433  -0.00468   2.89458
    R7        2.91830  -0.00081  -0.00064  -0.00180  -0.00244   2.91585
    R8        2.08586  -0.00007  -0.00109   0.00133   0.00023   2.08609
    R9        2.08668   0.00008  -0.00110   0.00174   0.00065   2.08733
   R10        2.08645   0.00013  -0.00110   0.00190   0.00081   2.08725
   R11        2.08245  -0.00021  -0.00104   0.00088  -0.00017   2.08228
   R12        2.08635   0.00017  -0.00113   0.00204   0.00091   2.08726
   R13        2.08241  -0.00021  -0.00104   0.00088  -0.00017   2.08224
   R14        2.58184  -0.00098  -0.00080  -0.00062  -0.00142   2.58042
   R15        2.29360  -0.00112  -0.00027  -0.00070  -0.00097   2.29263
   R16        1.90917  -0.00013  -0.00052   0.00047  -0.00005   1.90912
   R17        1.91511  -0.00026  -0.00050   0.00016  -0.00034   1.91477
    A1        1.96351  -0.00013  -0.00037  -0.00059  -0.00096   1.96255
    A2        1.91721   0.00022  -0.00009   0.00166   0.00157   1.91878
    A3        1.93594   0.00011  -0.00038   0.00127   0.00089   1.93684
    A4        1.87510  -0.00007   0.00038  -0.00115  -0.00077   1.87433
    A5        1.88441  -0.00004   0.00028  -0.00103  -0.00075   1.88366
    A6        1.88494  -0.00010   0.00023  -0.00027  -0.00004   1.88490
    A7        1.92517  -0.00016   0.00011  -0.00412  -0.00402   1.92115
    A8        1.91085   0.00007  -0.00002   0.00179   0.00178   1.91263
    A9        1.91498  -0.00017  -0.00011  -0.00242  -0.00255   1.91243
   A10        1.91091   0.00006  -0.00002   0.00176   0.00174   1.91266
   A11        1.91434  -0.00015  -0.00011  -0.00231  -0.00244   1.91190
   A12        1.88718   0.00036   0.00015   0.00550   0.00565   1.89283
   A13        1.93585   0.00011  -0.00038   0.00128   0.00090   1.93674
   A14        1.91730   0.00021  -0.00009   0.00164   0.00154   1.91884
   A15        1.96331  -0.00013  -0.00037  -0.00057  -0.00094   1.96238
   A16        1.88498  -0.00010   0.00023  -0.00027  -0.00005   1.88493
   A17        1.88438  -0.00004   0.00028  -0.00102  -0.00073   1.88365
   A18        1.87531  -0.00007   0.00038  -0.00116  -0.00078   1.87453
   A19        1.93652   0.00018  -0.00048   0.00185   0.00137   1.93789
   A20        1.91898  -0.00001   0.00031  -0.00072  -0.00041   1.91857
   A21        1.93649   0.00018  -0.00047   0.00186   0.00139   1.93788
   A22        1.89866  -0.00011   0.00016  -0.00114  -0.00098   1.89768
   A23        1.87328  -0.00013   0.00033  -0.00081  -0.00048   1.87280
   A24        1.89872  -0.00011   0.00016  -0.00114  -0.00098   1.89774
   A25        2.02269  -0.00113  -0.00055  -0.00359  -0.00414   2.01856
   A26        2.14213   0.00116   0.00059   0.00364   0.00423   2.14636
   A27        2.11836  -0.00003  -0.00004  -0.00005  -0.00009   2.11827
   A28        2.15092  -0.00023  -0.00016  -0.00118  -0.00133   2.14958
   A29        2.05965  -0.00035   0.00021  -0.00238  -0.00217   2.05748
   A30        2.07261   0.00058  -0.00005   0.00355   0.00350   2.07612
    D1        0.97887  -0.00008  -0.00019   0.00947   0.00929   0.98816
    D2        3.08276  -0.00007  -0.00016   0.01021   0.01005   3.09282
    D3       -1.13193   0.00031  -0.00005   0.01654   0.01649  -1.11544
    D4       -1.10898  -0.00006  -0.00037   0.01018   0.00981  -1.09917
    D5        0.99491  -0.00004  -0.00034   0.01092   0.01058   1.00549
    D6        3.06341   0.00034  -0.00023   0.01725   0.01701   3.08042
    D7        3.09166  -0.00014  -0.00035   0.00865   0.00830   3.09996
    D8       -1.08764  -0.00013  -0.00032   0.00938   0.00906  -1.07857
    D9        0.98086   0.00025  -0.00021   0.01571   0.01550   0.99636
   D10       -3.09269   0.00015   0.00035  -0.00845  -0.00811  -3.10080
   D11        1.10791   0.00006   0.00036  -0.00997  -0.00961   1.09831
   D12       -0.98015   0.00009   0.00019  -0.00924  -0.00906  -0.98921
   D13        1.08664   0.00013   0.00032  -0.00921  -0.00889   1.07775
   D14       -0.99594   0.00004   0.00033  -0.01072  -0.01039  -1.00633
   D15       -3.08400   0.00007   0.00016  -0.01000  -0.00984  -3.09385
   D16       -0.98151  -0.00026   0.00022  -0.01559  -0.01537  -0.99688
   D17       -3.06409  -0.00034   0.00023  -0.01710  -0.01687  -3.08096
   D18        1.13103  -0.00032   0.00005  -0.01638  -0.01632   1.11471
   D19        1.04482   0.00002   0.00005   0.00069   0.00074   1.04556
   D20       -1.05633   0.00006  -0.00005   0.00140   0.00135  -1.05498
   D21        3.12565   0.00009  -0.00015   0.00209   0.00194   3.12760
   D22       -3.12581  -0.00009   0.00016  -0.00216  -0.00200  -3.12781
   D23        1.05622  -0.00006   0.00006  -0.00145  -0.00139   1.05483
   D24       -1.04498  -0.00003  -0.00004  -0.00075  -0.00080  -1.04578
   D25       -1.04087  -0.00003   0.00010  -0.00067  -0.00058  -1.04144
   D26        3.14117   0.00000  -0.00000   0.00004   0.00004   3.14120
   D27        1.03997   0.00004  -0.00010   0.00073   0.00063   1.04060
   D28        1.05684  -0.00020  -0.00001  -0.00384  -0.00385   1.05299
   D29       -2.08510  -0.00020  -0.00001  -0.00368  -0.00369  -2.08878
   D30       -1.06048   0.00020  -0.00001   0.00427   0.00426  -1.05622
   D31        2.08076   0.00020  -0.00001   0.00443   0.00442   2.08519
   D32        3.13992   0.00000  -0.00001   0.00020   0.00020   3.14012
   D33       -0.00202   0.00000  -0.00001   0.00037   0.00036  -0.00166
   D34       -0.00067   0.00000  -0.00000   0.00015   0.00014  -0.00053
   D35        3.14138   0.00000   0.00000   0.00007   0.00008   3.14146
   D36        3.14127   0.00000  -0.00000  -0.00002  -0.00002   3.14125
   D37        0.00013  -0.00000   0.00000  -0.00009  -0.00009   0.00005
         Item               Value     Threshold  Converged?
 Maximum Force            0.001750     0.000015     NO 
 RMS     Force            0.000435     0.000010     NO 
 Maximum Displacement     0.031454     0.000060     NO 
 RMS     Displacement     0.009293     0.000040     NO 
 GradGradGradGradGradGradGradGradGradGradGradGradGradGradGradGradGradGrad

                    Distance matrix (angstroms):
                    1          2          3          4          5
     1  C    0.000000
     2  C    1.539070   0.000000
     3  C    2.522627   1.539098   0.000000
     4  C    2.509079   1.531745   2.509127   0.000000
     5  C    2.518102   1.543003   2.517652   2.494626   0.000000
     6  N    2.978679   2.463709   2.979769   3.749976   1.365497
     7  O    3.463101   2.427057   3.461338   2.723161   1.213207
     8  H    1.104535   2.210625   2.775491   3.491363   2.826585
     9  H    1.104560   2.179035   2.788745   2.730630   3.481847
    10  H    1.103914   2.191706   3.491926   2.780301   2.748750
    11  H    3.491892   2.191662   1.103912   2.779890   2.748332
    12  H    2.788394   2.179109   1.104565   2.731136   3.481571
    13  H    2.775806   2.210518   1.104526   3.491340   2.825536
    14  H    2.762918   2.184482   3.480219   1.101895   2.741311
    15  H    2.751673   2.172423   2.751650   1.104530   3.464650
    16  H    3.480149   2.184455   2.763045   1.101876   2.740889
    17  H    2.829632   2.643001   2.832515   4.120970   2.096288
    18  H    3.912262   3.393419   3.912856   4.539165   2.045844
                    6          7          8          9         10
     6  N    0.000000
     7  O    2.249688   0.000000
     8  H    2.749467   3.929782   0.000000
     9  H    4.010639   4.373478   1.780271   0.000000
    10  H    3.284600   3.423405   1.785833   1.786656   0.000000
    11  H    3.286888   3.420506   3.791039   3.807744   4.350546
    12  H    4.011285   4.372282   3.137849   2.598903   3.807721
    13  H    2.749922   3.927499   2.570431   3.139060   3.791030
    14  H    4.030433   2.669587   3.798790   3.079301   2.577016
    15  H    4.606354   3.820558   3.761475   2.508890   3.138953
    16  H    4.030906   2.667772   4.358074   3.754501   3.789871
    17  H    1.010263   3.168762   2.267777   3.762267   3.340109
    18  H    1.013252   2.474884   3.652144   4.975490   4.056964
                   11         12         13         14         15
    11  H    0.000000
    12  H    1.786678   0.000000
    13  H    1.785814   1.780401   0.000000
    14  H    3.789628   3.754881   4.358032   0.000000
    15  H    3.138261   2.509351   3.761694   1.793250   0.000000
    16  H    2.576650   3.080148   3.798620   1.774981   1.793274
    17  H    3.344952   3.764109   2.270871   4.525315   4.799226
    18  H    4.058588   4.975825   3.651958   4.699424   5.477074
                   16         17         18
    16  H    0.000000
    17  H    4.526535   0.000000
    18  H    4.699654   1.743096   0.000000
 Framework group  C1[X(C5H11NO)]
 Deg. of freedom    48
                         Standard orientation:                         
 ---------------------------------------------------------------------
 Center     Atomic      Atomic             Coordinates (Angstroms)
 Number     Number       Type             X           Y           Z
 ---------------------------------------------------------------------
      1          6           0        0.959644   -0.823025   -1.259867
      2          6           0        0.569427   -0.029769   -0.000021
      3          6           0        0.959244   -0.818604    1.262755
      4          6           0        1.287423    1.323271   -0.002310
      5          6           0       -0.952407    0.224947   -0.000243
      6          7           0       -1.738680   -0.891457   -0.000146
      7          8           0       -1.435699    1.337736   -0.000299
      8          1           0        0.505528   -1.829648   -1.281902
      9          1           0        2.055707   -0.954401   -1.297797
     10          1           0        0.648197   -0.289676   -2.174835
     11          1           0        0.648230   -0.281559    2.175703
     12          1           0        2.055218   -0.950648    1.301104
     13          1           0        0.504187   -1.824703    1.288524
     14          1           0        1.013922    1.914615   -0.890951
     15          1           0        2.381132    1.169040   -0.001794
     16          1           0        1.013479    1.917825    0.884027
     17          1           0       -1.365445   -1.830247   -0.000390
     18          1           0       -2.743783   -0.763209   -0.000165
 ---------------------------------------------------------------------
 Rotational constants (GHZ):           3.2703336           2.3486776           1.9616458
   120 basis functions,   219 primitive gaussians,   127 cartesian basis functions
    28 alpha electrons       28 beta electrons
       nuclear repulsion energy       328.5224059950 Hartrees.
 NAtoms=   18 NActive=   18 NUniq=   18 SFac= 1.00D+00 NAtFMM=   60 NAOKFM=F Big=F
 Nuclear repulsion after empirical dispersion term =      328.5110887184 Hartrees.
   1 Symmetry operations used in ECPInt.
 ECPInt:  NShTT=    2080 NPrTT=    8380 LenC2=    2075 LenP2D=    6851.
 LDataN:  DoStor=T MaxTD1= 4 Len=   56
 Initial guess from the checkpoint file:  "monomer.chk"
 B after Tr=     0.000000    0.000000   -0.000000
         Rot=    0.999999   -0.000110   -0.000020    0.001035 Ang=  -0.12 deg.
 ExpMin= 1.22D-01 ExpMax= 2.27D+03 ExpMxC= 3.41D+02 IAcc=3 IRadAn=         5 AccDes= 0.00D+00
 Harris functional with IExCor= 4639 and IRadAn=       5 diagonalized for initial guess.
 HarFok:  IExCor= 4639 AccDes= 0.00D+00 IRadAn=         5 IDoV= 1 UseB2=F ITyADJ=14
 ICtDFT=  3500011 ScaDFX=  1.000000  1.000000  1.000000  1.000000
 FoFCou: FMM=F IPFlag=           0 FMFlag=      100000 FMFlg1=           0
         NFxFlg=           0 DoJE=T BraDBF=F KetDBF=T FulRan=T
         wScrn=  0.000000 ICntrl=       500 IOpCl=  0 I1Cent=   200000004 NGrid=           0
         NMat0=    1 NMatS0=      1 NMatT0=    0 NMatD0=    1 NMtDS0=    0 NMtDT0=    0
 Petite list used in FoFCou.
     Minimum is close to point  2 DX=  6.11D-05 DF= -1.14D-13 DXR=  6.11D-05 DFR=  3.60D-09 which will be used.
 SCF Done:  E(RwB97XD) =  -326.795468524     a.u. after    4 cycles
            Convg  =    0.1750D-09                    30 Fock formations.
              S**2 =  0.0000                  -V/T =  2.0101
   1 Symmetry operations used in ECPInt.
 ECPInt:  NShTT=    2080 NPrTT=    8380 LenC2=    2075 LenP2D=    6851.
 LDataN:  DoStor=T MaxTD1= 5 Len=  102
 Calling FoFJK, ICntrl=      2127 FMM=F ISym2X=0 I1Cent= 0 IOpClX= 0 NMat=1 NMatS=1 NMatT=0.

 GradGradGradGradGradGradGradGradGradGradGradGradGradGradGradGradGradGrad
 Using GEDIIS/GDIIS optimizer.
 FormGI is forming the generalized inverse of G from B-inverse, IUseBI=4.
 Internal  Forces:  Max     0.000728521 RMS     0.000156771
 Step number   3 out of a maximum of   94
 All quantities printed in internal units (Hartrees-Bohrs-Radians)
 Mixed Optimization -- En-DIIS/RFO-DIIS
 Swapping is turned off.
 Trust test= 7.96D-01 RLast= 5.45D-02 DXMaxT set to 3.45D-01
 ITU=  1  1  0
     Eigenvalues ---    0.00304   0.00333   0.00339   0.00381   0.01083
     Eigenvalues ---    0.02294   0.02294   0.04720   0.05354   0.05356
     Eigenvalues ---    0.05492   0.05557   0.05589   0.05600   0.05621
     Eigenvalues ---    0.06099   0.14600   0.15031   0.15237   0.16000
     Eigenvalues ---    0.16000   0.16000   0.16000   0.16000   0.16000
     Eigenvalues ---    0.16000   0.16000   0.16015   0.16303   0.24808
     Eigenvalues ---    0.26125   0.28240   0.29078   0.29171   0.32897
     Eigenvalues ---    0.35011   0.35029   0.35045   0.35076   0.35092
     Eigenvalues ---    0.35105   0.35201   0.35423   0.35497   0.46651
     Eigenvalues ---    0.47373   0.54996   0.99767
 En-DIIS/RFO-DIIS/Sim-DIIS IScMMF=       -3 using points:     3    2
 RFO step:  Lambda=-8.96783665D-06.
 DidBck=F Rises=F RFO-DIIS coefs:    0.93714    0.06286
 Iteration  1 RMS(Cart)=  0.00285099 RMS(Int)=  0.00000269
 Iteration  2 RMS(Cart)=  0.00000362 RMS(Int)=  0.00000032
 Iteration  3 RMS(Cart)=  0.00000000 RMS(Int)=  0.00000032
 Variable       Old X    -DE/DX   Delta X   Delta X   Delta X     New X
                                 (Linear)    (Quad)   (Total)
    R1        2.90842   0.00012   0.00035  -0.00050  -0.00016   2.90826
    R2        2.08727  -0.00021  -0.00005  -0.00039  -0.00045   2.08682
    R3        2.08732  -0.00011  -0.00004  -0.00018  -0.00022   2.08710
    R4        2.08610  -0.00011  -0.00001  -0.00026  -0.00027   2.08582
    R5        2.90847   0.00012   0.00035  -0.00051  -0.00016   2.90831
    R6        2.89458  -0.00043   0.00029  -0.00192  -0.00163   2.89295
    R7        2.91585   0.00019   0.00015   0.00016   0.00031   2.91617
    R8        2.08609  -0.00011  -0.00001  -0.00026  -0.00027   2.08582
    R9        2.08733  -0.00011  -0.00004  -0.00018  -0.00022   2.08711
   R10        2.08725  -0.00021  -0.00005  -0.00039  -0.00044   2.08681
   R11        2.08228  -0.00009   0.00001  -0.00026  -0.00025   2.08203
   R12        2.08726  -0.00013  -0.00006  -0.00019  -0.00024   2.08702
   R13        2.08224  -0.00009   0.00001  -0.00026  -0.00024   2.08200
   R14        2.58042   0.00020   0.00009   0.00006   0.00015   2.58057
   R15        2.29263  -0.00023   0.00006  -0.00035  -0.00029   2.29234
   R16        1.90912  -0.00027   0.00000  -0.00050  -0.00050   1.90862
   R17        1.91477  -0.00011   0.00002  -0.00026  -0.00024   1.91453
    A1        1.96255   0.00017   0.00006   0.00074   0.00080   1.96335
    A2        1.91878   0.00007  -0.00010   0.00056   0.00046   1.91924
    A3        1.93684   0.00014  -0.00006   0.00086   0.00081   1.93764
    A4        1.87433  -0.00013   0.00005  -0.00086  -0.00081   1.87352
    A5        1.88366  -0.00016   0.00005  -0.00085  -0.00080   1.88286
    A6        1.88490  -0.00011   0.00000  -0.00058  -0.00058   1.88432
    A7        1.92115  -0.00004   0.00025   0.00029   0.00054   1.92169
    A8        1.91263   0.00000  -0.00011  -0.00049  -0.00060   1.91203
    A9        1.91243   0.00014   0.00016   0.00119   0.00135   1.91378
   A10        1.91266  -0.00000  -0.00011  -0.00049  -0.00060   1.91205
   A11        1.91190   0.00015   0.00015   0.00127   0.00143   1.91333
   A12        1.89283  -0.00025  -0.00036  -0.00179  -0.00215   1.89068
   A13        1.93674   0.00014  -0.00006   0.00087   0.00082   1.93756
   A14        1.91884   0.00007  -0.00010   0.00055   0.00046   1.91930
   A15        1.96238   0.00017   0.00006   0.00076   0.00082   1.96320
   A16        1.88493  -0.00011   0.00000  -0.00059  -0.00058   1.88435
   A17        1.88365  -0.00016   0.00005  -0.00085  -0.00080   1.88284
   A18        1.87453  -0.00014   0.00005  -0.00088  -0.00083   1.87370
   A19        1.93789   0.00004  -0.00009   0.00040   0.00032   1.93821
   A20        1.91857   0.00012   0.00003   0.00054   0.00056   1.91913
   A21        1.93788   0.00004  -0.00009   0.00040   0.00032   1.93819
   A22        1.89768  -0.00008   0.00006  -0.00058  -0.00051   1.89716
   A23        1.87280  -0.00004   0.00003  -0.00024  -0.00021   1.87258
   A24        1.89774  -0.00008   0.00006  -0.00058  -0.00052   1.89722
   A25        2.01856   0.00073   0.00026   0.00176   0.00202   2.02058
   A26        2.14636  -0.00047  -0.00027  -0.00091  -0.00117   2.14519
   A27        2.11827  -0.00025   0.00001  -0.00086  -0.00085   2.11741
   A28        2.14958   0.00012   0.00008   0.00042   0.00050   2.15009
   A29        2.05748  -0.00018   0.00014  -0.00128  -0.00115   2.05634
   A30        2.07612   0.00006  -0.00022   0.00086   0.00064   2.07676
    D1        0.98816   0.00008  -0.00058   0.00142   0.00083   0.98899
    D2        3.09282   0.00005  -0.00063   0.00068   0.00005   3.09286
    D3       -1.11544  -0.00017  -0.00104  -0.00109  -0.00213  -1.11757
    D4       -1.09917   0.00008  -0.00062   0.00164   0.00102  -1.09815
    D5        1.00549   0.00006  -0.00066   0.00090   0.00023   1.00572
    D6        3.08042  -0.00016  -0.00107  -0.00087  -0.00194   3.07848
    D7        3.09996   0.00009  -0.00052   0.00145   0.00093   3.10088
    D8       -1.07857   0.00007  -0.00057   0.00071   0.00014  -1.07843
    D9        0.99636  -0.00016  -0.00097  -0.00106  -0.00203   0.99432
   D10       -3.10080  -0.00009   0.00051  -0.00134  -0.00083  -3.10162
   D11        1.09831  -0.00008   0.00060  -0.00152  -0.00091   1.09740
   D12       -0.98921  -0.00007   0.00057  -0.00128  -0.00071  -0.98991
   D13        1.07775  -0.00007   0.00056  -0.00060  -0.00004   1.07771
   D14       -1.00633  -0.00006   0.00065  -0.00078  -0.00012  -1.00646
   D15       -3.09385  -0.00005   0.00062  -0.00054   0.00008  -3.09377
   D16       -0.99688   0.00016   0.00097   0.00112   0.00209  -0.99479
   D17       -3.08096   0.00016   0.00106   0.00094   0.00200  -3.07896
   D18        1.11471   0.00017   0.00103   0.00118   0.00220   1.11692
   D19        1.04556   0.00002  -0.00005   0.00001  -0.00004   1.04552
   D20       -1.05498   0.00002  -0.00008   0.00012   0.00003  -1.05495
   D21        3.12760   0.00002  -0.00012   0.00023   0.00011   3.12771
   D22       -3.12781  -0.00002   0.00013  -0.00025  -0.00013  -3.12794
   D23        1.05483  -0.00002   0.00009  -0.00014  -0.00006   1.05477
   D24       -1.04578  -0.00002   0.00005  -0.00003   0.00002  -1.04576
   D25       -1.04144   0.00000   0.00004  -0.00007  -0.00003  -1.04148
   D26        3.14120   0.00000  -0.00000   0.00004   0.00004   3.14124
   D27        1.04060   0.00000  -0.00004   0.00015   0.00011   1.04071
   D28        1.05299   0.00007   0.00024   0.00143   0.00167   1.05467
   D29       -2.08878   0.00007   0.00023   0.00119   0.00142  -2.08736
   D30       -1.05622  -0.00006  -0.00027  -0.00046  -0.00073  -1.05695
   D31        2.08519  -0.00007  -0.00028  -0.00071  -0.00099   2.08420
   D32        3.14012   0.00000  -0.00001   0.00046   0.00045   3.14057
   D33       -0.00166  -0.00000  -0.00002   0.00022   0.00019  -0.00147
   D34       -0.00053  -0.00000  -0.00001  -0.00005  -0.00006  -0.00059
   D35        3.14146  -0.00000  -0.00000  -0.00013  -0.00013   3.14133
   D36        3.14125   0.00000   0.00000   0.00019   0.00019   3.14144
   D37        0.00005   0.00000   0.00001   0.00011   0.00012   0.00017
         Item               Value     Threshold  Converged?
 Maximum Force            0.000729     0.000015     NO 
 RMS     Force            0.000157     0.000010     NO 
 Maximum Displacement     0.011566     0.000060     NO 
 RMS     Displacement     0.002850     0.000040     NO 
 GradGradGradGradGradGradGradGradGradGradGradGradGradGradGradGradGradGrad

                    Distance matrix (angstroms):
                    1          2          3          4          5
     1  C    0.000000
     2  C    1.538986   0.000000
     3  C    2.522962   1.539013   0.000000
     4  C    2.507775   1.530884   2.507823   0.000000
     5  C    2.519365   1.543169   2.518985   2.492132   0.000000
     6  N    2.983243   2.465478   2.983928   3.748838   1.365578
     7  O    3.463101   2.426320   3.461565   2.718649   1.213055
     8  H    1.104299   2.210936   2.776943   3.490252   2.829645
     9  H    1.104445   2.179216   2.789061   2.729838   3.482863
    10  H    1.103769   2.192104   3.492379   2.779599   2.750019
    11  H    3.492349   2.192068   1.103767   2.779244   2.749674
    12  H    2.788756   2.179283   1.104449   2.730286   3.482631
    13  H    2.777225   2.210848   1.104291   3.490238   2.828740
    14  H    2.761639   2.183850   3.479165   1.101764   2.738478
    15  H    2.750621   2.171982   2.750586   1.104401   3.462918
    16  H    3.479098   2.183825   2.761776   1.101746   2.738093
    17  H    2.836259   2.646034   2.838378   4.121957   2.096419
    18  H    3.916523   3.394286   3.916749   4.536127   2.045128
                    6          7          8          9         10
     6  N    0.000000
     7  O    2.249094   0.000000
     8  H    2.757000   3.932087   0.000000
     9  H    4.015456   4.372673   1.779458   0.000000
    10  H    3.288044   3.423743   1.785001   1.786071   0.000000
    11  H    3.289629   3.421216   3.792653   3.808029   4.351354
    12  H    4.015817   4.371633   3.138915   2.599408   3.808013
    13  H    2.757103   3.930095   2.573454   3.139980   3.792651
    14  H    4.028419   2.664376   3.797522   3.078405   2.576286
    15  H    4.606844   3.816193   3.760487   2.508280   3.138114
    16  H    4.028676   2.662751   4.357493   3.753762   3.789365
    17  H    1.010000   3.168227   2.277481   3.770015   3.344800
    18  H    1.013126   2.472917   3.660438   4.979928   4.060054
                   11         12         13         14         15
    11  H    0.000000
    12  H    1.786088   0.000000
    13  H    1.784984   1.779573   0.000000
    14  H    3.789168   3.754091   4.357463   0.000000
    15  H    3.137481   2.508667   3.760670   1.792707   0.000000
    16  H    2.575992   3.079183   3.797393   1.774631   1.792729
    17  H    3.348456   3.771316   2.279673   4.525369   4.802535
    18  H    4.060988   4.979984   3.659953   4.695124   5.475711
                   16         17         18
    16  H    0.000000
    17  H    4.526251   0.000000
    18  H    4.695130   1.743092   0.000000
 Framework group  C1[X(C5H11NO)]
 Deg. of freedom    48
                         Standard orientation:                         
 ---------------------------------------------------------------------
 Center     Atomic      Atomic             Coordinates (Angstroms)
 Number     Number       Type             X           Y           Z
 ---------------------------------------------------------------------
      1          6           0        0.963091   -0.820804   -1.260290
      2          6           0        0.569485   -0.030065   -0.000019
      3          6           0        0.962491   -0.817290    1.262670
      4          6           0        1.282420    1.324677   -0.001767
      5          6           0       -0.952841    0.222711   -0.000337
      6          7           0       -1.739976   -0.893184   -0.000160
      7          8           0       -1.436207    1.335302   -0.000273
      8          1           0        0.513199   -1.829023   -1.284082
      9          1           0        2.059471   -0.948505   -1.298244
     10          1           0        0.650487   -0.288546   -2.175323
     11          1           0        0.650085   -0.282048    2.176026
     12          1           0        2.058787   -0.945586    1.301162
     13          1           0        0.511767   -1.825057    1.289369
     14          1           0        1.007257    1.915548   -0.890046
     15          1           0        2.376610    1.174842   -0.001213
     16          1           0        1.006657    1.918127    0.884583
     17          1           0       -1.367999   -1.832190   -0.000337
     18          1           0       -2.744711   -0.763063   -0.000121
 ---------------------------------------------------------------------
 Rotational constants (GHZ):           3.2717434           2.3472720           1.9615104
   120 basis functions,   219 primitive gaussians,   127 cartesian basis functions
    28 alpha electrons       28 beta electrons
       nuclear repulsion energy       328.5262245727 Hartrees.
 NAtoms=   18 NActive=   18 NUniq=   18 SFac= 1.00D+00 NAtFMM=   60 NAOKFM=F Big=F
 Nuclear repulsion after empirical dispersion term =      328.5149101130 Hartrees.
   1 Symmetry operations used in ECPInt.
 ECPInt:  NShTT=    2080 NPrTT=    8380 LenC2=    2075 LenP2D=    6853.
 LDataN:  DoStor=T MaxTD1= 4 Len=   56
 Initial guess from the checkpoint file:  "monomer.chk"
 B after Tr=    -0.000000    0.000000    0.000000
         Rot=    1.000000   -0.000137    0.000021   -0.000865 Ang=  -0.10 deg.
     Accept linear search using points  1 and  2.
     Minimum is close to point  2 DX= -6.79D-06 DF=  0.00D+00 DXR=  6.79D-06 DFR=  0.00D+00 which will be used.
 SCF Done:  E(RwB97XD) =  -326.795472651     a.u. after    2 cycles
            Convg  =    0.5488D-06                    13 Fock formations.
              S**2 =  0.0000                  -V/T =  2.0101
   1 Symmetry operations used in ECPInt.
 ECPInt:  NShTT=    2080 NPrTT=    8380 LenC2=    2075 LenP2D=    6853.
 LDataN:  DoStor=T MaxTD1= 5 Len=  102
 Calling FoFJK, ICntrl=      2127 FMM=F ISym2X=0 I1Cent= 0 IOpClX= 0 NMat=1 NMatS=1 NMatT=0.

 GradGradGradGradGradGradGradGradGradGradGradGradGradGradGradGradGradGrad
 Using GEDIIS/GDIIS optimizer.
 FormGI is forming the generalized inverse of G from B-inverse, IUseBI=4.
 Internal  Forces:  Max     0.000169264 RMS     0.000031912
 Step number   4 out of a maximum of   94
 All quantities printed in internal units (Hartrees-Bohrs-Radians)
 Mixed Optimization -- En-DIIS/RFO-DIIS
 Swapping is turned off.
 Trust test= 9.20D-01 RLast= 8.13D-03 DXMaxT set to 3.45D-01
 ITU=  1  1  1  0
     Eigenvalues ---    0.00304   0.00333   0.00340   0.00381   0.01085
     Eigenvalues ---    0.02294   0.02294   0.04784   0.05346   0.05348
     Eigenvalues ---    0.05507   0.05551   0.05587   0.05594   0.05616
     Eigenvalues ---    0.06474   0.12954   0.15024   0.15314   0.15991
     Eigenvalues ---    0.16000   0.16000   0.16000   0.16000   0.16000
     Eigenvalues ---    0.16000   0.16000   0.16057   0.16286   0.25100
     Eigenvalues ---    0.27084   0.28730   0.29171   0.29967   0.32841
     Eigenvalues ---    0.34905   0.35029   0.35045   0.35076   0.35088
     Eigenvalues ---    0.35102   0.35201   0.35409   0.35526   0.46655
     Eigenvalues ---    0.47365   0.54824   1.00581
 En-DIIS/RFO-DIIS/Sim-DIIS IScMMF=       -3 using points:     4    3    2
 RFO step:  Lambda=-4.16993415D-07.
 DidBck=F Rises=F RFO-DIIS coefs:    0.87964    0.09589    0.02446
 Iteration  1 RMS(Cart)=  0.00041719 RMS(Int)=  0.00000010
 Iteration  2 RMS(Cart)=  0.00000011 RMS(Int)=  0.00000007
 Variable       Old X    -DE/DX   Delta X   Delta X   Delta X     New X
                                 (Linear)    (Quad)   (Total)
    R1        2.90826   0.00004   0.00015  -0.00005   0.00011   2.90837
    R2        2.08682  -0.00000   0.00003  -0.00006  -0.00003   2.08679
    R3        2.08710  -0.00003   0.00001  -0.00010  -0.00009   2.08701
    R4        2.08582  -0.00002   0.00003  -0.00008  -0.00006   2.08576
    R5        2.90831   0.00004   0.00015  -0.00006   0.00010   2.90841
    R6        2.89295   0.00017   0.00031   0.00013   0.00044   2.89339
    R7        2.91617   0.00005   0.00002   0.00014   0.00016   2.91633
    R8        2.08582  -0.00002   0.00003  -0.00008  -0.00005   2.08576
    R9        2.08711  -0.00003   0.00001  -0.00010  -0.00009   2.08701
   R10        2.08681  -0.00000   0.00003  -0.00006  -0.00003   2.08678
   R11        2.08203  -0.00001   0.00003  -0.00008  -0.00005   2.08199
   R12        2.08702  -0.00002   0.00001  -0.00007  -0.00006   2.08695
   R13        2.08200  -0.00001   0.00003  -0.00008  -0.00004   2.08196
   R14        2.58057   0.00008   0.00002   0.00012   0.00014   2.58071
   R15        2.29234   0.00009   0.00006   0.00001   0.00007   2.29241
   R16        1.90862   0.00000   0.00006  -0.00008  -0.00002   1.90861
   R17        1.91453   0.00000   0.00004  -0.00004  -0.00000   1.91453
    A1        1.96335   0.00003  -0.00007   0.00028   0.00021   1.96356
    A2        1.91924  -0.00000  -0.00009   0.00010   0.00001   1.91925
    A3        1.93764   0.00002  -0.00012   0.00029   0.00017   1.93781
    A4        1.87352  -0.00001   0.00012  -0.00020  -0.00008   1.87344
    A5        1.88286  -0.00003   0.00012  -0.00032  -0.00021   1.88265
    A6        1.88432  -0.00001   0.00007  -0.00019  -0.00012   1.88420
    A7        1.92169  -0.00000   0.00003  -0.00011  -0.00008   1.92161
    A8        1.91203   0.00002   0.00003   0.00023   0.00026   1.91229
    A9        1.91378  -0.00002  -0.00010  -0.00022  -0.00032   1.91346
   A10        1.91205   0.00001   0.00003   0.00022   0.00025   1.91231
   A11        1.91333  -0.00002  -0.00011  -0.00012  -0.00023   1.91309
   A12        1.89068   0.00002   0.00012  -0.00000   0.00012   1.89080
   A13        1.93756   0.00002  -0.00012   0.00030   0.00018   1.93774
   A14        1.91930  -0.00001  -0.00009   0.00008  -0.00002   1.91928
   A15        1.96320   0.00003  -0.00008   0.00033   0.00025   1.96345
   A16        1.88435  -0.00001   0.00007  -0.00020  -0.00012   1.88422
   A17        1.88284  -0.00003   0.00011  -0.00032  -0.00020   1.88264
   A18        1.87370  -0.00001   0.00012  -0.00024  -0.00012   1.87358
   A19        1.93821   0.00003  -0.00007   0.00029   0.00022   1.93843
   A20        1.91913   0.00005  -0.00006   0.00037   0.00032   1.91945
   A21        1.93819   0.00003  -0.00007   0.00029   0.00022   1.93841
   A22        1.89716  -0.00005   0.00009  -0.00038  -0.00029   1.89687
   A23        1.87258  -0.00003   0.00004  -0.00024  -0.00020   1.87238
   A24        1.89722  -0.00005   0.00009  -0.00039  -0.00030   1.89692
   A25        2.02058  -0.00003  -0.00014   0.00014  -0.00001   2.02058
   A26        2.14519  -0.00003   0.00004  -0.00021  -0.00017   2.14502
   A27        2.11741   0.00006   0.00010   0.00007   0.00018   2.11759
   A28        2.15009   0.00002  -0.00003   0.00018   0.00015   2.15024
   A29        2.05634  -0.00006   0.00019  -0.00060  -0.00041   2.05593
   A30        2.07676   0.00004  -0.00016   0.00042   0.00026   2.07702
    D1        0.98899  -0.00002  -0.00033  -0.00017  -0.00050   0.98849
    D2        3.09286   0.00000  -0.00025   0.00018  -0.00008   3.09279
    D3       -1.11757   0.00002  -0.00015   0.00018   0.00004  -1.11753
    D4       -1.09815  -0.00002  -0.00036  -0.00017  -0.00054  -1.09869
    D5        1.00572  -0.00000  -0.00029   0.00018  -0.00011   1.00561
    D6        3.07848   0.00001  -0.00018   0.00018   0.00000   3.07848
    D7        3.10088  -0.00002  -0.00031  -0.00019  -0.00050   3.10038
    D8       -1.07843   0.00000  -0.00024   0.00017  -0.00007  -1.07851
    D9        0.99432   0.00002  -0.00013   0.00017   0.00004   0.99436
   D10       -3.10162   0.00002   0.00030   0.00041   0.00070  -3.10092
   D11        1.09740   0.00002   0.00034   0.00041   0.00075   1.09815
   D12       -0.98991   0.00002   0.00031   0.00045   0.00075  -0.98916
   D13        1.07771  -0.00000   0.00022   0.00005   0.00027   1.07798
   D14       -1.00646   0.00000   0.00027   0.00005   0.00032  -1.00614
   D15       -3.09377  -0.00000   0.00023   0.00009   0.00032  -3.09345
   D16       -0.99479  -0.00002   0.00012  -0.00001   0.00012  -0.99467
   D17       -3.07896  -0.00002   0.00017  -0.00001   0.00016  -3.07879
   D18        1.11692  -0.00002   0.00013   0.00003   0.00016   1.11708
   D19        1.04552  -0.00001  -0.00001  -0.00009  -0.00011   1.04541
   D20       -1.05495  -0.00001  -0.00004  -0.00005  -0.00009  -1.05504
   D21        3.12771  -0.00001  -0.00006  -0.00001  -0.00007   3.12764
   D22       -3.12794   0.00000   0.00006   0.00005   0.00012  -3.12783
   D23        1.05477   0.00001   0.00004   0.00009   0.00013   1.05491
   D24       -1.04576   0.00001   0.00002   0.00014   0.00016  -1.04560
   D25       -1.04148   0.00000   0.00002   0.00003   0.00005  -1.04143
   D26        3.14124   0.00000  -0.00001   0.00007   0.00007   3.14131
   D27        1.04071   0.00000  -0.00003   0.00012   0.00009   1.04080
   D28        1.05467  -0.00002  -0.00011  -0.00057  -0.00067   1.05400
   D29       -2.08736  -0.00001  -0.00008   0.00027   0.00019  -2.08717
   D30       -1.05695   0.00001  -0.00002  -0.00022  -0.00023  -1.05718
   D31        2.08420   0.00002   0.00001   0.00062   0.00063   2.08484
   D32        3.14057  -0.00000  -0.00006  -0.00041  -0.00047   3.14009
   D33       -0.00147   0.00001  -0.00003   0.00043   0.00040  -0.00107
   D34       -0.00059   0.00000   0.00000   0.00042   0.00042  -0.00017
   D35        3.14133   0.00001   0.00001   0.00043   0.00044  -3.14142
   D36        3.14144  -0.00001  -0.00002  -0.00041  -0.00043   3.14101
   D37        0.00017  -0.00000  -0.00001  -0.00040  -0.00041  -0.00024
         Item               Value     Threshold  Converged?
 Maximum Force            0.000169     0.000015     NO 
 RMS     Force            0.000032     0.000010     NO 
 Maximum Displacement     0.001385     0.000060     NO 
 RMS     Displacement     0.000417     0.000040     NO 
 GradGradGradGradGradGradGradGradGradGradGradGradGradGradGradGradGradGrad

                    Distance matrix (angstroms):
                    1          2          3          4          5
     1  C    0.000000
     2  C    1.539041   0.000000
     3  C    2.522981   1.539064   0.000000
     4  C    2.508242   1.531116   2.508277   0.000000
     5  C    2.519201   1.543255   2.518890   2.492496   0.000000
     6  N    2.982674   2.465609   2.983922   3.749253   1.365651
     7  O    3.462826   2.426319   3.461663   2.718828   1.213092
     8  H    1.104283   2.211122   2.776890   3.490747   2.829555
     9  H    1.104397   2.179234   2.789301   2.730255   3.482736
    10  H    1.103739   2.192255   3.492455   2.780246   2.749923
    11  H    3.492428   2.192225   1.103738   2.779981   2.749608
    12  H    2.789076   2.179279   1.104399   2.730570   3.482538
    13  H    2.777097   2.211060   1.104276   3.490736   2.828866
    14  H    2.762298   2.184196   3.479612   1.101739   2.739023
    15  H    2.751453   2.172392   2.751423   1.104367   3.463344
    16  H    3.479558   2.184173   2.762401   1.101724   2.738707
    17  H    2.835741   2.646292   2.838471   4.122466   2.096563
    18  H    3.915824   3.394274   3.916775   4.536316   2.044947
                    6          7          8          9         10
     6  N    0.000000
     7  O    2.249301   0.000000
     8  H    2.756406   3.931907   0.000000
     9  H    4.014964   4.372441   1.779352   0.000000
    10  H    3.287323   3.423461   1.784832   1.785930   0.000000
    11  H    3.289641   3.421532   3.792525   3.808400   4.351563
    12  H    4.015801   4.371640   3.139173   2.600050   3.808385
    13  H    2.757309   3.930417   2.573250   3.139946   3.792528
    14  H    4.028926   2.664577   3.798231   3.078868   2.577275
    15  H    4.607365   3.816359   3.761329   2.509217   3.139002
    16  H    4.029492   2.663336   4.358029   3.754198   3.789989
    17  H    1.009991   3.168445   2.276848   3.769555   3.344084
    18  H    1.013123   2.472808   3.659796   4.979305   4.059058
                   11         12         13         14         15
    11  H    0.000000
    12  H    1.785944   0.000000
    13  H    1.784818   1.779441   0.000000
    14  H    3.789847   3.754425   4.358011   0.000000
    15  H    3.138532   2.509481   3.761458   1.792470   0.000000
    16  H    2.577059   3.079431   3.798137   1.774463   1.792491
    17  H    3.348476   3.771427   2.279954   4.525957   4.803221
    18  H    4.061039   4.979984   3.660303   4.695317   5.476015
                   16         17         18
    16  H    0.000000
    17  H    4.527114   0.000000
    18  H    4.695769   1.743212   0.000000
 Framework group  C1[X(C5H11NO)]
 Deg. of freedom    48
                         Standard orientation:                         
 ---------------------------------------------------------------------
 Center     Atomic      Atomic             Coordinates (Angstroms)
 Number     Number       Type             X           Y           Z
 ---------------------------------------------------------------------
      1          6           0        0.962151   -0.821323   -1.260397
      2          6           0        0.569589   -0.030139   -0.000011
      3          6           0        0.962390   -0.817720    1.262582
      4          6           0        1.283119    1.324552   -0.002034
      5          6           0       -0.952760    0.223017    0.000095
      6          7           0       -1.740200   -0.892752   -0.000023
      7          8           0       -1.435685    1.335840   -0.000163
      8          1           0        0.511926   -1.829383   -1.283934
      9          1           0        2.058410   -0.949465   -1.298977
     10          1           0        0.649333   -0.289264   -2.175437
     11          1           0        0.650199   -0.282726    2.176121
     12          1           0        2.058609   -0.946250    1.301072
     13          1           0        0.511573   -1.825428    1.289313
     14          1           0        1.008023    1.915664   -0.890143
     15          1           0        2.377269    1.174676   -0.001857
     16          1           0        1.008045    1.918279    0.884318
     17          1           0       -1.368591   -1.831894   -0.000311
     18          1           0       -2.744848   -0.761986   -0.000116
 ---------------------------------------------------------------------
 Rotational constants (GHZ):           3.2710094           2.3473916           1.9613655
   120 basis functions,   219 primitive gaussians,   127 cartesian basis functions
    28 alpha electrons       28 beta electrons
       nuclear repulsion energy       328.5124639601 Hartrees.
 NAtoms=   18 NActive=   18 NUniq=   18 SFac= 1.00D+00 NAtFMM=   60 NAOKFM=F Big=F
 Nuclear repulsion after empirical dispersion term =      328.5011503080 Hartrees.
   1 Symmetry operations used in ECPInt.
 ECPInt:  NShTT=    2080 NPrTT=    8380 LenC2=    2075 LenP2D=    6853.
 LDataN:  DoStor=T MaxTD1= 4 Len=   56
 Initial guess from the checkpoint file:  "monomer.chk"
 B after Tr=     0.000000   -0.000000   -0.000000
         Rot=    1.000000    0.000012   -0.000094    0.000183 Ang=   0.02 deg.
     Minimum is close to point  2 DX=  9.22D-06 DF=  0.00D+00 DXR=  9.22D-06 DFR=  0.00D+00 which will be used.
 SCF Done:  E(RwB97XD) =  -326.795472833     a.u. after    2 cycles
            Convg  =    0.3470D-07                    13 Fock formations.
              S**2 =  0.0000                  -V/T =  2.0101
[...]
 18,0.0342752,-0.1413265,0.0238855,-0.0359969,0.0013187,0.0716549,0.017
 7799,0.0080568,0.0143637,0.0524245,0.0570371,0.0358132,0.0536308,0.033
 387,0.0248862,-0.0780819,0.0222008,-0.0325913,-0.0844107,0.0569628,0.0
 36067,-0.0536234,0.0335563,0.0244274,0.0784992,-0.0222046,0.0330042,-0
 .083877,-0.1412975,0.0237275,0.0362903,0.0013395,0.0717858,-0.0177036,
 -0.0078558,-0.0143075,0.0522633,0.0462674,-0.0892554,0.0040571,-0.0648
 508,-0.1413343,-0.0393638,0.0186257,0.0140285,0.034151,0.0683882,0.024
 0686,0.0499519,-0.0080678,0.0022683,-0.0522317,0.0344513,-0.0862517,-0
 .0491614,-0.1561507,-0.027691,0.0000649,0.0399077,0.0394395,-0.000096,
 0.0002037,-0.0000607,0.075792,0.0683037,0.0243657,-0.0499738,-0.007870
 9,0.0016992,0.0524475,-0.0346065,0.0864327,-0.0484985,0.1737433,0.0468
 391,0.0001731,0.0345137,0.178288,-0.0003109,0.0001465,-0.0003228,0.321
 6088,0.2027082,0.0103461,0.0000802,0.0182935,0.145978,-0.000363,0.0000
 929,-0.0003619,0.3196179\Polar=62.7585499,0.861638,65.1118014,-0.00330
 48,0.0244249,52.8979875\Quadrupole=0.6598611,-0.3030313,-0.3568298,4.7
 24111,0.0091417,-0.0022762\PG=C01 [X(C5H11N1O1)]\NImag=0\\0.57427844,0
 .01618210,0.56703860,-0.03155854,0.04447118,0.51434867,-0.09145200,0.0
 1259273,-0.02382727,0.49961822,0.01634279,-0.10407958,0.04275085,0.012
 13075,0.53085801,-0.03343200,0.04436377,-0.15071315,0.00001450,0.00009
 726,0.48059940,0.00431830,-0.00535442,-0.00806065,-0.09139353,0.016162
 36,0.03343871,0.57434294,-0.00537382,0.00799915,0.01347798,0.01244989,
 -0.10372286,-0.04418453,0.01600681,0.56740378,0.00799996,-0.01330097,-
 0.03367034,0.02381812,-0.04257547,-0.15113058,0.03156209,-0.04426789,0
 .51392093,0.00421688,0.00830228,0.00097525,-0.09780867,-0.04123839,-0.
 00007562,0.00420523,0.00827611,-0.00094798,0.57910054,-0.00611032,-0.0
 2324391,0.00619113,-0.04104039,-0.18101520,-0.00018652,-0.00607389,-0.
 02309891,-0.00627054,-0.04248839,0.50962123,0.01046775,0.02900137,-0.0
 0228855,-0.00007526,-0.00018640,-0.07998821,-0.01049986,-0.02909555,-0
 .00242198,-0.00007584,-0.00016493,0.60040710,-0.00913176,0.00908939,-0
 .01119580,-0.16033760,-0.00931658,0.00001681,-0.00908798,0.00904138,0.
 01124163,-0.02240284,-0.01082994,-0.00001064,0.69111578,0.01795759,-0.
 00163876,0.00157620,-0.00873397,-0.08635793,0.00001171,0.01782710,-0.0
 0162385,-0.00159746,-0.03549940,0.00269301,0.00002437,-0.15248966,0.98
 250625,-0.03142330,0.00204547,-0.00089142,0.00001856,0.00001213,-0.089
 96617,0.03150520,-0.00205798,-0.00094995,-0.00006164,0.00001173,-0.000
 32546,-0.00053990,0.00157976,0.24457360,-0.00236792,-0.00186179,0.0014
 9273,-0.02160589,-0.03145238,-0.00004843,-0.00236940,-0.00185681,-0.00
 149817,-0.00692048,0.00276814,0.00000997,-0.22231955,-0.09827383,-0.00
 011207,0.83307203,-0.00086894,-0.00181931,0.00123562,-0.00590279,0.005
 77048,-0.00000255,-0.00086974,-0.00180991,-0.00124124,0.00163372,-0.00
 015048,-0.00000394,-0.10483338,-0.28016679,-0.00040808,-0.05692254,0.8
 4277796,0.00012592,0.00107816,-0.00023405,0.00000350,0.00001049,0.0085
 8431,-0.00012739,-0.00108281,-0.00024175,0.00000760,-0.00000457,0.0013
 6794,-0.00012625,-0.00041309,-0.05276959,-0.00053033,0.00170436,0.0225
 9403,-0.00558639,-0.00039250,0.00326345,-0.02210226,0.04093939,0.00010
 648,-0.00559361,-0.00037913,-0.00326065,-0.00083762,0.00325002,0.00000
 624,-0.27692365,0.27140205,0.00065219,0.03850521,-0.00893271,-0.000026
 76,0.27534828,0.00123820,0.00048928,-0.00226750,0.01957544,-0.01086211
 ,-0.00007903,0.00125658,0.00048028,0.00227337,-0.00414092,-0.00311384,
 -0.00000005,0.28313184,-0.59492178,-0.00118824,0.01288738,-0.10920702,
 -0.00027355,-0.31067632,0.71369456,0.00397170,0.00010311,-0.00126373,0
 .00006294,-0.00009011,0.02300744,-0.00396219,-0.00009546,-0.00124755,-
 0.00000890,-0.00000389,-0.00197935,0.00067595,-0.00118220,-0.08240088,
 0.00001773,-0.00026251,0.02219059,-0.00075562,0.00154043,0.03493399,-0
 .07800777,-0.08484492,0.00100790,0.00257083,0.01011407,0.00057716,0.00
 010943,-0.00020670,0.00058261,-0.00044698,0.00060541,-0.00116563,0.000
 72762,0.00128625,0.00038164,-0.00103419,-0.00005912,-0.00017673,0.0000
 1450,-0.00028508,-0.00012316,0.08013310,-0.08387066,-0.28453402,0.0018
 9559,-0.00508127,-0.01367160,-0.00197138,0.00011088,0.00071527,-0.0012
 4278,0.00221163,-0.00054389,0.00387845,-0.00270631,-0.00293951,0.00037
 922,0.00005219,0.00145670,-0.00134010,0.00055890,0.00113833,-0.0000596
 3,0.09218353,0.30467229,0.00067257,0.00098992,-0.04889068,0.01059637,0
 .02392699,0.00061233,0.00057366,0.00116137,0.00168984,-0.00228191,0.00
 199788,-0.00469625,0.00106276,0.00013767,0.00049930,-0.00031046,0.0001
 1789,-0.00038040,-0.00017903,-0.00015536,0.00011498,0.00185715,-0.0044
 8564,0.05013926,-0.31616311,0.00637782,-0.00602171,-0.01036433,0.00023
 854,-0.00007614,0.00069631,-0.00028769,0.00069990,0.00053973,-0.000843
 28,0.00085443,0.00214844,0.00006698,-0.00182987,-0.00033084,0.00004036
 ,-0.00030342,-0.00085960,0.00089142,0.00014320,-0.00744767,0.00144877,
 -0.00003976,0.33728661,0.00581149,-0.04827239,-0.00150922,0.01735153,-
 0.00170719,0.00188106,-0.00047132,0.00013033,-0.00093925,0.00139230,0.
 00056252,-0.00019407,-0.00218457,-0.00238341,0.00327643,0.00018128,0.0
 0081977,-0.00072301,0.00122939,-0.00004279,-0.00065268,-0.03001872,0.0
 0294508,-0.00064107,-0.00768501,0.04789891,-0.00479856,-0.00117630,-0.
 04749627,-0.02871435,0.00108909,-0.00270448,-0.00108581,-0.00017151,0.
 00151261,-0.00056888,-0.00115859,0.00084337,0.00220643,0.00271144,-0.0
 0505204,-0.00075970,-0.00065966,0.00074587,-0.00204942,0.00091991,0.00
 101806,-0.00020894,-0.00012004,-0.00092171,0.00836261,-0.00300247,0.04
 992000,-0.07892576,0.04117709,0.07421894,0.00260788,-0.00557345,-0.009
 74297,-0.00035432,0.00116937,-0.00175048,-0.00011927,-0.00027540,0.000
 42064,0.00055221,-0.00083189,-0.00122342,0.00002473,0.00003548,0.00046
 449,0.00021760,-0.00003453,0.00029398,0.00369270,-0.00504631,-0.010714
 62,-0.00702578,0.01495480,0.02595342,0.07821053,0.04104247,-0.10774302
 ,-0.10429141,-0.00633557,0.00720217,0.01338316,0.00100866,-0.00153834,
 0.00250906,-0.00039111,0.00124601,0.00077091,-0.00009077,0.00143138,-0
 .00011194,-0.00023599,-0.00040410,0.00040872,-0.00028785,-0.00027554,-
 0.00020287,0.01093659,-0.01098163,-0.02358061,-0.00076072,-0.00018176,
 0.00136344,-0.04542495,0.11073387,0.07283381,-0.10236762,-0.22986037,0
 .00814670,-0.01284353,-0.02003152,-0.00269279,0.00402635,-0.00395851,0
 .00012794,-0.00138645,0.00081796,0.00190151,-0.00139326,-0.00044065,-0
 .00035538,0.00006986,0.00053323,-0.00061219,0.00080013,0.00035454,-0.0
 0108261,0.00169184,0.00211776,-0.00140846,0.00186814,0.00255038,-0.077
 24068,0.10913030,0.24862022,-0.00034970,0.00115799,0.00175147,0.002609
 15,-0.00560041,0.00969661,-0.07907111,0.04158500,-0.07419595,-0.000119
 76,-0.00027227,-0.00042081,0.00055153,-0.00083560,0.00121890,0.0000245
 9,0.00003732,-0.00046385,0.00021789,-0.00003408,-0.00029402,-0.0001185
 5,0.00020327,-0.00015245,0.00031492,-0.00001562,0.00031018,0.00064383,
 -0.00014301,0.00057928,0.07836278,0.00099508,-0.00151154,-0.00250011,-
 0.00631516,0.00720423,-0.01326493,0.04144666,-0.10859914,0.10475165,-0
 .00039135,0.00124346,-0.00076884,-0.00008290,0.00142496,0.00011969,-0.
 00023786,-0.00040205,-0.00041223,-0.00029018,-0.00027300,0.00020057,0.
 00016091,0.00025098,-0.00018954,0.00001528,-0.00016293,0.00004964,-0.0
 0014147,0.00075369,-0.00079507,-0.04585200,0.11163854,0.00269330,-0.00
 401742,-0.00398986,-0.00819529,0.01296158,-0.02003500,-0.07281153,0.10
 282758,-0.22885869,-0.00012862,0.00138854,0.00082114,-0.00190285,0.001
 40193,-0.00043374,0.00035492,-0.00007380,0.00053130,0.00061115,-0.0008
 0274,0.00035181,0.00009069,-0.00002789,0.00029410,-0.00000606,-0.00010
 745,0.00030905,-0.00058201,0.00080416,-0.00142598,0.07721979,-0.109650
 88,0.24756309,0.00069676,-0.00028467,-0.00070029,-0.01033482,0.0002372
 5,0.00008483,-0.31615124,0.00636267,0.00631833,0.00053939,-0.00083853,
 -0.00085750,0.00214807,0.00005678,0.00182276,-0.00032976,0.00003979,0.
 00030471,-0.00085763,0.00089103,-0.00013765,-0.00004598,0.00007292,0.0
 0006460,0.00030140,-0.00024303,0.00059526,0.00031461,0.00001520,0.0000
 0610,-0.00704995,-0.00076768,0.00141489,0.33726872,-0.00047481,0.00012
 588,0.00093406,0.01723135,-0.00169539,-0.00189420,0.00580182,-0.048283
 89,0.00149981,0.00139014,0.00055697,0.00019156,-0.00217887,-0.00235886
 ,-0.00326303,0.00017892,0.00081412,0.00072312,0.00122160,-0.00004165,0
 .00064706,-0.00016067,-0.00002536,-0.00002846,-0.00024059,0.00039386,0
 .00000025,-0.00001425,-0.00016318,0.00010553,0.01505995,-0.00016885,-0
 .00189455,-0.00765666,0.04787456,0.00108469,0.00016612,0.00151678,0.02
 879340,-0.00108599,-0.00274592,0.00509275,0.00116639,-0.04749634,0.000
 57486,0.00115830,0.00084915,-0.00222280,-0.00270052,-0.00507621,0.0007
 6158,0.00065992,0.00075034,0.00205638,-0.00092515,0.00101504,-0.000047
 63,0.00003450,-0.00009455,-0.00059708,0.00000368,-0.00051535,-0.000310
 22,-0.00005158,0.00030961,-0.02588197,-0.00137306,0.00256164,-0.008683
 30,0.00300202,0.04996195,0.00010815,-0.00020553,-0.00058181,0.00255977
 ,0.01009189,-0.00053748,-0.07801565,-0.08484883,-0.00132850,-0.0004434
 9,0.00059866,0.00116383,0.00072605,0.00128767,-0.00037655,-0.00103360,
 -0.00005994,0.00017720,0.00001483,-0.00028539,0.00012211,0.00019464,-0
 .00006223,-0.00023828,-0.00004597,-0.00016081,0.00004692,-0.00011847,0
 .00016148,-0.00008960,0.00370483,0.01095524,0.00112610,-0.00744844,-0.
 03001831,0.00009179,0.08013586,0.00011458,0.00071488,0.00123856,-0.005
 03595,-0.01358109,0.00191807,-0.08387671,-0.28451278,-0.00278252,0.002
 19822,-0.00051981,-0.00386365,-0.00270235,-0.00293732,-0.00039044,0.00
 005237,0.00145171,0.00134756,0.00055822,0.00113742,0.00006322,-0.00006
 377,0.00067250,-0.00052142,0.00007317,-0.00002531,-0.00003424,0.000202
 65,0.00025008,0.00002748,-0.00509265,-0.01107187,-0.00174108,0.0014490
 7,0.00294283,0.00013451,0.09220307,0.30462530,-0.00057157,-0.00116516,
 0.00169134,-0.01061996,-0.02399531,0.00053299,-0.00098913,-0.00187591,
 -0.04890440,0.00228652,-0.00198129,-0.00472386,-0.00107415,-0.00015321
 ,0.00049869,0.00031131,-0.00011027,-0.00037580,0.00018141,0.00015988,0
 .00011554,0.00023730,0.00052626,-0.00048183,-0.00006431,0.00002889,-0.
 00009457,0.00015373,0.00018921,0.00029492,0.01069301,0.02351497,0.0021
 9584,0.00005232,0.00068719,-0.00091865,-0.00150713,0.00544195,0.050183
 67,0.00020575,0.00042314,-0.00023978,0.00355860,-0.00617820,-0.0115193
 6,-0.00128605,-0.00213294,0.00020639,-0.07253963,0.04247057,0.06880561
 ,0.00045453,-0.00179444,-0.00112980,0.00024610,0.00064488,0.00003332,-
 0.00129405,0.00047804,0.00022477,-0.00011981,0.00000066,-0.00015053,-0
 .00008279,0.00005399,0.00019035,0.00022682,0.00016263,0.00006196,-0.00
 008142,0.00003674,0.00021352,0.00033107,-0.00017976,-0.00007200,0.0005
 8885,-0.00060421,-0.00054018,0.07314725,0.00054260,0.00114336,-0.00142
 879,0.00963546,-0.01429087,-0.02420535,-0.00314541,-0.00545291,0.00117
 320,0.04059377,-0.11755160,-0.11080581,0.00151850,-0.00116564,-0.00050
 698,0.00008299,0.00034387,0.00024723,-0.00012577,0.00135497,0.00058752
 ,-0.00015020,0.00044863,0.00016031,0.00003270,-0.00009487,0.00006933,-
 0.00015042,-0.00038414,0.00091708,-0.00015063,0.00010174,-0.00003701,-
 0.00005472,0.00015193,0.00034260,0.00035495,-0.00095396,-0.00166722,-0
 .04280369,0.12774426,-0.00020187,0.00085230,0.00084169,-0.00115219,0.0
 0144663,0.00017099,-0.00049073,-0.00034904,0.00072411,0.06630847,-0.11
 302695,-0.22951752,0.00138486,-0.00224876,0.00009584,-0.00011722,0.000
 77812,-0.00001962,0.00040695,0.00206597,0.00065012,-0.00008917,-0.0000
 7283,0.00014013,-0.00009719,-0.00007261,-0.00003299,0.00020512,0.00006
 035,0.00022465,0.00010163,0.00018661,0.00034329,0.00000330,0.00020271,
 -0.00001091,0.00018952,-0.00020737,0.00021153,-0.07335809,0.12133936,0
 .24096135,0.00036808,0.00106142,-0.00044986,-0.01251382,0.00236060,0.0
 0001057,0.00036760,0.00105949,0.00045377,-0.31363045,0.01568790,0.0001
 7123,0.00038485,-0.00097680,-0.00000209,-0.00116522,-0.00036730,-0.000
 00009,-0.00020107,-0.00116300,-0.00000194,0.00041677,-0.00003224,-0.00
 001390,0.00056464,-0.00040003,0.00047987,-0.00003580,-0.00004116,-0.00
 004691,-0.00003590,-0.00004136,0.00004671,0.00056418,-0.00039868,-0.00
 048205,0.00041695,-0.00003213,0.00001328,-0.00607569,-0.00035748,-0.00
 128077,0.33664338,-0.00107821,0.00121246,-0.00067047,-0.03115903,0.000
 53834,0.00002076,-0.00107361,0.00121024,0.00067673,0.01819692,-0.04893
 201,-0.00000671,0.00042183,-0.00776420,-0.00001667,-0.00229716,0.00074
 596,0.00000250,0.00081162,0.00193935,0.00000229,0.00023558,0.00023772,
 -0.00024371,0.00048360,-0.00042932,0.00042947,0.00010958,-0.00005346,0
 .00006938,0.00010998,-0.00005324,-0.00006958,0.00048302,-0.00042518,-0
 .00043179,0.00023520,0.00023614,0.00024476,0.01520876,-0.00074347,0.00
 244190,-0.01577056,0.05330311,0.00094933,0.00013328,-0.00005396,-0.000
 05842,0.00000316,-0.00158141,-0.00095416,-0.00012924,-0.00005118,0.000
 17647,-0.00000541,-0.05032089,0.00000071,-0.00001598,0.00027625,-0.000
 00407,0.00000152,0.00009275,0.00000203,0.00000323,0.00062195,-0.000151
 71,-0.00014180,-0.00007418,-0.00003010,0.00058969,0.00002400,0.0001126
 8,-0.00001894,-0.00003394,-0.00011224,0.00001893,-0.00003410,0.0000315
 0,-0.00059110,0.00002032,0.00015215,0.00014312,-0.00007278,0.02551439,
 0.00051470,0.00246995,-0.00018572,0.00002306,0.04617102,-0.00128581,-0
 .00213182,-0.00021311,0.00357204,-0.00622712,0.01149025,0.00020615,0.0
 0042127,0.00024215,-0.07268207,0.04287399,-0.06879535,0.00045417,-0.00
 179684,0.00112211,0.00024624,0.00064432,-0.00003097,-0.00129491,0.0004
 7679,-0.00022084,0.00058920,-0.00060621,0.00053735,0.00033113,-0.00018
 023,0.00007091,-0.00008172,0.00003744,-0.00021293,0.00022656,0.0001628
 5,-0.00006126,-0.00008286,0.00005484,-0.00019006,-0.00011955,0.0000001
 0,0.00015080,0.00264752,-0.00589616,0.00814275,-0.00610121,0.01531114,
 -0.02544240,0.07330215,-0.00314850,-0.00544942,-0.00119537,0.00965605,
 -0.01438439,0.02413523,0.00054322,0.00114096,0.00142949,0.04098452,-0.
 11847610,0.11122044,0.00152472,-0.00117710,0.00050030,0.00008229,0.000
 34814,-0.00024580,-0.00012459,0.00136601,-0.00058459,0.00035741,-0.000
 96162,0.00166203,-0.00005506,0.00015416,-0.00034187,-0.00015018,0.0001
 0234,0.00003620,-0.00015047,-0.00038010,-0.00091943,0.00003219,-0.0000
 9488,-0.00006962,-0.00015075,0.00044897,-0.00015891,-0.00587675,0.0092
 9091,-0.01341836,-0.00036334,-0.00073117,-0.00052761,-0.04323470,0.128
 74636,0.00047985,0.00032592,0.00072039,0.00118850,-0.00149992,0.000251
 07,0.00020478,-0.00085147,0.00084361,-0.06630577,0.11343955,-0.2284512
 7,-0.00137904,0.00224550,0.00010733,0.00011728,-0.00077733,-0.00002386
 ,-0.00040559,-0.00206364,0.00063986,-0.00018844,0.00020318,0.00021884,
 -0.00000386,-0.00020187,-0.00001321,-0.00010181,-0.00018766,0.00034297
 ,-0.00020573,-0.00006303,0.00022087,0.00009737,0.00007226,-0.00003289,
 0.00008881,0.00007411,0.00013952,-0.00818787,0.01353356,-0.01716510,0.
 00128834,-0.00247130,0.00248331,0.07335768,-0.12175639,0.23980522,-0.0
 0133289,-0.00116929,0.00003223,-0.00040754,0.00008859,0.00000086,-0.00
 133323,-0.00116743,-0.00003574,-0.00006333,0.00004117,-0.00000027,0.01
 936782,-0.00871596,-0.00003325,-0.15771307,0.15682975,0.00040364,-0.00
 096182,-0.00769717,-0.00001091,-0.00116931,0.00040085,-0.00123711,0.00
 002703,0.00028452,-0.00007343,0.00024290,0.00035895,0.00016134,0.00024
 289,0.00035969,-0.00016035,0.00002673,0.00028351,0.00007452,-0.0011663
 6,0.00039462,0.00123952,0.00009616,0.00012594,0.00009156,-0.00000982,0
 .00002724,0.00000006,0.00009612,0.00012658,-0.00009122,0.14888271,0.00
 041235,-0.00002946,-0.00023220,-0.00050004,-0.00070864,-0.00000287,0.0
 0041374,-0.00003677,0.00023170,0.00046097,0.00012798,0.00000151,0.0188
 5525,-0.01519233,-0.00002051,0.15794742,-0.38513955,-0.00087475,-0.004
 42874,-0.00416319,-0.00002274,-0.00007131,0.00076416,-0.00010199,0.000
 21482,0.00024272,0.00006567,-0.00002812,-0.00010047,0.00007602,-0.0000
 2875,-0.00010050,-0.00007545,0.00021623,0.00024564,-0.00006463,-0.0000
 7714,0.00076818,0.00010687,0.00006958,0.00004428,0.00009088,0.00000856
 ,0.00018898,0.00000040,0.00006932,0.00004365,-0.00009048,-0.16969500,0
 .39734826,0.00029332,-0.00154363,-0.00002161,-0.00000036,-0.00000325,0
 .00084024,-0.00029022,0.00154480,-0.00001394,0.00000058,0.00000174,-0.
 00072564,0.00002327,-0.00000541,-0.01003759,0.00040627,-0.00087543,0.0
 0218297,-0.00000426,-0.00002102,0.00811497,-0.00144866,0.00108880,-0.0
 0039804,0.00036132,0.00064906,-0.00005961,-0.00014042,-0.00008746,-0.0
 0023722,0.00013977,0.00008759,-0.00023711,-0.00036053,-0.00064809,-0.0
 0006223,0.00144909,-0.00108443,-0.00040498,-0.00004340,-0.00024595,-0.
 00007191,0.00000002,0.00000038,-0.00000639,0.00004352,0.00024629,-0.00
 007122,-0.00042137,0.00088929,0.00594351,0.00041074,-0.00011901,0.0001
 0684,0.00122395,-0.00311969,-0.00000479,0.00041016,-0.00011865,-0.0001
 0748,-0.00058717,0.00047653,0.00000146,-0.01842768,0.00006399,0.000010
 53,-0.45492898,0.01891085,0.00026542,0.00219431,0.00348978,0.00000284,
 -0.00005852,0.00016162,-0.00004639,0.00010987,0.00010004,0.00004314,-0
 .00007267,-0.00001227,-0.00007708,-0.00007257,-0.00001250,0.00007691,0
 .00010976,0.00010048,-0.00004287,-0.00005842,0.00016168,0.00004723,-0.
 00002322,-0.00005241,-0.00004692,0.00004253,-0.00025591,-0.00000051,-0
 .00002316,-0.00005262,0.00004671,-0.00482499,-0.00383915,-0.00000791,0
 .47457604,0.00028600,-0.00040219,0.00032389,-0.00051902,-0.00549638,-0
 .00001966,0.00028727,-0.00040063,-0.00032688,-0.00149101,0.00059456,0.
 00000132,-0.03616757,0.01257187,0.00003913,0.01890540,-0.07542948,-0.0
 0015224,0.00566661,0.00130071,0.00001249,-0.00001924,0.00035598,-0.000
 20625,-0.00001112,0.00015264,-0.00003354,0.00002201,0.00010611,-0.0000
 3238,0.00002198,0.00010561,0.00003351,-0.00001086,0.00015145,0.0000343
 2,-0.00001924,0.00035412,0.00020728,0.00002099,0.00001353,-0.00006892,
 -0.00023389,-0.00048025,-0.00000101,0.00002103,0.00001330,0.00006902,0
 .02912343,0.00569705,0.00000670,-0.01588276,0.06079199,0.00041363,0.00
 004051,0.00025514,0.00000052,-0.00001821,0.00429769,-0.00041272,-0.000
 04307,0.00025411,-0.00000253,0.00000027,0.00033232,-0.00006250,0.00002
 130,0.00229268,0.00026407,-0.00015248,-0.00552824,0.00000725,0.0000133
 6,-0.00623738,-0.00005176,-0.00023576,0.00011110,0.00005651,-0.0002532
 4,-0.00003310,-0.00001637,-0.00008685,-0.00017803,0.00001638,0.0000880
 4,-0.00017764,-0.00005671,0.00025388,-0.00003179,0.00005185,0.00023657
 ,0.00011284,-0.00000930,0.00001222,-0.00001561,-0.00000046,-0.00000098
 ,0.00006929,0.00000940,-0.00001205,-0.00001544,0.00005990,0.00002328,-
 0.00473420,-0.00026715,0.00011321,0.00922625\\-0.00000029,0.00000055,-
 0.00000123,-0.00000039,-0.00000022,0.00000087,-0.00000029,0.,0.0000002
 5,0.00000067,-0.00000074,0.00000005,-0.00000023,0.00000004,0.00000001,
 -0.00000027,0.00000358,-0.00000020,0.00000106,0.00000090,-0.00000003,-
 0.00000067,-0.00000023,0.00000043,-0.00000036,-0.00000109,0.00000002,0
 .00000005,-0.00000047,0.00000014,0.00000002,-0.00000045,-0.00000007,-0
 .00000037,-0.00000096,-0.00000008,-0.00000057,-0.00000021,-0.00000024,
 0.00000112,-0.00000006,-0.00000024,0.00000071,-0.00000071,0.00000004,0
 .00000121,-0.00000009,0.00000019,-0.00000126,0.00000023,0.00000008,-0.
 00000014,-0.00000007,0.00000002\\\@


 PENOTUS DIED A HUNDRED YEARS OLD WANTING BUT TWO...
 AND HE USED TO SAY BEFORE HE DIED, HAVING SPENT HIS
 WHOLE LIFE IN VAINLY SEARCHING AFTER THE PHILOSOPHER'S
 STONE, THAT IF HE HAD A MORTAL ENEMY HE DID NOT DARE
 TO ENCOUNTER OPENLY, HE WOULD ADVISE HIM ABOVE ALL
 THINGS TO GIVE HIMSELF UP TO THE STUDY AND PRACTICE
 OF ALCHEMY.  --  NICOLAS LEMERY, M.D.
 "A COURSE OF CHYMISTRY", WALTER KETTILBY, LONDON, 1686
 File lengths (MBytes):  RWF=     37 Int=      0 D2E=      0 Chk=      2 Scr=      1
 Normal termination of Gaussian 16 at Fri Mar 29 15:39:30 2024.
real 341.93
user 1293.91
sys 10.68
