 Entering Gaussian System, Link 0=g16
 Input=gaussian_test.inp
 Output=gaussian_test.log
 Initial command:
 /sw/restricted/lms/sw/Gaussian/g16_B01/g16/l1.exe "/scratch/user/peterchao1/peterchao1/8628853_1689107042000000161005676/Gau-235102.inp" -scrdir="/scratch/user/peterchao1/peterchao1/8628853_1689107042000000161005676/"
 Entering Link 1 = /sw/restricted/lms/sw/Gaussian/g16_B01/g16/l1.exe PID=    235107.
  
 Copyright (c) 1988-2017, Gaussian, Inc.  All Rights Reserved.
  
 This is part of the Gaussian(R) 16 program.  It is based on
 the Gaussian(R) 09 system (copyright 2009, Gaussian, Inc.),
 the Gaussian(R) 03 system (copyright 2003, Gaussian, Inc.),
 the Gaussian(R) 98 system (copyright 1998, Gaussian, Inc.),
 the Gaussian(R) 94 system (copyright 1995, Gaussian, Inc.),
 the Gaussian 92(TM) system (copyright 1992, Gaussian, Inc.),
 the Gaussian 90(TM) system (copyright 1990, Gaussian, Inc.),
 the Gaussian 88(TM) system (copyright 1988, Gaussian, Inc.),
 the Gaussian 86(TM) system (copyright 1986, Carnegie Mellon
 University), and the Gaussian 82(TM) system (copyright 1983,
 Carnegie Mellon University). Gaussian is a federally registered
 trademark of Gaussian, Inc.
  
 This software contains proprietary and confidential information,
 including trade secrets, belonging to Gaussian, Inc.
  
 This software is provided under written license and may be
 used, copied, transmitted, or stored only in accord with that
 written license.
  
 The following legend is applicable only to US Government
 contracts under FAR:
  
                    RESTRICTED RIGHTS LEGEND
  
 Use, reproduction and disclosure by the US Government is
 subject to restrictions as set forth in subparagraphs (a)
 and (c) of the Commercial Computer Software - Restricted
 Rights clause in FAR 52.227-19.
  
 Gaussian, Inc.
 340 Quinnipiac St., Bldg. 40, Wallingford CT 06492
  
  
 ---------------------------------------------------------------
 Warning -- This program may not be used in any manner that
 competes with the business of Gaussian, Inc. or will provide
 assistance to any competitor of Gaussian, Inc.  The licensee
 of this program is prohibited from giving any competitor of
 Gaussian, Inc. access to this program.  By using this program,
 the user acknowledges that Gaussian, Inc. is engaged in the
 business of creating and licensing software in the field of
 computational chemistry and represents and warrants to the
 licensee that it is not a competitor of Gaussian, Inc. and that
 it will not use this program in any manner prohibited above.
 ---------------------------------------------------------------
  

 Cite this work as:
 Gaussian 16, Revision B.01,
 M. J. Frisch, G. W. Trucks, H. B. Schlegel, G. E. Scuseria, 
 M. A. Robb, J. R. Cheeseman, G. Scalmani, V. Barone, 
 G. A. Petersson, H. Nakatsuji, X. Li, M. Caricato, A. V. Marenich, 
 J. Bloino, B. G. Janesko, R. Gomperts, B. Mennucci, H. P. Hratchian, 
 J. V. Ortiz, A. F. Izmaylov, J. L. Sonnenberg, D. Williams-Young, 
 F. Ding, F. Lipparini, F. Egidi, J. Goings, B. Peng, A. Petrone, 
 T. Henderson, D. Ranasinghe, V. G. Zakrzewski, J. Gao, N. Rega, 
 G. Zheng, W. Liang, M. Hada, M. Ehara, K. Toyota, R. Fukuda, 
 J. Hasegawa, M. Ishida, T. Nakajima, Y. Honda, O. Kitao, H. Nakai, 
 T. Vreven, K. Throssell, J. A. Montgomery, Jr., J. E. Peralta, 
 F. Ogliaro, M. J. Bearpark, J. J. Heyd, E. N. Brothers, K. N. Kudin, 
 V. N. Staroverov, T. A. Keith, R. Kobayashi, J. Normand, 
 K. Raghavachari, A. P. Rendell, J. C. Burant, S. S. Iyengar, 
 J. Tomasi, M. Cossi, J. M. Millam, M. Klene, C. Adamo, R. Cammi, 
 J. W. Ochterski, R. L. Martin, K. Morokuma, O. Farkas, 
 J. B. Foresman, and D. J. Fox, Gaussian, Inc., Wallingford CT, 2016.
 
 ******************************************
 Gaussian 16:  ES64L-G16RevB.01 20-Dec-2017
                11-Jul-2023 
 ******************************************
 %chk=46.chk
 %nprocshared=4
 Will use up to    4 processors via shared memory.
 %mem=8000mb
 ----------------------------------------------------------------------
 #T wB97XD/def2svpp opt=tight freq int(grid=ultrafine) scf=(verytight,q
 c)
 ----------------------------------------------------------------------
 --------------
 Comment gs min
 --------------
 Symbolic Z-matrix:
 Charge =  0 Multiplicity = 1
 C                     2.17172   1.42991   1.25422 
 C                     2.60223   0.69223  -0.00007 
 C                     2.17539   1.42723  -1.2572 
 C                     4.08941   0.38408   0.00256 
 Br                    1.65591  -1.06046   0.00009 
 H                     2.67848   2.39304   1.29946 
 H                     2.42674   0.86355   2.14855 
 H                     1.09787   1.60761   1.2459 
 H                     2.4339    0.85937  -2.14959 
 H                     2.68153   2.39067  -1.30254 
 H                     1.10137   1.60412  -1.25282 
 H                     4.36886  -0.18639   0.88719 
 H                     4.65351   1.31632   0.00224 
 H                     4.37153  -0.18861  -0.87978 
 C                    -2.17142  -1.4298    1.2542 
 C                    -2.60219  -0.69224  -0.00008 
 C                    -2.17531  -1.4272   -1.25721 
 C                    -4.08943  -0.38441   0.00269 
 Br                   -1.65598   1.0605    0.00007 
 H                    -2.67803  -2.393     1.29951 
 H                    -2.42646  -0.86342   2.14852 
 H                    -1.09754  -1.60731   1.24577 
 H                    -2.4338   -0.85928  -2.14957 
 H                    -2.68148  -2.39062  -1.30261 
 H                    -1.10129  -1.60407  -1.2528 
 H                    -4.65332  -1.31678   0.00226 
 H                    -4.37169   0.18837  -0.87955 
 H                    -4.3689    0.18587   0.88743 
 
 Add virtual bond connecting atoms Br19       and H8         Dist= 5.80D+00.
 Add virtual bond connecting atoms Br19       and H11        Dist= 5.81D+00.
 Add virtual bond connecting atoms H22        and Br5        Dist= 5.80D+00.
 Add virtual bond connecting atoms H25        and Br5        Dist= 5.81D+00.

 GradGradGradGradGradGradGradGradGradGradGradGradGradGradGradGradGradGrad
 Initialization pass.
                           ----------------------------
                           !    Initial Parameters    !
                           ! (Angstroms and Degrees)  !
 --------------------------                            --------------------------
 ! Name  Definition              Value          Derivative Info.                !
 --------------------------------------------------------------------------------
 ! R1    R(1,2)                  1.5175         estimate D2E/DX2                !
 ! R2    R(1,6)                  1.0892         estimate D2E/DX2                !
 ! R3    R(1,7)                  1.0889         estimate D2E/DX2                !
 ! R4    R(1,8)                  1.0885         estimate D2E/DX2                !
 ! R5    R(2,3)                  1.5175         estimate D2E/DX2                !
 ! R6    R(2,4)                  1.5188         estimate D2E/DX2                !
 ! R7    R(2,5)                  1.9918         estimate D2E/DX2                !
 ! R8    R(3,9)                  1.0889         estimate D2E/DX2                !
 ! R9    R(3,10)                 1.0892         estimate D2E/DX2                !
 ! R10   R(3,11)                 1.0885         estimate D2E/DX2                !
 ! R11   R(4,12)                 1.0891         estimate D2E/DX2                !
 ! R12   R(4,13)                 1.0896         estimate D2E/DX2                !
 ! R13   R(4,14)                 1.0891         estimate D2E/DX2                !
 ! R14   R(5,22)                 3.0712         estimate D2E/DX2                !
 ! R15   R(5,25)                 3.0769         estimate D2E/DX2                !
 ! R16   R(8,19)                 3.0717         estimate D2E/DX2                !
 ! R17   R(11,19)                3.0771         estimate D2E/DX2                !
 ! R18   R(15,16)                1.5175         estimate D2E/DX2                !
 ! R19   R(15,20)                1.0892         estimate D2E/DX2                !
 ! R20   R(15,21)                1.0889         estimate D2E/DX2                !
 ! R21   R(15,22)                1.0885         estimate D2E/DX2                !
 ! R22   R(16,17)                1.5175         estimate D2E/DX2                !
 ! R23   R(16,18)                1.5188         estimate D2E/DX2                !
 ! R24   R(16,19)                1.9918         estimate D2E/DX2                !
 ! R25   R(17,23)                1.0889         estimate D2E/DX2                !
 ! R26   R(17,24)                1.0892         estimate D2E/DX2                !
 ! R27   R(17,25)                1.0885         estimate D2E/DX2                !
 ! R28   R(18,26)                1.0896         estimate D2E/DX2                !
 ! R29   R(18,27)                1.0891         estimate D2E/DX2                !
 ! R30   R(18,28)                1.0891         estimate D2E/DX2                !
 ! A1    A(2,1,6)              109.401          estimate D2E/DX2                !
 ! A2    A(2,1,7)              111.0747         estimate D2E/DX2                !
 ! A3    A(2,1,8)              110.6666         estimate D2E/DX2                !
 ! A4    A(6,1,7)              108.4716         estimate D2E/DX2                !
 ! A5    A(6,1,8)              108.358          estimate D2E/DX2                !
 ! A6    A(7,1,8)              108.7994         estimate D2E/DX2                !
 ! A7    A(1,2,3)              111.6841         estimate D2E/DX2                !
 ! A8    A(1,2,4)              112.0241         estimate D2E/DX2                !
 ! A9    A(1,2,5)              107.0316         estimate D2E/DX2                !
 ! A10   A(3,2,4)              112.0329         estimate D2E/DX2                !
 ! A11   A(3,2,5)              107.0153         estimate D2E/DX2                !
 ! A12   A(4,2,5)              106.6596         estimate D2E/DX2                !
 ! A13   A(2,3,9)              111.0735         estimate D2E/DX2                !
 ! A14   A(2,3,10)             109.4017         estimate D2E/DX2                !
 ! A15   A(2,3,11)             110.666          estimate D2E/DX2                !
 ! A16   A(9,3,10)             108.4718         estimate D2E/DX2                !
 ! A17   A(9,3,11)             108.802          estimate D2E/DX2                !
 ! A18   A(10,3,11)            108.3562         estimate D2E/DX2                !
 ! A19   A(2,4,12)             111.0353         estimate D2E/DX2                !
 ! A20   A(2,4,13)             109.472          estimate D2E/DX2                !
 ! A21   A(2,4,14)             111.0351         estimate D2E/DX2                !
 ! A22   A(12,4,13)            108.3945         estimate D2E/DX2                !
 ! A23   A(12,4,14)            108.431          estimate D2E/DX2                !
 ! A24   A(13,4,14)            108.3938         estimate D2E/DX2                !
 ! A25   A(2,5,22)             125.6376         estimate D2E/DX2                !
 ! A26   A(2,5,25)             125.5321         estimate D2E/DX2                !
 ! A27   A(22,5,25)             47.9574         estimate D2E/DX2                !
 ! A28   A(1,8,19)             149.1488         estimate D2E/DX2                !
 ! A29   A(3,11,19)            148.9936         estimate D2E/DX2                !
 ! A30   A(16,15,20)           109.3996         estimate D2E/DX2                !
 ! A31   A(16,15,21)           111.0738         estimate D2E/DX2                !
 ! A32   A(16,15,22)           110.6666         estimate D2E/DX2                !
 ! A33   A(20,15,21)           108.4726         estimate D2E/DX2                !
 ! A34   A(20,15,22)           108.3589         estimate D2E/DX2                !
 ! A35   A(21,15,22)           108.7999         estimate D2E/DX2                !
 ! A36   A(15,16,17)           111.6839         estimate D2E/DX2                !
 ! A37   A(15,16,18)           112.0235         estimate D2E/DX2                !
 ! A38   A(15,16,19)           107.0247         estimate D2E/DX2                !
 ! A39   A(17,16,18)           112.0328         estimate D2E/DX2                !
 ! A40   A(17,16,19)           107.0146         estimate D2E/DX2                !
 ! A41   A(18,16,19)           106.6681         estimate D2E/DX2                !
 ! A42   A(16,17,23)           111.0718         estimate D2E/DX2                !
 ! A43   A(16,17,24)           109.4014         estimate D2E/DX2                !
 ! A44   A(16,17,25)           110.665          estimate D2E/DX2                !
 ! A45   A(23,17,24)           108.4725         estimate D2E/DX2                !
 ! A46   A(23,17,25)           108.8022         estimate D2E/DX2                !
 ! A47   A(24,17,25)           108.3585         estimate D2E/DX2                !
 ! A48   A(16,18,26)           109.4711         estimate D2E/DX2                !
 ! A49   A(16,18,27)           111.0338         estimate D2E/DX2                !
 ! A50   A(16,18,28)           111.0324         estimate D2E/DX2                !
 ! A51   A(26,18,27)           108.3963         estimate D2E/DX2                !
 ! A52   A(26,18,28)           108.3958         estimate D2E/DX2                !
 ! A53   A(27,18,28)           108.4324         estimate D2E/DX2                !
 ! A54   A(8,19,11)             47.9554         estimate D2E/DX2                !
 ! A55   A(8,19,16)            125.6378         estimate D2E/DX2                !
 ! A56   A(11,19,16)           125.5292         estimate D2E/DX2                !
 ! A57   A(5,22,15)            149.161          estimate D2E/DX2                !
 ! A58   A(5,25,17)            148.9947         estimate D2E/DX2                !
 ! D1    D(6,1,2,3)            -63.8903         estimate D2E/DX2                !
 ! D2    D(6,1,2,4)             62.7174         estimate D2E/DX2                !
 ! D3    D(6,1,2,5)            179.2914         estimate D2E/DX2                !
 ! D4    D(7,1,2,3)            176.3937         estimate D2E/DX2                !
 ! D5    D(7,1,2,4)            -56.9986         estimate D2E/DX2                !
 ! D6    D(7,1,2,5)             59.5754         estimate D2E/DX2                !
 ! D7    D(8,1,2,3)             55.4319         estimate D2E/DX2                !
 ! D8    D(8,1,2,4)           -177.9604         estimate D2E/DX2                !
 ! D9    D(8,1,2,5)            -61.3864         estimate D2E/DX2                !
 ! D10   D(2,1,8,19)            11.3236         estimate D2E/DX2                !
 ! D11   D(6,1,8,19)           131.2727         estimate D2E/DX2                !
 ! D12   D(7,1,8,19)          -110.9783         estimate D2E/DX2                !
 ! D13   D(1,2,3,9)           -176.4485         estimate D2E/DX2                !
 ! D14   D(1,2,3,10)            63.8354         estimate D2E/DX2                !
 ! D15   D(1,2,3,11)           -55.4846         estimate D2E/DX2                !
 ! D16   D(4,2,3,9)             56.9485         estimate D2E/DX2                !
 ! D17   D(4,2,3,10)           -62.7675         estimate D2E/DX2                !
 ! D18   D(4,2,3,11)           177.9124         estimate D2E/DX2                !
 ! D19   D(5,2,3,9)            -59.6204         estimate D2E/DX2                !
 ! D20   D(5,2,3,10)          -179.3364         estimate D2E/DX2                !
 ! D21   D(5,2,3,11)            61.3435         estimate D2E/DX2                !
 ! D22   D(1,2,4,12)            56.4209         estimate D2E/DX2                !
 ! D23   D(1,2,4,13)           -63.2206         estimate D2E/DX2                !
 ! D24   D(1,2,4,14)           177.139          estimate D2E/DX2                !
 ! D25   D(3,2,4,12)          -177.1604         estimate D2E/DX2                !
 ! D26   D(3,2,4,13)            63.1982         estimate D2E/DX2                !
 ! D27   D(3,2,4,14)           -56.4423         estimate D2E/DX2                !
 ! D28   D(5,2,4,12)           -60.3772         estimate D2E/DX2                !
 ! D29   D(5,2,4,13)           179.9813         estimate D2E/DX2                !
 ! D30   D(5,2,4,14)            60.3409         estimate D2E/DX2                !
 ! D31   D(1,2,5,22)            29.8909         estimate D2E/DX2                !
 ! D32   D(1,2,5,25)            89.8533         estimate D2E/DX2                !
 ! D33   D(3,2,5,22)           -89.9684         estimate D2E/DX2                !
 ! D34   D(3,2,5,25)           -30.006          estimate D2E/DX2                !
 ! D35   D(4,2,5,22)           149.9604         estimate D2E/DX2                !
 ! D36   D(4,2,5,25)          -150.0772         estimate D2E/DX2                !
 ! D37   D(2,3,11,19)          -10.8844         estimate D2E/DX2                !
 ! D38   D(9,3,11,19)          111.4173         estimate D2E/DX2                !
 ! D39   D(10,3,11,19)        -130.833          estimate D2E/DX2                !
 ! D40   D(2,5,22,15)           65.1548         estimate D2E/DX2                !
 ! D41   D(25,5,22,15)         -43.2902         estimate D2E/DX2                !
 ! D42   D(2,5,25,17)          -65.7274         estimate D2E/DX2                !
 ! D43   D(22,5,25,17)          42.9425         estimate D2E/DX2                !
 ! D44   D(1,8,19,11)          -43.3004         estimate D2E/DX2                !
 ! D45   D(1,8,19,16)           65.1395         estimate D2E/DX2                !
 ! D46   D(3,11,19,8)           42.9473         estimate D2E/DX2                !
 ! D47   D(3,11,19,16)         -65.724          estimate D2E/DX2                !
 ! D48   D(20,15,16,17)        -63.8922         estimate D2E/DX2                !
 ! D49   D(20,15,16,18)         62.7147         estimate D2E/DX2                !
 ! D50   D(20,15,16,19)        179.2946         estimate D2E/DX2                !
 ! D51   D(21,15,16,17)        176.392          estimate D2E/DX2                !
 ! D52   D(21,15,16,18)        -57.0011         estimate D2E/DX2                !
 ! D53   D(21,15,16,19)         59.5788         estimate D2E/DX2                !
 ! D54   D(22,15,16,17)         55.4303         estimate D2E/DX2                !
 ! D55   D(22,15,16,18)       -177.9628         estimate D2E/DX2                !
 ! D56   D(22,15,16,19)        -61.383          estimate D2E/DX2                !
 ! D57   D(16,15,22,5)          11.3135         estimate D2E/DX2                !
 ! D58   D(20,15,22,5)         131.2616         estimate D2E/DX2                !
 ! D59   D(21,15,22,5)        -110.9874         estimate D2E/DX2                !
 ! D60   D(15,16,17,23)       -176.434          estimate D2E/DX2                !
 ! D61   D(15,16,17,24)         63.8504         estimate D2E/DX2                !
 ! D62   D(15,16,17,25)        -55.4717         estimate D2E/DX2                !
 ! D63   D(18,16,17,23)         56.9641         estimate D2E/DX2                !
 ! D64   D(18,16,17,24)        -62.7515         estimate D2E/DX2                !
 ! D65   D(18,16,17,25)        177.9265         estimate D2E/DX2                !
 ! D66   D(19,16,17,23)        -59.6147         estimate D2E/DX2                !
 ! D67   D(19,16,17,24)       -179.3302         estimate D2E/DX2                !
 ! D68   D(19,16,17,25)         61.3477         estimate D2E/DX2                !
 ! D69   D(15,16,18,26)        -63.2303         estimate D2E/DX2                !
 ! D70   D(15,16,18,27)        177.1275         estimate D2E/DX2                !
 ! D71   D(15,16,18,28)         56.4105         estimate D2E/DX2                !
 ! D72   D(17,16,18,26)         63.1876         estimate D2E/DX2                !
 ! D73   D(17,16,18,27)        -56.4546         estimate D2E/DX2                !
 ! D74   D(17,16,18,28)       -177.1716         estimate D2E/DX2                !
 ! D75   D(19,16,18,26)        179.9751         estimate D2E/DX2                !
 ! D76   D(19,16,18,27)         60.3329         estimate D2E/DX2                !
 ! D77   D(19,16,18,28)        -60.3841         estimate D2E/DX2                !
 ! D78   D(15,16,19,8)          29.8866         estimate D2E/DX2                !
 ! D79   D(15,16,19,11)         89.8454         estimate D2E/DX2                !
 ! D80   D(17,16,19,8)         -89.9684         estimate D2E/DX2                !
 ! D81   D(17,16,19,11)        -30.0097         estimate D2E/DX2                !
 ! D82   D(18,16,19,8)         149.9563         estimate D2E/DX2                !
 ! D83   D(18,16,19,11)       -150.0849         estimate D2E/DX2                !
 ! D84   D(16,17,25,5)         -10.8861         estimate D2E/DX2                !
 ! D85   D(23,17,25,5)         111.4129         estimate D2E/DX2                !
 ! D86   D(24,17,25,5)        -130.8351         estimate D2E/DX2                !
 --------------------------------------------------------------------------------
 Number of steps in this run=    168 maximum allowed number of steps=    168.
 GradGradGradGradGradGradGradGradGradGradGradGradGradGradGradGradGradGrad

                    Distance matrix (angstroms):
                    1          2          3          4          5
     1  C    0.000000
     2  C    1.517487   0.000000
     3  C    2.511424   1.517493   0.000000
     4  C    2.517529   1.518771   2.517665   0.000000
     5  Br   2.835641   1.991849   2.835356   2.829958   0.000000
     6  H    1.089246   2.141809   2.778925   2.776431   3.828924
     7  H    1.088867   2.162571   3.461219   2.756738   2.985272
     8  H    1.088487   2.157193   2.731135   3.462983   2.997008
     9  H    3.461238   2.162567   1.088874   2.756515   2.985326
    10  H    2.778488   2.141822   1.089244   2.777013   3.828714
    11  H    2.731530   2.157199   1.088497   3.463072   2.996211
    12  H    2.752198   2.163376   3.466051   1.089082   2.985142
    13  H    2.782023   2.144114   2.782006   1.089617   3.825532
    14  H    3.465936   2.163369   2.752526   1.089075   2.984779
    15  C    5.200077   5.372520   5.776199   6.637378   4.044457
    16  C    5.372801   5.385421   5.375665   6.777610   4.273987
    17  C    5.776419   5.375620   5.203493   6.641876   4.048894
    18  C    6.637777   6.777721   6.642086   8.214866   5.784975
    19  Br   4.044827   4.274108   4.049028   5.785074   3.932820
    20  H    6.175495   6.252096   6.684801   7.429165   4.716687
    21  H    5.215593   5.685442   6.166282   6.972660   4.617389
    22  H    4.462380   4.530820   5.117163   5.693477   3.071194
    23  H    6.167410   5.691143   5.221976   6.980678   4.624629
    24  H    6.684860   6.254452   6.177961   7.432859   4.720090
    25  H    5.118860   4.534132   4.463785   5.698422   3.076906
    26  H    7.462764   7.528555   7.466396   8.906641   6.314430
    27  H    6.993611   7.047194   6.673951   8.509211   6.218141
    28  H    6.667976   7.045623   6.997728   8.506785   6.216033
                    6          7          8          9         10
     6  H    0.000000
     7  H    1.767384   0.000000
     8  H    1.765813   1.770402   0.000000
     9  H    3.782580   4.298145   3.724807   0.000000
    10  H    2.602012   3.782465   3.100924   1.767390   0.000000
    11  H    3.102232   3.724833   2.498727   1.770444   1.765800
    12  H    3.111399   2.542680   3.747871   3.749631   3.779318
    13  H    2.596702   3.125722   3.778113   3.125029   2.597184
    14  H    3.778939   3.749662   4.296715   2.542654   3.112470
    15  C    6.175567   5.215592   4.462529   6.167257   6.684612
    16  C    6.252455   5.685702   4.531246   5.691232   6.254476
    17  C    6.685061   6.166489   5.117549   5.222029   6.177950
    18  C    7.429700   6.972992   5.694012   6.980912   7.433076
    19  Br   4.717162   4.617723   3.071659   4.624786   4.720189
    20  H    7.183194   6.114296   5.501375   6.971803   7.640617
    21  H    6.114395   5.151311   4.397911   6.713038   6.970691
    22  H    5.501268   4.397805   3.893010   5.484896   6.062930
    23  H    6.971998   6.713179   5.485198   5.162195   6.119331
    24  H    7.640896   6.970939   6.063349   6.119392   7.184888
    25  H    6.064445   5.486825   4.625433   4.401174   5.501827
    26  H    8.318697   7.712823   6.570755   7.719765   8.321521
    27  H    7.701529   7.472880   6.037204   6.955523   7.401147
    28  H    7.396415   6.944816   5.659984   7.480326   7.704920
                   11         12         13         14         15
    11  H    0.000000
    12  H    4.296753   0.000000
    13  H    3.778319   1.767003   0.000000
    14  H    3.747927   1.766970   1.766989   0.000000
    15  C    5.118686   6.667539   7.462454   6.993183   0.000000
    16  C    4.534202   7.045473   7.528576   7.047004   1.517480
    17  C    4.463801   6.997447   7.466315   6.673656   2.511412
    18  C    5.698679   8.506719   8.906820   8.509107   2.517511
    19  Br   3.077053   6.216144   6.314674   6.218141   2.835502
    20  H    6.064255   7.395795   8.318255   7.700967   1.089247
    21  H    5.486663   6.944475   7.712571   7.472524   1.088868
    22  H    4.625089   5.659430   6.570276   6.036671   1.088488
    23  H    4.401123   7.480031   7.719675   6.955188   3.461206
    24  H    5.501850   7.704618   8.321420   7.400849   2.778594
    25  H    3.891547   6.042506   6.574300   5.665191   2.731406
    26  H    6.574443   9.135679   9.672136   9.137759   2.782073
    27  H    5.665514   8.925194   9.138053   8.751342   3.465911
    28  H    6.042849   8.745693   9.135941   8.925158   2.752058
                   16         17         18         19         20
    16  C    0.000000
    17  C    1.517488   0.000000
    18  C    1.518767   2.517655   0.000000
    19  Br   1.991835   2.835329   2.830096   0.000000
    20  H    2.141786   2.778908   2.776370   3.828805   0.000000
    21  H    2.162554   3.461200   2.756722   2.985118   1.767397
    22  H    2.157187   2.731110   3.462969   2.996801   1.765825
    23  H    2.162540   1.088873   2.756596   2.985215   3.782605
    24  H    2.141815   1.089246   2.776869   3.828689   2.602122
    25  H    2.157184   1.088500   3.463062   2.996211   3.102065
    26  H    2.144104   2.781901   1.089624   3.825635   2.596706
    27  H    2.163353   2.752591   1.089081   2.984866   3.778926
    28  H    2.163340   3.466026   1.089086   2.985353   3.111179
                   21         22         23         24         25
    21  H    0.000000
    22  H    1.770408   0.000000
    23  H    4.298095   3.724712   0.000000
    24  H    3.782543   3.101077   1.767399   0.000000
    25  H    3.724726   2.498575   1.770449   1.765829   0.000000
    26  H    3.125836   3.778134   3.125052   2.596916   3.778178
    27  H    3.749588   4.296690   2.542821   3.112395   3.748023
    28  H    2.542526   3.747763   3.749716   3.779155   4.296719
                   26         27         28
    26  H    0.000000
    27  H    1.767028   0.000000
    28  H    1.767027   1.766992   0.000000
 Framework group  C1[X(C8H18Br2)]
 Deg. of freedom    78
                         Standard orientation:                         
 ---------------------------------------------------------------------
 Center     Atomic      Atomic             Coordinates (Angstroms)
 Number     Number       Type             X           Y           Z
 ---------------------------------------------------------------------
      1          6           0       -2.267682    1.272244   -1.254234
      2          6           0       -2.644777    0.505878    0.000058
      3          6           0       -2.271153    1.269304    1.257187
      4          6           0       -4.106348    0.093000   -0.002577
      5         35           0       -1.576493   -1.175262   -0.000107
      6          1           0       -2.841494    2.196987   -1.299479
      7          1           0       -2.481884    0.689212   -2.148562
      8          1           0       -1.209143    1.525678   -1.245913
      9          1           0       -2.488728    0.684540    2.149575
     10          1           0       -2.844372    2.194407    1.302530
     11          1           0       -1.212389    1.521942    1.252810
     12          1           0       -4.344623   -0.495862   -0.887205
     13          1           0       -4.735160    0.982866   -0.002250
     14          1           0       -4.347126   -0.498261    0.879761
     15          6           0        2.267394   -1.272140   -1.254212
     16          6           0        2.644750   -0.505885    0.000061
     17          6           0        2.271089   -1.269272    1.257195
     18          6           0        4.106405   -0.093319   -0.002700
     19         35           0        1.576580    1.175311   -0.000088
     20          1           0        2.841057   -2.196973   -1.299528
     21          1           0        2.481609   -0.689101   -2.148533
     22          1           0        1.208811   -1.525391   -1.245789
     23          1           0        2.488633   -0.684450    2.149554
     24          1           0        2.844328   -2.194362    1.302591
     25          1           0        1.212318   -1.521893    1.252782
     26          1           0        4.735019   -0.983333   -0.002275
     27          1           0        4.347318    0.498045    0.879540
     28          1           0        4.344717    0.495354   -0.887448
 ---------------------------------------------------------------------
 Rotational constants (GHZ):           1.1456063           0.3341812           0.2917386
   212 basis functions,   432 primitive gaussians,   226 cartesian basis functions
    68 alpha electrons       68 beta electrons
       nuclear repulsion energy      1235.9059486307 Hartrees.
 NAtoms=   28 NActive=   28 NUniq=   28 SFac= 1.00D+00 NAtFMM=   60 NAOKFM=F Big=F
 Nuclear repulsion after empirical dispersion term =     1235.8861255721 Hartrees.
   1 Symmetry operations used in ECPInt.
 ECPInt:  NShTT=    5886 NPrTT=   26344 LenC2=    5623 LenP2D=   17556.
 LDataN:  DoStor=T MaxTD1= 4 Len=   56
 ExpMin= 1.22D-01 ExpMax= 1.13D+05 ExpMxC= 1.70D+04 IAcc=3 IRadAn=         5 AccDes= 0.00D+00
 Harris functional with IExCor= 4639 and IRadAn=       5 diagonalized for initial guess.
 HarFok:  IExCor= 4639 AccDes= 0.00D+00 IRadAn=         5 IDoV= 1 UseB2=F ITyADJ=14
 ICtDFT=  3500011 ScaDFX=  1.000000  1.000000  1.000000  1.000000
 FoFCou: FMM=F IPFlag=           0 FMFlag=      100000 FMFlg1=           0
         NFxFlg=           0 DoJE=T BraDBF=F KetDBF=T FulRan=T
         wScrn=  0.000000 ICntrl=       500 IOpCl=  0 I1Cent=   200000004 NGrid=           0
         NMat0=    1 NMatS0=      1 NMatT0=    0 NMatD0=    1 NMtDS0=    0 NMtDT0=    0
 Petite list used in FoFCou.
     Minimum is close to point  3 DX=  2.30D-03 DF= -9.54D-08 DXR=  2.87D-03 DFR=  8.18D-06 which will be used.
     Accept linear search using points  1 and  2.
     Minimum is close to point  2 DX=  3.69D-04 DF= -4.55D-12 DXR=  3.69D-04 DFR=  1.80D-07 which will be used.
 SCF Done:  E(RwB97XD) =  -5463.17037646     a.u. after    7 cycles
            Convg  =    0.1130D-08                    33 Fock formations.
              S**2 =  0.0000                  -V/T =  2.0016

 **********************************************************************

            Population analysis using the SCF Density.

 **********************************************************************

 Orbital symmetries:
       Occupied  (A) (A) (A) (A) (A) (A) (A) (A) (A) (A) (A) (A)
                 (A) (A) (A) (A) (A) (A) (A) (A) (A) (A) (A) (A)
                 (A) (A) (A) (A) (A) (A) (A) (A) (A) (A) (A) (A)
                 (A) (A) (A) (A) (A) (A) (A) (A) (A) (A) (A) (A)
                 (A) (A) (A) (A) (A) (A) (A) (A) (A) (A) (A) (A)
                 (A) (A) (A) (A) (A) (A) (A) (A)
       Virtual   (A) (A) (A) (A) (A) (A) (A) (A) (A) (A) (A) (A)
                 (A) (A) (A) (A) (A) (A) (A) (A) (A) (A) (A) (A)
                 (A) (A) (A) (A) (A) (A) (A) (A) (A) (A) (A) (A)
                 (A) (A) (A) (A) (A) (A) (A) (A) (A) (A) (A) (A)
                 (A) (A) (A) (A) (A) (A) (A) (A) (A) (A) (A) (A)
                 (A) (A) (A) (A) (A) (A) (A) (A) (A) (A) (A) (A)
                 (A) (A) (A) (A) (A) (A) (A) (A) (A) (A) (A) (A)
                 (A) (A) (A) (A) (A) (A) (A) (A) (A) (A) (A) (A)
                 (A) (A) (A) (A) (A) (A) (A) (A) (A) (A) (A) (A)
                 (A) (A) (A) (A) (A) (A) (A) (A) (A) (A) (A) (A)
                 (A) (A) (A) (A) (A) (A) (A) (A) (A) (A) (A) (A)
                 (A) (A) (A) (A) (A) (A) (A) (A) (A) (A) (A) (A)
 The electronic state is 1-A.
 Alpha  occ. eigenvalues -- -483.03268-483.03267 -62.61458 -62.61457 -56.42211
 Alpha  occ. eigenvalues --  -56.42210 -56.41881 -56.41880 -56.41878 -56.41876
 Alpha  occ. eigenvalues --  -10.36068 -10.36067 -10.28827 -10.28827 -10.28431
 Alpha  occ. eigenvalues --  -10.28430 -10.28428 -10.28427  -8.78379  -8.78378
 Alpha  occ. eigenvalues --   -6.60847  -6.60847  -6.59651  -6.59651  -6.59637
 Alpha  occ. eigenvalues --   -6.59636  -2.71221  -2.71221  -2.70889  -2.70889
 Alpha  occ. eigenvalues --   -2.70878  -2.70878  -2.69924  -2.69924  -2.69924
 Alpha  occ. eigenvalues --   -2.69924  -0.94109  -0.93968  -0.82610  -0.82588
 Alpha  occ. eigenvalues --   -0.79128  -0.79101  -0.78901  -0.78871  -0.63570
 Alpha  occ. eigenvalues --   -0.63218  -0.55662  -0.55172  -0.54132  -0.54019
 Alpha  occ. eigenvalues --   -0.53935  -0.53873  -0.48817  -0.48740  -0.48705
 Alpha  occ. eigenvalues --   -0.48420  -0.45747  -0.45722  -0.43443  -0.43217
 Alpha  occ. eigenvalues --   -0.43205  -0.43202  -0.40551  -0.40123  -0.35735
 Alpha  occ. eigenvalues --   -0.34740  -0.34522  -0.33193
 Alpha virt. eigenvalues --    0.07043   0.07980   0.12774   0.14183   0.19381
 Alpha virt. eigenvalues --    0.19541   0.19565   0.19591   0.19738   0.20214
 Alpha virt. eigenvalues --    0.20445   0.20649   0.21553   0.21825   0.23446
 Alpha virt. eigenvalues --    0.24169   0.25126   0.25136   0.26695   0.26831
 Alpha virt. eigenvalues --    0.27014   0.27223   0.29784   0.30056   0.30154
 Alpha virt. eigenvalues --    0.31933   0.38682   0.44162   0.45230   0.45987
 Alpha virt. eigenvalues --    0.47005   0.47162   0.48136   0.48434   0.49364
 Alpha virt. eigenvalues --    0.49702   0.56090   0.58331   0.59856   0.60018
 Alpha virt. eigenvalues --    0.60335   0.61953   0.62890   0.62934   0.66015
 Alpha virt. eigenvalues --    0.66544   0.67800   0.67801   0.68791   0.71405
 Alpha virt. eigenvalues --    0.71600   0.71807   0.71813   0.73143   0.75354
 Alpha virt. eigenvalues --    0.75756   0.76229   0.76790   0.76821   0.77063
 Alpha virt. eigenvalues --    0.78468   0.78491   0.79874   0.80115   0.80692
 Alpha virt. eigenvalues --    0.80783   0.81147   0.82226   0.82473   0.82803
 Alpha virt. eigenvalues --    0.84052   0.85155   0.86044   0.86640   0.86876
 Alpha virt. eigenvalues --    0.87090   0.87182   0.87616   0.93042   0.93102
 Alpha virt. eigenvalues --    0.94063   0.96264   0.97919   0.98910   0.99361
 Alpha virt. eigenvalues --    1.05381   1.10194   1.10974   1.20538   1.21585
 Alpha virt. eigenvalues --    1.21781   1.22590   1.23270   1.24025   1.49542
 Alpha virt. eigenvalues --    1.49576   1.49682   1.49952   1.79276   1.79356
 Alpha virt. eigenvalues --    1.88824   1.89565   1.89645   1.91012   1.92782
 Alpha virt. eigenvalues --    1.94543   2.02861   2.02879   2.03082   2.03270
 Alpha virt. eigenvalues --    2.10728   2.10812   2.10829   2.11168   2.16309
 Alpha virt. eigenvalues --    2.16569   2.24352   2.24532   2.24579   2.24585
 Alpha virt. eigenvalues --    2.24853   2.24913   2.25453   2.25962   2.51821
 Alpha virt. eigenvalues --    2.51944   2.53399   2.53953   2.54029   2.54044
 Alpha virt. eigenvalues --    2.74560   2.74562   2.74730   2.74937   3.58738
 Alpha virt. eigenvalues --    3.58801   3.59300   3.60491   3.67596   3.67910
 Alpha virt. eigenvalues --    3.68530   3.70080   3.89494   3.89555
          Condensed to atoms (all electrons):
 Mulliken charges:
               1
     1  C   -0.228990
     2  C   -0.336584
     3  C   -0.228956
     4  C   -0.222844
     5  Br  -0.122910
     6  H    0.116498
     7  H    0.126795
     8  H    0.138660
     9  H    0.126788
    10  H    0.116505
    11  H    0.138634
    12  H    0.129134
    13  H    0.118147
    14  H    0.129133
    15  C   -0.228992
    16  C   -0.336602
    17  C   -0.228952
    18  C   -0.222838
    19  Br  -0.122915
    20  H    0.116490
    21  H    0.126792
    22  H    0.138664
    23  H    0.126788
    24  H    0.116503
    25  H    0.138630
    26  H    0.118155
    27  H    0.129137
    28  H    0.129130
 Sum of Mulliken charges =   0.00000
 Mulliken charges with hydrogens summed into heavy atoms:
               1
     1  C    0.152963
     2  C   -0.336584
     3  C    0.152971
     4  C    0.153571
     5  Br  -0.122910
    15  C    0.152954
    16  C   -0.336602
    17  C    0.152970
    18  C    0.153583
    19  Br  -0.122915
 Electronic spatial extent (au):  <R**2>=           3805.4946
 Charge=              0.0000 electrons
 Dipole moment (field-independent basis, Debye):
    X=             -0.0003    Y=             -0.0000    Z=              0.0002  Tot=              0.0004
   1 Symmetry operations used in ECPInt.
 ECPInt:  NShTT=    5886 NPrTT=   26344 LenC2=    5623 LenP2D=   17556.
 LDataN:  DoStor=T MaxTD1= 5 Len=  102
 Calling FoFJK, ICntrl=      2127 FMM=F ISym2X=0 I1Cent= 0 IOpClX= 0 NMat=1 NMatS=1 NMatT=0.

 GradGradGradGradGradGradGradGradGradGradGradGradGradGradGradGradGradGrad
 FormGI is forming the generalized inverse of G from B-inverse, IUseBI=4.
 Internal  Forces:  Max     0.011253953 RMS     0.003357415
 Step number   1 out of a maximum of  168
 All quantities printed in internal units (Hartrees-Bohrs-Radians)
 Mixed Optimization -- RFO/linear search
 Second derivative matrix not updated -- first step.
 ITU=  0
     Eigenvalues ---    0.00312   0.00353   0.00358   0.00368   0.00518
     Eigenvalues ---    0.00518   0.00993   0.01346   0.01397   0.01422
     Eigenvalues ---    0.02045   0.02328   0.03291   0.03542   0.03846
     Eigenvalues ---    0.03943   0.04244   0.05154   0.05312   0.05623
     Eigenvalues ---    0.05624   0.05631   0.05640   0.05800   0.05801
     Eigenvalues ---    0.05990   0.05997   0.06222   0.06927   0.07300
     Eigenvalues ---    0.08849   0.08897   0.09890   0.11179   0.11194
     Eigenvalues ---    0.11201   0.11218   0.11457   0.11546   0.11643
     Eigenvalues ---    0.11894   0.12680   0.13682   0.14410   0.16000
     Eigenvalues ---    0.16000   0.16000   0.16000   0.16000   0.16000
     Eigenvalues ---    0.17335   0.17608   0.18181   0.18444   0.27175
     Eigenvalues ---    0.28690   0.29145   0.29234   0.30485   0.30486
     Eigenvalues ---    0.30979   0.31227   0.33326   0.34856   0.34857
     Eigenvalues ---    0.34900   0.34900   0.34900   0.34900   0.34918
     Eigenvalues ---    0.34919   0.34919   0.34920   0.34943   0.34943
     Eigenvalues ---    0.34944   0.34944   0.34987
 Linear search not attempted -- first point.
 Iteration  1 RMS(Cart)=  0.01886116 RMS(Int)=  0.00011192
 Iteration  2 RMS(Cart)=  0.00018195 RMS(Int)=  0.00002996
 Iteration  3 RMS(Cart)=  0.00000002 RMS(Int)=  0.00002996
 Variable       Old X    -DE/DX   Delta X   Delta X   Delta X     New X
                                 (Linear)    (Quad)   (Total)
    R1        2.86763   0.00467   0.00000   0.01605   0.01602   2.88366
    R2        2.05838   0.01125   0.00000   0.03169   0.03169   2.09006
    R3        2.05766   0.00920   0.00000   0.02587   0.02587   2.08353
    R4        2.05694   0.00973   0.00000   0.02735   0.02735   2.08429
    R5        2.86765   0.00467   0.00000   0.01604   0.01601   2.88366
    R6        2.87006   0.00416   0.00000   0.01338   0.01338   2.88344
    R7        3.76405   0.00268   0.00000   0.01785   0.01785   3.78190
    R8        2.05767   0.00919   0.00000   0.02586   0.02586   2.08353
    R9        2.05837   0.01125   0.00000   0.03170   0.03170   2.09007
   R10        2.05696   0.00973   0.00000   0.02732   0.02732   2.08428
   R11        2.05807   0.00909   0.00000   0.02559   0.02559   2.08366
   R12        2.05908   0.01090   0.00000   0.03074   0.03074   2.08981
   R13        2.05805   0.00910   0.00000   0.02561   0.02561   2.08366
   R14        5.80372   0.00059   0.00000   0.02253   0.02255   5.82626
   R15        5.81451   0.00060   0.00000   0.02233   0.02234   5.83685
   R16        5.80459   0.00059   0.00000   0.02241   0.02242   5.82701
   R17        5.81479   0.00060   0.00000   0.02230   0.02231   5.83710
   R18        2.86762   0.00468   0.00000   0.01608   0.01606   2.88368
   R19        2.05838   0.01125   0.00000   0.03169   0.03169   2.09007
   R20        2.05766   0.00920   0.00000   0.02587   0.02587   2.08353
   R21        2.05694   0.00973   0.00000   0.02734   0.02734   2.08429
   R22        2.86764   0.00467   0.00000   0.01606   0.01603   2.88367
   R23        2.87005   0.00416   0.00000   0.01338   0.01338   2.88343
   R24        3.76402   0.00268   0.00000   0.01786   0.01786   3.78188
   R25        2.05767   0.00919   0.00000   0.02586   0.02586   2.08354
   R26        2.05838   0.01125   0.00000   0.03169   0.03169   2.09007
   R27        2.05697   0.00973   0.00000   0.02731   0.02731   2.08428
   R28        2.05909   0.01089   0.00000   0.03072   0.03072   2.08981
   R29        2.05806   0.00909   0.00000   0.02560   0.02560   2.08366
   R30        2.05807   0.00909   0.00000   0.02559   0.02559   2.08366
    A1        1.90941  -0.00042   0.00000  -0.00745  -0.00744   1.90196
    A2        1.93862   0.00048   0.00000   0.00544   0.00542   1.94404
    A3        1.93150   0.00011   0.00000   0.00678   0.00677   1.93827
    A4        1.89319  -0.00014   0.00000  -0.00302  -0.00301   1.89018
    A5        1.89120  -0.00017   0.00000  -0.00137  -0.00136   1.88984
    A6        1.89891   0.00012   0.00000  -0.00069  -0.00073   1.89817
    A7        1.94926  -0.00081   0.00000  -0.00595  -0.00601   1.94325
    A8        1.95519   0.00018   0.00000  -0.00317  -0.00320   1.95199
    A9        1.86805   0.00045   0.00000   0.00492   0.00495   1.87300
   A10        1.95534   0.00017   0.00000  -0.00328  -0.00332   1.95203
   A11        1.86777   0.00046   0.00000   0.00508   0.00511   1.87288
   A12        1.86156  -0.00041   0.00000   0.00380   0.00379   1.86535
   A13        1.93860   0.00048   0.00000   0.00544   0.00542   1.94402
   A14        1.90942  -0.00041   0.00000  -0.00741  -0.00740   1.90202
   A15        1.93149   0.00010   0.00000   0.00676   0.00676   1.93824
   A16        1.89319  -0.00014   0.00000  -0.00302  -0.00302   1.89018
   A17        1.89895   0.00012   0.00000  -0.00074  -0.00079   1.89816
   A18        1.89117  -0.00017   0.00000  -0.00134  -0.00133   1.88985
   A19        1.93793   0.00076   0.00000   0.00539   0.00537   1.94330
   A20        1.91065  -0.00099   0.00000  -0.00757  -0.00756   1.90308
   A21        1.93793   0.00077   0.00000   0.00543   0.00541   1.94334
   A22        1.89184  -0.00007   0.00000  -0.00196  -0.00195   1.88990
   A23        1.89248  -0.00043   0.00000   0.00040   0.00036   1.89284
   A24        1.89183  -0.00007   0.00000  -0.00195  -0.00194   1.88989
   A25        2.19279  -0.00094   0.00000  -0.01552  -0.01560   2.17719
   A26        2.19095  -0.00094   0.00000  -0.01548  -0.01555   2.17539
   A27        0.83701   0.00081   0.00000   0.00136   0.00130   0.83831
   A28        2.60314  -0.00004   0.00000  -0.00002   0.00004   2.60318
   A29        2.60043  -0.00004   0.00000   0.00001   0.00008   2.60051
   A30        1.90938  -0.00041   0.00000  -0.00740  -0.00740   1.90199
   A31        1.93860   0.00048   0.00000   0.00545   0.00544   1.94404
   A32        1.93150   0.00010   0.00000   0.00673   0.00673   1.93822
   A33        1.89320  -0.00014   0.00000  -0.00303  -0.00302   1.89018
   A34        1.89122  -0.00017   0.00000  -0.00137  -0.00136   1.88986
   A35        1.89892   0.00012   0.00000  -0.00070  -0.00074   1.89818
   A36        1.94925  -0.00081   0.00000  -0.00595  -0.00601   1.94325
   A37        1.95518   0.00018   0.00000  -0.00315  -0.00318   1.95200
   A38        1.86793   0.00046   0.00000   0.00501   0.00504   1.87297
   A39        1.95534   0.00018   0.00000  -0.00328  -0.00331   1.95203
   A40        1.86776   0.00046   0.00000   0.00508   0.00511   1.87287
   A41        1.86171  -0.00042   0.00000   0.00367   0.00367   1.86538
   A42        1.93857   0.00048   0.00000   0.00547   0.00546   1.94402
   A43        1.90941  -0.00041   0.00000  -0.00739  -0.00739   1.90202
   A44        1.93147   0.00010   0.00000   0.00675   0.00675   1.93822
   A45        1.89320  -0.00014   0.00000  -0.00303  -0.00303   1.89018
   A46        1.89896   0.00012   0.00000  -0.00075  -0.00079   1.89817
   A47        1.89121  -0.00017   0.00000  -0.00136  -0.00135   1.88986
   A48        1.91063  -0.00099   0.00000  -0.00758  -0.00757   1.90306
   A49        1.93791   0.00077   0.00000   0.00545   0.00544   1.94334
   A50        1.93788   0.00077   0.00000   0.00544   0.00542   1.94330
   A51        1.89187  -0.00007   0.00000  -0.00198  -0.00197   1.88990
   A52        1.89186  -0.00007   0.00000  -0.00197  -0.00196   1.88990
   A53        1.89250  -0.00043   0.00000   0.00038   0.00034   1.89284
   A54        0.83698   0.00081   0.00000   0.00136   0.00130   0.83828
   A55        2.19279  -0.00095   0.00000  -0.01557  -0.01564   2.17715
   A56        2.19090  -0.00094   0.00000  -0.01549  -0.01556   2.17533
   A57        2.60335  -0.00004   0.00000  -0.00004   0.00002   2.60337
   A58        2.60045  -0.00004   0.00000  -0.00000   0.00006   2.60051
    D1       -1.11510  -0.00007   0.00000  -0.00238  -0.00239  -1.11748
    D2        1.09463  -0.00034   0.00000  -0.01407  -0.01406   1.08057
    D3        3.12923  -0.00046   0.00000  -0.00822  -0.00822   3.12100
    D4        3.07865   0.00007   0.00000   0.00276   0.00277   3.08142
    D5       -0.99481  -0.00019   0.00000  -0.00892  -0.00890  -1.00371
    D6        1.03979  -0.00031   0.00000  -0.00308  -0.00307   1.03672
    D7        0.96747  -0.00048   0.00000  -0.00459  -0.00462   0.96285
    D8       -3.10600  -0.00074   0.00000  -0.01628  -0.01629  -3.12229
    D9       -1.07140  -0.00086   0.00000  -0.01043  -0.01046  -1.08185
   D10        0.19763  -0.00023   0.00000  -0.00827  -0.00825   0.18938
   D11        2.29114  -0.00079   0.00000  -0.01419  -0.01418   2.27696
   D12       -1.93694  -0.00098   0.00000  -0.01893  -0.01892  -1.95586
   D13       -3.07961  -0.00007   0.00000  -0.00268  -0.00269  -3.08230
   D14        1.11414   0.00007   0.00000   0.00245   0.00245   1.11659
   D15       -0.96839   0.00047   0.00000   0.00460   0.00463  -0.96376
   D16        0.99394   0.00019   0.00000   0.00895   0.00892   1.00286
   D17       -1.09550   0.00034   0.00000   0.01407   0.01406  -1.08144
   D18        3.10516   0.00074   0.00000   0.01623   0.01624   3.12140
   D19       -1.04057   0.00031   0.00000   0.00307   0.00306  -1.03751
   D20       -3.13001   0.00045   0.00000   0.00820   0.00820  -3.12181
   D21        1.07065   0.00086   0.00000   0.01035   0.01037   1.08102
   D22        0.98473   0.00015   0.00000   0.00270   0.00269   0.98742
   D23       -1.10341   0.00040   0.00000   0.00663   0.00664  -1.09677
   D24        3.09166   0.00064   0.00000   0.01052   0.01054   3.10220
   D25       -3.09203  -0.00064   0.00000  -0.01047  -0.01049  -3.10253
   D26        1.10302  -0.00040   0.00000  -0.00654  -0.00655   1.09646
   D27       -0.98510  -0.00016   0.00000  -0.00265  -0.00265  -0.98775
   D28       -1.05378  -0.00024   0.00000  -0.00382  -0.00384  -1.05762
   D29        3.14127   0.00000   0.00000   0.00011   0.00011   3.14137
   D30        1.05315   0.00024   0.00000   0.00400   0.00401   1.05716
   D31        0.52169  -0.00037   0.00000   0.00481   0.00473   0.52643
   D32        1.56824  -0.00009   0.00000  -0.00623  -0.00616   1.56207
   D33       -1.57024   0.00010   0.00000   0.00649   0.00643  -1.56382
   D34       -0.52370   0.00037   0.00000  -0.00454  -0.00447  -0.52817
   D35        2.61730  -0.00013   0.00000   0.00568   0.00560   2.62291
   D36       -2.61934   0.00015   0.00000  -0.00536  -0.00529  -2.62463
   D37       -0.18997   0.00024   0.00000   0.00811   0.00809  -0.18188
   D38        1.94460   0.00098   0.00000   0.01873   0.01872   1.96332
   D39       -2.28347   0.00079   0.00000   0.01396   0.01396  -2.26951
   D40        1.13717  -0.00035   0.00000  -0.00172  -0.00169   1.13547
   D41       -0.75556  -0.00006   0.00000   0.00862   0.00861  -0.74695
   D42       -1.14716   0.00036   0.00000   0.00196   0.00193  -1.14523
   D43        0.74949   0.00006   0.00000  -0.00846  -0.00845   0.74104
   D44       -0.75573  -0.00006   0.00000   0.00863   0.00862  -0.74711
   D45        1.13690  -0.00035   0.00000  -0.00169  -0.00166   1.13524
   D46        0.74957   0.00005   0.00000  -0.00848  -0.00847   0.74110
   D47       -1.14710   0.00037   0.00000   0.00200   0.00197  -1.14513
   D48       -1.11513  -0.00007   0.00000  -0.00232  -0.00233  -1.11746
   D49        1.09458  -0.00033   0.00000  -0.01398  -0.01397   1.08061
   D50        3.12928  -0.00046   0.00000  -0.00822  -0.00822   3.12106
   D51        3.07862   0.00007   0.00000   0.00280   0.00281   3.08143
   D52       -0.99486  -0.00019   0.00000  -0.00886  -0.00883  -1.00369
   D53        1.03985  -0.00031   0.00000  -0.00310  -0.00309   1.03676
   D54        0.96744  -0.00047   0.00000  -0.00453  -0.00456   0.96288
   D55       -3.10604  -0.00074   0.00000  -0.01619  -0.01620  -3.12223
   D56       -1.07134  -0.00086   0.00000  -0.01043  -0.01045  -1.08179
   D57        0.19746  -0.00023   0.00000  -0.00828  -0.00827   0.18919
   D58        2.29095  -0.00078   0.00000  -0.01417  -0.01416   2.27679
   D59       -1.93710  -0.00098   0.00000  -0.01894  -0.01893  -1.95602
   D60       -3.07935  -0.00007   0.00000  -0.00277  -0.00278  -3.08213
   D61        1.11440   0.00007   0.00000   0.00234   0.00234   1.11674
   D62       -0.96816   0.00047   0.00000   0.00452   0.00455  -0.96362
   D63        0.99421   0.00019   0.00000   0.00882   0.00879   1.00300
   D64       -1.09522   0.00033   0.00000   0.01393   0.01392  -1.08130
   D65        3.10540   0.00073   0.00000   0.01611   0.01612   3.12152
   D66       -1.04047   0.00032   0.00000   0.00308   0.00307  -1.03740
   D67       -3.12990   0.00046   0.00000   0.00819   0.00819  -3.12171
   D68        1.07072   0.00086   0.00000   0.01037   0.01040   1.08112
   D69       -1.10358   0.00040   0.00000   0.00669   0.00669  -1.09688
   D70        3.09146   0.00064   0.00000   0.01061   0.01063   3.10209
   D71        0.98455   0.00016   0.00000   0.00276   0.00276   0.98731
   D72        1.10283  -0.00040   0.00000  -0.00646  -0.00647   1.09636
   D73       -0.98532  -0.00015   0.00000  -0.00254  -0.00254  -0.98785
   D74       -3.09223  -0.00064   0.00000  -0.01038  -0.01040  -3.10263
   D75        3.14116   0.00000   0.00000   0.00012   0.00012   3.14128
   D76        1.05301   0.00024   0.00000   0.00404   0.00406   1.05706
   D77       -1.05390  -0.00024   0.00000  -0.00380  -0.00381  -1.05771
   D78        0.52162  -0.00037   0.00000   0.00483   0.00475   0.52637
   D79        1.56810  -0.00009   0.00000  -0.00623  -0.00616   1.56194
   D80       -1.57025   0.00010   0.00000   0.00647   0.00640  -1.56384
   D81       -0.52377   0.00037   0.00000  -0.00459  -0.00451  -0.52828
   D82        2.61723  -0.00013   0.00000   0.00570   0.00563   2.62286
   D83       -2.61948   0.00015   0.00000  -0.00535  -0.00528  -2.62476
   D84       -0.19000   0.00024   0.00000   0.00812   0.00810  -0.18190
   D85        1.94452   0.00098   0.00000   0.01877   0.01876   1.96328
   D86       -2.28350   0.00078   0.00000   0.01398   0.01397  -2.26954
         Item               Value     Threshold  Converged?
 Maximum Force            0.011254     0.000015     NO 
 RMS     Force            0.003357     0.000010     NO 
 Maximum Displacement     0.073377     0.000060     NO 
 RMS     Displacement     0.018829     0.000040     NO 
 GradGradGradGradGradGradGradGradGradGradGradGradGradGradGradGradGradGrad

                    Distance matrix (angstroms):
                    1          2          3          4          5
     1  C    0.000000
     2  C    1.525966   0.000000
     3  C    2.520296   1.525966   0.000000
     4  C    2.527693   1.525850   2.527728   0.000000
     5  Br   2.855100   2.001293   2.854970   2.847183   0.000000
     6  H    1.106014   2.156239   2.787466   2.779095   3.859612
     7  H    1.102557   2.184306   3.486282   2.779588   3.012667
     8  H    1.102958   2.180458   2.747085   3.489999   3.033486
     9  H    3.486296   2.184293   1.102559   2.779243   3.012927
    10  H    2.787086   2.156280   1.106017   2.779595   3.859546
    11  H    2.747463   2.180440   1.102954   3.490004   3.032823
    12  H    2.771768   2.183725   3.491795   1.102624   3.013634
    13  H    2.787627   2.156868   2.787525   1.105881   3.854030
    14  H    3.491782   2.183752   2.771992   1.102625   3.013405
    15  C    5.205437   5.382936   5.784932   6.665145   4.069614
    16  C    5.383113   5.401499   5.385951   6.809518   4.310518
    17  C    5.785070   5.385925   5.208852   6.669421   4.073930
    18  C    6.665375   6.809569   6.669528   8.259538   5.831033
    19  Br   4.069926   4.310665   4.074060   5.831173   3.999565
    20  H    6.197102   6.275296   6.705653   7.470828   4.747720
    21  H    5.228292   5.707352   6.188686   7.008489   4.655815
    22  H    4.461414   4.532527   5.121852   5.712004   3.083125
    23  H    6.189758   5.712872   5.234581   7.016160   4.662875
    24  H    6.705595   6.277534   6.199595   7.474292   4.750994
    25  H    5.123429   4.535734   4.462884   5.716720   3.088729
    26  H    7.489249   7.555643   7.492770   8.946395   6.347851
    27  H    7.040604   7.097686   6.717658   8.570921   6.282929
    28  H    6.711906   7.096168   7.044500   8.568622   6.280911
                    6          7          8          9         10
     6  H    0.000000
     7  H    1.790157   0.000000
     8  H    1.790266   1.792828   0.000000
     9  H    3.804886   4.340196   3.757219   0.000000
    10  H    2.597169   3.804815   3.118541   1.790159   0.000000
    11  H    3.119779   3.757254   2.512008   1.792820   1.790266
    12  H    3.123176   2.567083   3.787023   3.788695   3.795420
    13  H    2.581047   3.147256   3.795871   3.146485   2.581440
    14  H    3.795116   3.788867   4.340044   2.566906   3.124143
    15  C    6.197172   5.228265   4.461563   6.189657   6.705445
    16  C    6.275550   5.707493   4.532842   5.712926   6.277557
    17  C    6.705833   6.188793   5.122150   5.234612   6.199597
    18  C    7.471175   7.008662   5.712355   7.016287   7.474409
    19  Br   4.748125   4.656095   3.083522   4.663014   4.751105
    20  H    7.221708   6.142982   5.518068   7.003358   7.675277
    21  H    6.143102   5.165830   4.402728   6.751111   7.002216
    22  H    5.517958   4.402589   3.891796   5.503626   6.080026
    23  H    7.003506   6.751184   5.503873   5.176464   6.148013
    24  H    7.675461   7.002342   6.080345   6.148037   7.223466
    25  H    6.081441   5.505397   4.631622   4.405955   5.518625
    26  H    8.362017   7.745100   6.591357   7.751815   8.364744
    27  H    7.760312   7.529514   6.074487   7.003828   7.458828
    28  H    7.454266   6.993563   5.692733   7.536621   7.763461
                   11         12         13         14         15
    11  H    0.000000
    12  H    4.340004   0.000000
    13  H    3.796007   1.789920   0.000000
    14  H    3.786977   1.789182   1.789919   0.000000
    15  C    5.123333   6.711634   7.489075   7.040347   0.000000
    16  C    4.535782   7.096078   7.555672   7.097579   1.525977
    17  C    4.462897   7.044340   7.492743   6.717490   2.520305
    18  C    5.716857   8.568569   8.946498   8.570854   2.527710
    19  Br   3.088861   6.281050   6.348072   6.282998   2.855066
    20  H    6.081325   7.453845   8.361734   7.759937   1.106016
    21  H    5.505333   6.993362   7.744978   7.529317   1.102557
    22  H    4.631358   5.692361   6.591037   6.074132   1.102958
    23  H    4.405927   7.536446   7.751777   7.003627   3.486304
    24  H    5.518637   7.763283   8.364700   7.458650   2.787172
    25  H    3.890453   6.079650   6.594862   5.697881   2.747381
    26  H    6.594928   9.190995   9.711014   9.192995   2.787678
    27  H    5.698066   9.005145   9.193173   8.828283   3.491797
    28  H    6.079851   8.822933   9.191159   9.005132   2.771736
                   16         17         18         19         20
    16  C    0.000000
    17  C    1.525971   0.000000
    18  C    1.525847   2.527736   0.000000
    19  Br   2.001284   2.854956   2.847199   0.000000
    20  H    2.156267   2.787482   2.779157   3.859596   0.000000
    21  H    2.184315   3.486291   2.779599   3.012647   1.790160
    22  H    2.180436   2.747069   3.489991   3.033370   1.790278
    23  H    2.184300   1.102559   2.779316   3.012851   3.804945
    24  H    2.156290   1.106017   2.779548   3.859535   2.597273
    25  H    2.180423   1.102954   3.489996   3.032840   3.119661
    26  H    2.156849   2.787468   1.105878   3.854029   2.581155
    27  H    2.183751   2.772046   1.102625   3.013378   3.795199
    28  H    2.183722   3.491804   1.102625   3.013712   3.123162
                   21         22         23         24         25
    21  H    0.000000
    22  H    1.792829   0.000000
    23  H    4.340203   3.757155   0.000000
    24  H    3.804881   3.118658   1.790159   0.000000
    25  H    3.757189   2.511893   1.792822   1.790275   0.000000
    26  H    3.147328   3.795904   3.146509   2.581321   3.795921
    27  H    3.788852   4.340025   2.567040   3.124133   3.787040
    28  H    2.567043   3.786978   3.788778   3.795366   4.339993
                   26         27         28
    26  H    0.000000
    27  H    1.789924   0.000000
    28  H    1.789923   1.789183   0.000000
 Framework group  C1[X(C8H18Br2)]
 Deg. of freedom    78
                         Standard orientation:                         
 ---------------------------------------------------------------------
 Center     Atomic      Atomic             Coordinates (Angstroms)
 Number     Number       Type             X           Y           Z
 ---------------------------------------------------------------------
      1          6           0       -2.263756    1.284563   -1.258707
      2          6           0       -2.651400    0.514041    0.000103
      3          6           0       -2.267144    1.281885    1.261585
      4          6           0       -4.127768    0.128622   -0.002327
      5         35           0       -1.605490   -1.192196   -0.000157
      6          1           0       -2.843524    2.225658   -1.297134
      7          1           0       -2.485203    0.704101   -2.169563
      8          1           0       -1.190642    1.539327   -1.252643
      9          1           0       -2.491863    0.699834    2.170626
     10          1           0       -2.846316    2.223350    1.300033
     11          1           0       -1.193826    1.535837    1.259361
     12          1           0       -4.387458   -0.459706   -0.897990
     13          1           0       -4.740875    1.048988   -0.002024
     14          1           0       -4.389871   -0.461898    0.891189
     15          6           0        2.263522   -1.284547   -1.258717
     16          6           0        2.651353   -0.514070    0.000075
     17          6           0        2.267090   -1.281875    1.261584
     18          6           0        4.127758   -0.128803   -0.002453
     19         35           0        1.605581    1.192241   -0.000132
     20          1           0        2.843143   -2.225733   -1.297196
     21          1           0        2.484981   -0.704113   -2.169588
     22          1           0        1.190365   -1.539127   -1.252552
     23          1           0        2.491793   -0.699792    2.170608
     24          1           0        2.846261   -2.223338    1.300074
     25          1           0        1.193769   -1.535811    1.259337
     26          1           0        4.740750   -1.049241   -0.002086
     27          1           0        4.389959    0.461779    0.890994
     28          1           0        4.387471    0.459408   -0.898186
 ---------------------------------------------------------------------
 Rotational constants (GHZ):           1.1205895           0.3294619           0.2868597
   212 basis functions,   432 primitive gaussians,   226 cartesian basis functions
    68 alpha electrons       68 beta electrons
       nuclear repulsion energy      1226.0599506858 Hartrees.
 NAtoms=   28 NActive=   28 NUniq=   28 SFac= 1.00D+00 NAtFMM=   60 NAOKFM=F Big=F
 Nuclear repulsion after empirical dispersion term =     1226.0400517239 Hartrees.
   1 Symmetry operations used in ECPInt.
 ECPInt:  NShTT=    5886 NPrTT=   26344 LenC2=    5616 LenP2D=   17469.
 LDataN:  DoStor=T MaxTD1= 4 Len=   56
 Initial guess from the checkpoint file:  "46.chk"
 B after Tr=    -0.000000    0.000000    0.000000
         Rot=    0.999996   -0.000000   -0.000000    0.002760 Ang=  -0.32 deg.
 ExpMin= 1.22D-01 ExpMax= 1.13D+05 ExpMxC= 1.70D+04 IAcc=3 IRadAn=         5 AccDes= 0.00D+00
 Harris functional with IExCor= 4639 and IRadAn=       5 diagonalized for initial guess.
 HarFok:  IExCor= 4639 AccDes= 0.00D+00 IRadAn=         5 IDoV= 1 UseB2=F ITyADJ=14
 ICtDFT=  3500011 ScaDFX=  1.000000  1.000000  1.000000  1.000000
 FoFCou: FMM=F IPFlag=           0 FMFlag=      100000 FMFlg1=           0
         NFxFlg=           0 DoJE=T BraDBF=F KetDBF=T FulRan=T
         wScrn=  0.000000 ICntrl=       500 IOpCl=  0 I1Cent=   200000004 NGrid=           0
         NMat0=    1 NMatS0=      1 NMatT0=    0 NMatD0=    1 NMtDS0=    0 NMtDT0=    0
 Petite list used in FoFCou.
     Accept linear search using points  3 and  4.
     Minimum is close to point  2 DX=  1.46D-05 DF=  0.00D+00 DXR=  1.46D-05 DFR=  0.00D+00 which will be used.
 SCF Done:  E(RwB97XD) =  -5463.17338562     a.u. after    5 cycles
            Convg  =    0.8175D-09                    31 Fock formations.
              S**2 =  0.0000                  -V/T =  2.0017
   1 Symmetry operations used in ECPInt.
 ECPInt:  NShTT=    5886 NPrTT=   26344 LenC2=    5616 LenP2D=   17469.
 LDataN:  DoStor=T MaxTD1= 5 Len=  102
 Calling FoFJK, ICntrl=      2127 FMM=F ISym2X=0 I1Cent= 0 IOpClX= 0 NMat=1 NMatS=1 NMatT=0.

 GradGradGradGradGradGradGradGradGradGradGradGradGradGradGradGradGradGrad
 Using GEDIIS/GDIIS optimizer.
 FormGI is forming the generalized inverse of G from B-inverse, IUseBI=4.
 Internal  Forces:  Max     0.001424402 RMS     0.000292558
 Step number   2 out of a maximum of  168
 All quantities printed in internal units (Hartrees-Bohrs-Radians)
 Mixed Optimization -- En-DIIS/RFO-DIIS
 Trust test= 9.71D-01 RLast= 1.65D-01 DXMaxT set to 4.94D-01
 ITU=  1  0
 Use linear search instead of GDIIS.
     Eigenvalues ---    0.00312   0.00352   0.00358   0.00368   0.00518
     Eigenvalues ---    0.00518   0.01004   0.01348   0.01393   0.01417
     Eigenvalues ---    0.02032   0.02284   0.03261   0.03514   0.03902
     Eigenvalues ---    0.03912   0.04308   0.05061   0.05303   0.05562
     Eigenvalues ---    0.05565   0.05612   0.05630   0.05833   0.05833
     Eigenvalues ---    0.05984   0.05991   0.06178   0.06950   0.07259
     Eigenvalues ---    0.08826   0.08862   0.09867   0.11211   0.11232
     Eigenvalues ---    0.11240   0.11259   0.11515   0.11605   0.11705
     Eigenvalues ---    0.11952   0.12780   0.13742   0.14617   0.15996
     Eigenvalues ---    0.16000   0.16000   0.16000   0.16000   0.16006
     Eigenvalues ---    0.17338   0.17631   0.18211   0.18462   0.27165
     Eigenvalues ---    0.28728   0.29235   0.29426   0.30485   0.30603
     Eigenvalues ---    0.31011   0.31298   0.33336   0.34833   0.34857
     Eigenvalues ---    0.34876   0.34900   0.34900   0.34900   0.34919
     Eigenvalues ---    0.34919   0.34919   0.34930   0.34943   0.34943
     Eigenvalues ---    0.34944   0.34954   0.36468
 Quartic linear search produced a step of  0.00786.
 Iteration  1 RMS(Cart)=  0.00790245 RMS(Int)=  0.00004196
 Iteration  2 RMS(Cart)=  0.00006277 RMS(Int)=  0.00002206
 Iteration  3 RMS(Cart)=  0.00000000 RMS(Int)=  0.00002206
 Variable       Old X    -DE/DX   Delta X   Delta X   Delta X     New X
                                 (Linear)    (Quad)   (Total)
    R1        2.88366  -0.00066   0.00013  -0.00202  -0.00192   2.88174
    R2        2.09006   0.00006   0.00025   0.00088   0.00113   2.09119
    R3        2.08353  -0.00008   0.00020   0.00035   0.00055   2.08408
    R4        2.08429  -0.00022   0.00021  -0.00003   0.00019   2.08448
    R5        2.88366  -0.00066   0.00013  -0.00202  -0.00192   2.88174
    R6        2.88344  -0.00089   0.00011  -0.00265  -0.00255   2.88089
    R7        3.78190  -0.00142   0.00014  -0.00955  -0.00941   3.77249
    R8        2.08353  -0.00008   0.00020   0.00035   0.00056   2.08409
    R9        2.09007   0.00006   0.00025   0.00087   0.00112   2.09119
   R10        2.08428  -0.00022   0.00021  -0.00003   0.00019   2.08447
   R11        2.08366  -0.00011   0.00020   0.00025   0.00045   2.08411
   R12        2.08981   0.00004   0.00024   0.00080   0.00104   2.09085
   R13        2.08366  -0.00011   0.00020   0.00025   0.00045   2.08411
   R14        5.82626   0.00021   0.00018   0.01867   0.01886   5.84512
   R15        5.83685   0.00020   0.00018   0.01814   0.01833   5.85518
   R16        5.82701   0.00020   0.00018   0.01858   0.01877   5.84579
   R17        5.83710   0.00020   0.00018   0.01811   0.01829   5.85540
   R18        2.88368  -0.00066   0.00013  -0.00204  -0.00194   2.88174
   R19        2.09007   0.00006   0.00025   0.00088   0.00112   2.09119
   R20        2.08353  -0.00008   0.00020   0.00035   0.00055   2.08408
   R21        2.08429  -0.00022   0.00021  -0.00003   0.00019   2.08448
   R22        2.88367  -0.00066   0.00013  -0.00203  -0.00193   2.88174
   R23        2.88343  -0.00089   0.00011  -0.00265  -0.00255   2.88089
   R24        3.78188  -0.00142   0.00014  -0.00953  -0.00939   3.77249
   R25        2.08354  -0.00008   0.00020   0.00035   0.00056   2.08409
   R26        2.09007   0.00006   0.00025   0.00087   0.00112   2.09119
   R27        2.08428  -0.00022   0.00021  -0.00003   0.00019   2.08447
   R28        2.08981   0.00004   0.00024   0.00080   0.00104   2.09085
   R29        2.08366  -0.00011   0.00020   0.00024   0.00045   2.08411
   R30        2.08366  -0.00011   0.00020   0.00025   0.00045   2.08411
    A1        1.90196  -0.00014  -0.00006  -0.00273  -0.00278   1.89919
    A2        1.94404  -0.00005   0.00004  -0.00011  -0.00007   1.94398
    A3        1.93827   0.00017   0.00005   0.00454   0.00454   1.94280
    A4        1.89018   0.00000  -0.00002  -0.00139  -0.00142   1.88876
    A5        1.88984  -0.00013  -0.00001   0.00011   0.00011   1.88995
    A6        1.89817   0.00014  -0.00001  -0.00055  -0.00053   1.89765
    A7        1.94325   0.00014  -0.00005   0.00257   0.00248   1.94573
    A8        1.95199  -0.00004  -0.00003  -0.00146  -0.00147   1.95052
    A9        1.87300   0.00009   0.00004   0.00073   0.00077   1.87378
   A10        1.95203  -0.00004  -0.00003  -0.00148  -0.00149   1.95054
   A11        1.87288   0.00009   0.00004   0.00077   0.00082   1.87369
   A12        1.86535  -0.00025   0.00003  -0.00109  -0.00108   1.86427
   A13        1.94402  -0.00005   0.00004  -0.00011  -0.00007   1.94396
   A14        1.90202  -0.00014  -0.00006  -0.00275  -0.00280   1.89922
   A15        1.93824   0.00017   0.00005   0.00458   0.00458   1.94282
   A16        1.89018   0.00000  -0.00002  -0.00139  -0.00142   1.88876
   A17        1.89816   0.00013  -0.00001  -0.00057  -0.00055   1.89762
   A18        1.88985  -0.00013  -0.00001   0.00012   0.00011   1.88996
   A19        1.94330   0.00002   0.00004   0.00042   0.00046   1.94377
   A20        1.90308  -0.00013  -0.00006  -0.00132  -0.00138   1.90170
   A21        1.94334   0.00002   0.00004   0.00040   0.00044   1.94378
   A22        1.88990   0.00002  -0.00002  -0.00027  -0.00028   1.88961
   A23        1.89284   0.00005   0.00000   0.00101   0.00101   1.89385
   A24        1.88989   0.00002  -0.00002  -0.00026  -0.00028   1.88961
   A25        2.17719  -0.00062  -0.00012  -0.01347  -0.01361   2.16358
   A26        2.17539  -0.00061  -0.00012  -0.01345  -0.01358   2.16181
   A27        0.83831  -0.00011   0.00001   0.00106   0.00098   0.83930
   A28        2.60318   0.00010   0.00000   0.00224   0.00222   2.60541
   A29        2.60051   0.00010   0.00000   0.00227   0.00225   2.60276
   A30        1.90199  -0.00014  -0.00006  -0.00274  -0.00279   1.89920
   A31        1.94404  -0.00005   0.00004  -0.00011  -0.00006   1.94398
   A32        1.93822   0.00017   0.00005   0.00454   0.00454   1.94276
   A33        1.89018   0.00000  -0.00002  -0.00138  -0.00141   1.88877
   A34        1.88986  -0.00013  -0.00001   0.00011   0.00011   1.88997
   A35        1.89818   0.00013  -0.00001  -0.00055  -0.00052   1.89765
   A36        1.94325   0.00014  -0.00005   0.00256   0.00247   1.94572
   A37        1.95200  -0.00004  -0.00003  -0.00146  -0.00147   1.95053
   A38        1.87297   0.00009   0.00004   0.00075   0.00080   1.87376
   A39        1.95203  -0.00004  -0.00003  -0.00148  -0.00149   1.95055
   A40        1.87287   0.00009   0.00004   0.00078   0.00083   1.87369
   A41        1.86538  -0.00025   0.00003  -0.00110  -0.00110   1.86428
   A42        1.94402  -0.00005   0.00004  -0.00011  -0.00006   1.94396
   A43        1.90202  -0.00014  -0.00006  -0.00276  -0.00280   1.89922
   A44        1.93822   0.00018   0.00005   0.00459   0.00458   1.94280
   A45        1.89018   0.00000  -0.00002  -0.00139  -0.00142   1.88876
   A46        1.89817   0.00013  -0.00001  -0.00056  -0.00054   1.89763
   A47        1.88986  -0.00013  -0.00001   0.00010   0.00010   1.88996
   A48        1.90306  -0.00012  -0.00006  -0.00130  -0.00136   1.90170
   A49        1.94334   0.00001   0.00004   0.00040   0.00044   1.94378
   A50        1.94330   0.00002   0.00004   0.00042   0.00046   1.94377
   A51        1.88990   0.00002  -0.00002  -0.00027  -0.00029   1.88961
   A52        1.88990   0.00002  -0.00002  -0.00027  -0.00029   1.88961
   A53        1.89284   0.00005   0.00000   0.00101   0.00101   1.89385
   A54        0.83828  -0.00011   0.00001   0.00106   0.00099   0.83927
   A55        2.17715  -0.00062  -0.00012  -0.01348  -0.01362   2.16353
   A56        2.17533  -0.00062  -0.00012  -0.01345  -0.01358   2.16175
   A57        2.60337   0.00010   0.00000   0.00221   0.00220   2.60557
   A58        2.60051   0.00010   0.00000   0.00226   0.00224   2.60275
    D1       -1.11748  -0.00009  -0.00002  -0.00145  -0.00147  -1.11895
    D2        1.08057  -0.00006  -0.00011  -0.00254  -0.00265   1.07792
    D3        3.12100  -0.00033  -0.00006  -0.00423  -0.00430   3.11670
    D4        3.08142   0.00003   0.00002   0.00209   0.00210   3.08352
    D5       -1.00371   0.00006  -0.00007   0.00100   0.00093  -1.00279
    D6        1.03672  -0.00021  -0.00002  -0.00068  -0.00072   1.03600
    D7        0.96285  -0.00023  -0.00004  -0.00028  -0.00034   0.96251
    D8       -3.12229  -0.00020  -0.00013  -0.00137  -0.00151  -3.12380
    D9       -1.08185  -0.00047  -0.00008  -0.00305  -0.00316  -1.08502
   D10        0.18938  -0.00017  -0.00006  -0.01820  -0.01827   0.17111
   D11        2.27696  -0.00032  -0.00011  -0.01876  -0.01889   2.25807
   D12       -1.95586  -0.00032  -0.00015  -0.02065  -0.02081  -1.97667
   D13       -3.08230  -0.00003  -0.00002  -0.00202  -0.00203  -3.08432
   D14        1.11659   0.00009   0.00002   0.00154   0.00156   1.11815
   D15       -0.96376   0.00023   0.00004   0.00035   0.00041  -0.96335
   D16        1.00286  -0.00006   0.00007  -0.00094  -0.00086   1.00200
   D17       -1.08144   0.00006   0.00011   0.00262   0.00272  -1.07871
   D18        3.12140   0.00020   0.00013   0.00143   0.00158   3.12297
   D19       -1.03751   0.00021   0.00002   0.00073   0.00077  -1.03674
   D20       -3.12181   0.00033   0.00006   0.00429   0.00436  -3.11745
   D21        1.08102   0.00047   0.00008   0.00310   0.00321   1.08423
   D22        0.98742  -0.00011   0.00002  -0.00143  -0.00140   0.98602
   D23       -1.09677  -0.00006   0.00005  -0.00051  -0.00045  -1.09722
   D24        3.10220  -0.00002   0.00008   0.00042   0.00051   3.10271
   D25       -3.10253   0.00002  -0.00008  -0.00031  -0.00041  -3.10293
   D26        1.09646   0.00006  -0.00005   0.00061   0.00055   1.09701
   D27       -0.98775   0.00011  -0.00002   0.00154   0.00151  -0.98624
   D28       -1.05762  -0.00005  -0.00003  -0.00085  -0.00088  -1.05850
   D29        3.14137   0.00000   0.00000   0.00007   0.00007   3.14144
   D30        1.05716   0.00005   0.00003   0.00100   0.00103   1.05819
   D31        0.52643   0.00045   0.00004   0.00670   0.00668   0.53311
   D32        1.56207  -0.00018  -0.00005  -0.00256  -0.00258   1.55949
   D33       -1.56382   0.00019   0.00005   0.00288   0.00290  -1.56092
   D34       -0.52817  -0.00045  -0.00004  -0.00639  -0.00636  -0.53454
   D35        2.62291   0.00032   0.00004   0.00479   0.00479   2.62770
   D36       -2.62463  -0.00031  -0.00004  -0.00448  -0.00447  -2.62910
   D37       -0.18188   0.00017   0.00006   0.01763   0.01771  -0.16417
   D38        1.96332   0.00032   0.00015   0.02010   0.02026   1.98358
   D39       -2.26951   0.00032   0.00011   0.01820   0.01833  -2.25118
   D40        1.13547  -0.00009  -0.00001   0.01337   0.01338   1.14885
   D41       -0.74695   0.00038   0.00007   0.02221   0.02226  -0.72469
   D42       -1.14523   0.00009   0.00002  -0.01295  -0.01295  -1.15818
   D43        0.74104  -0.00039  -0.00007  -0.02184  -0.02188   0.71915
   D44       -0.74711   0.00039   0.00007   0.02222   0.02226  -0.72485
   D45        1.13524  -0.00009  -0.00001   0.01339   0.01340   1.14864
   D46        0.74110  -0.00039  -0.00007  -0.02179  -0.02183   0.71927
   D47       -1.14513   0.00009   0.00002  -0.01288  -0.01289  -1.15802
   D48       -1.11746  -0.00009  -0.00002  -0.00143  -0.00145  -1.11891
   D49        1.08061  -0.00006  -0.00011  -0.00254  -0.00264   1.07797
   D50        3.12106  -0.00033  -0.00006  -0.00423  -0.00429   3.11677
   D51        3.08143   0.00003   0.00002   0.00212   0.00212   3.08355
   D52       -1.00369   0.00006  -0.00007   0.00101   0.00094  -1.00275
   D53        1.03676  -0.00021  -0.00002  -0.00068  -0.00072   1.03604
   D54        0.96288  -0.00023  -0.00004  -0.00026  -0.00032   0.96256
   D55       -3.12223  -0.00020  -0.00013  -0.00137  -0.00151  -3.12374
   D56       -1.08179  -0.00047  -0.00008  -0.00306  -0.00317  -1.08495
   D57        0.18919  -0.00017  -0.00006  -0.01819  -0.01827   0.17092
   D58        2.27679  -0.00032  -0.00011  -0.01877  -0.01890   2.25789
   D59       -1.95602  -0.00032  -0.00015  -0.02065  -0.02081  -1.97683
   D60       -3.08213  -0.00003  -0.00002  -0.00209  -0.00210  -3.08424
   D61        1.11674   0.00009   0.00002   0.00147   0.00149   1.11823
   D62       -0.96362   0.00023   0.00004   0.00029   0.00035  -0.96326
   D63        1.00300  -0.00006   0.00007  -0.00100  -0.00093   1.00208
   D64       -1.08130   0.00006   0.00011   0.00256   0.00266  -1.07864
   D65        3.12152   0.00020   0.00013   0.00139   0.00153   3.12305
   D66       -1.03740   0.00021   0.00002   0.00068   0.00072  -1.03668
   D67       -3.12171   0.00033   0.00006   0.00425   0.00431  -3.11740
   D68        1.08112   0.00047   0.00008   0.00307   0.00318   1.08429
   D69       -1.09688  -0.00006   0.00005  -0.00041  -0.00035  -1.09723
   D70        3.10209  -0.00002   0.00008   0.00052   0.00061   3.10270
   D71        0.98731  -0.00011   0.00002  -0.00133  -0.00130   0.98601
   D72        1.09636   0.00006  -0.00005   0.00069   0.00063   1.09700
   D73       -0.98785   0.00011  -0.00002   0.00162   0.00160  -0.98626
   D74       -3.10263   0.00002  -0.00008  -0.00023  -0.00032  -3.10295
   D75        3.14128   0.00000   0.00000   0.00015   0.00015   3.14143
   D76        1.05706   0.00005   0.00003   0.00109   0.00112   1.05818
   D77       -1.05771  -0.00005  -0.00003  -0.00077  -0.00080  -1.05851
   D78        0.52637   0.00045   0.00004   0.00671   0.00668   0.53306
   D79        1.56194  -0.00018  -0.00005  -0.00256  -0.00258   1.55936
   D80       -1.56384   0.00019   0.00005   0.00288   0.00290  -1.56095
   D81       -0.52828  -0.00045  -0.00004  -0.00639  -0.00636  -0.53465
   D82        2.62286   0.00032   0.00004   0.00480   0.00479   2.62766
   D83       -2.62476  -0.00032  -0.00004  -0.00447  -0.00447  -2.62923
   D84       -0.18190   0.00017   0.00006   0.01771   0.01779  -0.16412
   D85        1.96328   0.00032   0.00015   0.02019   0.02034   1.98363
   D86       -2.26954   0.00032   0.00011   0.01828   0.01841  -2.25112
         Item               Value     Threshold  Converged?
 Maximum Force            0.001424     0.000015     NO 
 RMS     Force            0.000293     0.000010     NO 
 Maximum Displacement     0.029239     0.000060     NO 
 RMS     Displacement     0.007925     0.000040     NO 
 GradGradGradGradGradGradGradGradGradGradGradGradGradGradGradGradGradGrad

                    Distance matrix (angstroms):
                    1          2          3          4          5
     1  C    0.000000
     2  C    1.524950   0.000000
     3  C    2.520750   1.524950   0.000000
     4  C    2.524482   1.524501   2.524499   0.000000
     5  Br   2.850852   1.996314   2.850767   2.840803   0.000000
     6  H    1.106611   2.153738   2.787104   2.772357   3.854361
     7  H    1.102850   2.183585   3.486462   2.775887   3.009043
     8  H    1.103057   2.182901   2.752271   3.489306   3.035821
     9  H    3.486476   2.183573   1.102853   2.775546   3.009335
    10  H    2.786747   2.153761   1.106611   2.772778   3.854318
    11  H    2.752647   2.182909   1.103053   3.489315   3.035276
    12  H    2.768204   2.183046   3.489420   1.102862   3.008622
    13  H    2.783489   2.155077   2.783411   1.106431   3.847712
    14  H    3.489410   2.183057   2.768337   1.102862   3.008458
    15  C    5.190681   5.374644   5.771679   6.661742   4.080530
    16  C    5.374789   5.398296   5.377374   6.809453   4.327081
    17  C    5.771799   5.377358   5.193700   6.665638   4.084592
    18  C    6.661932   6.809495   6.665721   8.261020   5.847219
    19  Br   4.080808   4.327223   4.084708   5.847355   4.034531
    20  H    6.180848   6.264626   6.690198   7.465716   4.753291
    21  H    5.220605   5.705859   6.182043   7.010765   4.672769
    22  H    4.442418   4.522387   5.108024   5.708008   3.093104
    23  H    6.182984   5.710903   5.226278   7.017782   4.679418
    24  H    6.690158   6.266639   6.182986   7.468852   4.756369
    25  H    5.109509   4.525330   4.443632   5.712335   3.098427
    26  H    7.480485   7.549734   7.483699   8.942567   6.356473
    27  H    7.042443   7.102263   6.718898   8.576184   6.302775
    28  H    6.713618   7.100850   7.045963   8.574066   6.300895
                    6          7          8          9         10
     6  H    0.000000
     7  H    1.789960   0.000000
     8  H    1.790901   1.792808   0.000000
     9  H    3.803604   4.339653   3.763226   0.000000
    10  H    2.595405   3.803527   3.122715   1.789959   0.000000
    11  H    3.123870   3.763291   2.522780   1.792789   1.790899
    12  H    3.115869   2.562138   3.785482   3.785776   3.789254
    13  H    2.571864   3.143094   3.792770   3.142412   2.572219
[...]
 00004574,0.00002121,0.00002933,-0.00000744,0.00000394,0.00000709,0.000
 00410,-0.00000127,0.00000530,0.00003522,-0.00001345,-0.00002584,-0.000
 01983,-0.00000166,0.00000924,0.00001661,0.00000698,0.00000122,0.000008
 10,-0.00004602,-0.00001941,0.00000288,-0.00000360,-0.00000030,0.000006
 13,0.00000385,-0.00000317,-0.00000956,0.00000015,0.00000247,0.07738907
 ,-0.10086540,-0.22988739,0.01033673,-0.01397768,-0.02145030,-0.0030833
 3,0.00383688,-0.00365945,0.00131603,-0.00035302,0.00090516,0.00001804,
 -0.00014064,0.00091123,-0.00162820,0.00203695,0.00295357,-0.08273415,0
 .10811381,0.24848996,0.00006681,-0.00001507,0.00004191,-0.00014357,-0.
 00031034,-0.00002525,0.00005549,0.00006752,0.00001672,-0.00000115,0.00
 008201,0.00000208,-0.00099947,0.00021868,0.00030094,-0.00001392,0.0000
 1904,0.00001017,-0.00001108,-0.00000320,-0.00003522,-0.00037507,-0.000
 47448,-0.00003505,-0.00000589,-0.00000456,0.00000810,-0.00001130,0.000
 02192,-0.00002353,0.00000934,0.00000173,-0.00001083,-0.00000049,-0.000
 01022,0.00000088,0.00002797,0.00000408,0.00000107,-0.00001224,-0.00000
 010,0.00001174,-0.32402101,-0.01213381,0.00060656,-0.01058581,-0.00165
 662,0.00104224,0.00064843,-0.00008638,0.00084438,0.00037552,0.00150699
 ,-0.00241175,0.00084684,-0.00000654,0.00034683,-0.00446305,0.00109728,
 0.00007252,-0.00619583,-0.00121816,-0.00118781,0.34442111,-0.00042723,
 -0.00002306,-0.00000227,-0.00012859,0.00087905,0.00031871,-0.00009341,
 -0.00016016,-0.00008606,0.00000511,-0.00031994,-0.00008862,0.00015003,
 -0.00061846,-0.00012973,0.00016260,-0.00003015,-0.00007505,0.00003285,
 0.00001232,0.00001345,-0.00047447,-0.00069663,0.00005040,0.00003883,0.
 00001725,-0.00004602,0.00002181,-0.00004709,0.00004726,0.00000173,0.00
 001927,0.00007175,0.00001213,0.00002244,0.00001474,-0.00009102,-0.0000
 3359,-0.00000175,0.00006615,0.00000207,-0.00002677,-0.01383154,-0.0490
 9385,-0.00137769,0.01555072,-0.00132816,0.00029116,-0.00036105,-0.0001
 8109,-0.00077560,0.00062480,-0.00093449,0.00259281,0.00078252,0.000479
 54,-0.00020543,-0.03025397,0.00126208,0.00006546,0.01460913,0.00070883
 ,0.00150649,0.01302009,0.04912849,-0.00001890,-0.00008095,0.00000073,0
 .00011773,0.00060547,0.00008863,0.00004329,-0.00011933,-0.00005520,0.0
 0000957,-0.00017499,-0.00005244,0.00001730,-0.00017561,-0.00018963,0.0
 0003862,-0.00002690,-0.00008735,-0.00014305,-0.00000522,-0.00002583,0.
 00003505,-0.00005040,0.00020822,-0.00000698,0.00001320,-0.00001941,-0.
 00002912,-0.00003444,0.00002922,-0.00001083,0.00007175,-0.00002874,-0.
 00000277,0.00002124,0.00001036,-0.00005760,-0.00003435,0.00000312,0.00
 003491,0.00001000,-0.00002168,0.00506615,-0.00042812,-0.04978006,-0.02
 836645,-0.00258547,0.00039783,-0.00102425,-0.00000505,0.00127640,-0.00
 111398,0.00268798,-0.00478938,0.00012483,-0.00061593,0.00028140,0.0004
 3659,-0.00020276,-0.00088346,0.02524841,0.00312098,0.00199715,0.000590
 20,-0.00232849,0.05209981,0.00000465,-0.00008866,0.00004685,0.00008183
 ,0.00050022,-0.00008341,-0.00003583,-0.00008160,0.00003805,0.00000980,
 -0.00014518,0.00003608,-0.00037593,-0.00018668,-0.00008940,-0.00000771
 ,-0.00003057,-0.00002768,-0.00000166,0.00000975,0.00001983,-0.00000589
 ,0.00003883,0.00000698,-0.00005403,0.00001921,0.00000410,0.00001062,-0
 .00002674,0.00003739,-0.00001109,0.00003285,-0.00014305,0.00002959,0.0
 0000779,0.00001579,-0.00004765,-0.00002788,-0.00000178,0.00000219,0.00
 001559,-0.00000819,-0.00073240,0.00112480,0.00183018,0.00374546,-0.006
 90369,0.01031704,-0.08433973,0.04446527,-0.07977859,0.00087160,-0.0007
 3107,0.00083676,-0.00014261,-0.00037223,-0.00015873,-0.00011060,0.0001
 4844,-0.00011232,0.00066149,-0.00012528,0.00056371,0.00022006,0.000046
 23,0.00022623,0.08360580,-0.00000142,-0.00000166,0.00000203,0.00003285
 ,-0.00005078,-0.00001111,-0.00003631,0.00000712,0.00002458,-0.00000099
 ,0.00001940,0.00000992,-0.00001024,0.00004838,-0.00000200,-0.00000588,
 0.00000386,0.00000054,0.00000975,-0.00000507,0.00000166,-0.00000457,0.
 00001725,-0.00001319,0.00001921,-0.00000426,-0.00000127,0.00000059,0.0
 0000206,-0.00000272,-0.00000320,0.00001232,-0.00000523,0.00000276,-0.0
 0000311,0.00000157,0.00000716,0.00000505,-0.00000051,0.00000027,-0.000
 00287,-0.00000222,0.00127480,-0.00091159,-0.00220809,-0.00580751,0.005
 13656,-0.01413149,0.04388319,-0.10532990,0.10499481,-0.00071447,-0.000
 00048,0.00006412,-0.00017511,0.00092947,-0.00074633,0.00012003,0.00028
 559,-0.00024254,-0.00012528,0.00080442,-0.00074532,0.00008414,-0.00015
 882,0.00007040,-0.04864970,0.10858917,0.00001928,-0.00002757,0.0000164
 1,0.00002777,0.00006566,-0.00003386,-0.00002050,-0.00001731,0.00000673
 ,0.00000451,-0.00001763,0.00002231,-0.00004572,-0.00002121,0.00002934,
 -0.00001661,-0.00000697,0.00000122,0.00001983,0.00000166,0.00000923,-0
 .00000810,0.00004602,-0.00001941,-0.00000410,0.00000127,0.00000530,0.0
 0000744,-0.00000394,0.00000709,-0.00003522,0.00001345,-0.00002583,0.00
 000956,-0.00000015,0.00000247,-0.00000612,-0.00000384,-0.00000317,-0.0
 0000288,0.00000360,-0.00000030,0.00308326,-0.00383689,-0.00365967,-0.0
 1033764,0.01397814,-0.02145032,-0.07739378,0.10086465,-0.22988000,-0.0
 0131606,0.00035304,0.00090520,-0.00001801,0.00014064,0.00091121,0.0001
 1295,0.00000010,0.00033201,-0.00056376,0.00074537,-0.00140711,0.000098
 34,-0.00008419,0.00026964,0.08273944,-0.10811310,0.24848224,0.00002681
 ,0.00004757,-0.00002221,0.00008865,-0.00025819,0.00015443,0.00018796,-
 0.00006337,-0.00003241,0.00000353,0.00010534,-0.00004790,-0.00009853,0
 .00027733,-0.00008992,-0.00001627,0.00000936,0.00001252,-0.00000771,-0
 .00000588,-0.00001661,-0.00001130,0.00002181,0.00002912,0.00001062,0.0
 0000059,-0.00000744,-0.00010011,-0.00000285,-0.00002811,-0.00001393,0.
 00016260,0.00003862,-0.00002164,0.00000196,-0.00000833,0.00002831,0.00
 000539,0.00000410,0.00000194,-0.00000728,0.00000379,0.00007935,-0.0001
 0152,-0.00035148,0.00185723,0.01083039,0.00002464,-0.06888152,-0.07022
 603,-0.00165611,0.00012107,0.00054072,-0.00011248,0.00080345,0.0019831
 7,0.00117153,0.00023123,-0.00003469,-0.00013282,-0.00011061,0.00012003
 ,-0.00011293,-0.00005968,-0.00014804,0.00000127,0.00307778,0.01142919,
 0.00162836,0.06760589,0.00003857,0.00005249,-0.00002407,-0.00001470,-0
 .00019076,0.00002015,0.00007518,0.00003970,0.00001253,-0.00000115,0.00
 005966,-0.00000873,-0.00008020,0.00011600,-0.00004261,0.00000936,0.000
 01166,0.00001547,-0.00003057,0.00000386,-0.00000697,0.00002193,-0.0000
 4709,0.00003444,-0.00002674,0.00000206,0.00000394,-0.00000285,0.000011
 67,-0.00001630,0.00001904,-0.00003015,-0.00002690,-0.00001012,-0.00000
 080,-0.00000742,0.00001808,0.00000352,0.00000073,-0.00000710,-0.000002
 09,0.00000724,0.00002130,0.00039704,0.00105279,-0.00402916,-0.01408822
 ,0.00031158,-0.06947500,-0.29150343,-0.00579225,-0.00074364,0.00044866
 ,0.00063148,0.00071203,-0.00130032,-0.00236891,-0.00003470,0.00062199,
 -0.00027743,0.00014844,0.00028559,-0.00000010,0.00008540,-0.00005598,-
 0.00002134,-0.00396905,-0.01018460,-0.00203698,0.07550180,0.31333892,0
 .00003100,0.00003187,-0.00001925,0.00000796,-0.00015425,-0.00004403,-0
 .00001321,0.00005328,0.00005919,-0.00000282,0.00004666,0.00002192,0.00
 005120,0.00009258,0.00001237,0.00001252,0.00001547,0.00000792,-0.00002
 768,0.00000054,0.00000122,0.00002353,-0.00004726,0.00002922,-0.0000374
 0,0.00000272,0.00000709,0.00002811,0.00001630,-0.00000663,0.00001017,-
 0.00007505,-0.00008735,0.00000030,-0.00000512,-0.00000170,0.00001754,0
 .00000958,-0.00000206,-0.00000965,-0.00000182,0.00000288,-0.00034708,-
 0.00030946,0.00069402,-0.00740468,-0.02381735,-0.00103194,-0.00132553,
 -0.00491657,-0.04959429,-0.00066797,0.00006746,0.00068143,0.00057213,-
 0.00435175,-0.00205890,0.00013280,0.00027745,-0.00088751,0.00011233,0.
 00024252,0.00033202,-0.00003206,-0.00004745,-0.00002971,0.00897315,0.0
 2388400,0.00295353,-0.00033647,0.00860563,0.04990265,0.00005550,0.0000
 6753,-0.00001672,-0.00014358,-0.00031040,0.00002525,0.00006686,-0.0000
 1505,-0.00004191,-0.00000115,0.00008202,-0.00000208,-0.00099947,0.0002
 1870,-0.00030094,-0.00001130,0.00002193,0.00002353,-0.00000589,-0.0000
 0457,-0.00000810,0.00000934,0.00000172,0.00001082,-0.00001108,-0.00000
 320,0.00003522,-0.00001393,0.00001904,-0.00001017,-0.00037528,-0.00047
 460,0.00003505,-0.00001225,-0.00000010,-0.00001174,0.00002798,0.000004
 09,-0.00000107,-0.00000049,-0.00001022,-0.00000088,0.00064840,-0.00008
 636,-0.00084438,-0.01058512,-0.00165657,-0.00104193,-0.32402092,-0.012
 13689,-0.00059865,0.00037561,0.00150686,0.00241164,0.00084689,-0.00000
 659,-0.00034687,-0.00005967,0.00008541,0.00003205,0.00022006,0.0000841
 4,-0.00009834,0.00031231,-0.00014696,0.00033503,-0.00619664,-0.0012183
 3,0.00118804,-0.00446270,0.00109724,-0.00007240,0.34442084,-0.00009340
 ,-0.00016017,0.00008606,-0.00012862,0.00087910,-0.00031868,-0.00042723
 ,-0.00002307,0.00000229,0.00000511,-0.00031996,0.00008861,0.00015004,-
 0.00061848,0.00012971,0.00002181,-0.00004709,-0.00004726,0.00003883,0.
 00001725,0.00004602,0.00000172,0.00001927,-0.00007175,0.00003284,0.000
 01232,-0.00001345,0.00016261,-0.00003016,0.00007505,-0.00047464,-0.000
 69672,-0.00005039,0.00006615,0.00000207,0.00002677,-0.00009102,-0.0000
 3359,0.00000175,0.00001213,0.00002244,-0.00001474,-0.00036105,-0.00018
 113,0.00077560,0.01555030,-0.00132812,-0.00029170,-0.01383456,-0.04909
 412,0.00137812,0.00062474,-0.00093442,-0.00259279,0.00078259,0.0004795
 1,0.00020539,-0.00014804,-0.00005598,0.00004746,0.00004624,-0.00015881
 ,0.00008418,-0.00014697,0.00029235,0.00006190,0.01460931,0.00070903,-0
 .00150690,-0.03025401,0.00126177,-0.00006454,0.01302359,0.04912892,-0.
 00004329,0.00011932,-0.00005519,-0.00011772,-0.00060545,0.00008860,0.0
 0001887,0.00008096,0.00000074,-0.00000957,0.00017499,-0.00005243,-0.00
 001728,0.00017560,-0.00018963,0.00002912,0.00003444,0.00002922,0.00000
 698,-0.00001319,-0.00001941,0.00001083,-0.00007175,-0.00002875,0.00014
 305,0.00000523,-0.00002584,-0.00003862,0.00002690,-0.00008735,-0.00003
 505,0.00005040,0.00020822,-0.00003491,-0.00001000,-0.00002167,0.000057
 59,0.00003435,0.00000312,0.00000277,-0.00002124,0.00001036,0.00102426,
 0.00000503,0.00127641,0.02836694,0.00258576,0.00039708,-0.00505833,0.0
 0042844,-0.04977990,0.00111385,-0.00268794,-0.00478954,-0.00012483,0.0
 0061592,0.00028143,-0.00000127,0.00002132,-0.00002971,-0.00022624,-0.0
 0007041,0.00026965,-0.00033511,-0.00006182,-0.00093209,-0.02524796,-0.
 00312122,0.00199779,-0.00043685,0.00020275,-0.00088345,-0.00059853,0.0
 0232805,0.05209993,0.00003400,0.00006974,-0.00004044,-0.00002523,-0.00
 021441,0.,0.00003400,0.00006974,0.00004044,-0.00000592,0.00006057,0.,0
 .00006814,0.00010076,0.,0.00002831,0.00001808,0.00001754,-0.00004765,0
 .00000716,-0.00000612,0.00002798,-0.00009102,0.00005760,-0.00004765,0.
 00000716,0.00000613,0.00002831,0.00001808,-0.00001754,0.00002798,-0.00
 009102,-0.00005760,-0.00000977,-0.00000268,-0.00000719,0.00002056,0.00
 000833,0.,-0.00000977,-0.00000268,0.00000719,0.00113543,-0.00050877,0.
 00034760,-0.00913822,-0.02937459,-0.00000021,0.00113544,-0.00050875,-0
 .00034763,-0.07227312,-0.07340402,-0.00000045,-0.00479968,-0.00341282,
 0.00000004,-0.00046893,0.00065949,-0.00053146,-0.00005581,0.00002078,0
 .00002318,0.00025290,0.00023986,0.00027402,-0.00005580,0.00002079,-0.0
 0002317,-0.00046891,0.00065948,0.00053147,0.00025289,0.00023986,-0.000
 27403,0.07720212,0.00003348,0.00003118,-0.00002306,-0.00001030,-0.0000
 9230,0.,0.00003348,0.00003118,0.00002306,-0.00000219,0.00002938,0.,0.0
 0000529,0.00004427,0.,0.00000539,0.00000352,0.00000958,-0.00002788,0.0
 0000505,-0.00000384,0.00000409,-0.00003359,0.00003435,-0.00002788,0.00
 000505,0.00000385,0.00000539,0.00000352,-0.00000958,0.00000409,-0.0000
 3359,-0.00003435,-0.00000548,0.00000037,-0.00000564,0.00000833,0.00000
 032,0.,-0.00000548,0.00000037,0.00000564,0.00067452,0.00026602,0.00031
 865,-0.00010257,-0.00275889,0.,0.00067452,0.00026603,-0.00031865,-0.07
 449130,-0.28922661,-0.00000149,-0.00110109,0.00114042,0.00000002,0.000
 11287,0.00046684,-0.00013270,-0.00006430,-0.00005587,0.00007736,-0.000
 01767,0.00028506,-0.00005976,-0.00006431,-0.00005588,-0.00007735,0.000
 11285,0.00046683,0.00013270,-0.00001767,0.00028506,0.00005976,0.081979
 84,0.30912084,-0.00000830,-0.00000279,0.00000132,0.,0.,0.00001579,0.00
 000830,0.00000279,0.00000132,0.,0.,-0.00000894,0.,0.,-0.00002276,0.000
 00410,0.00000073,-0.00000206,-0.00000178,-0.00000051,-0.00000317,-0.00
 000107,0.00000175,0.00000312,0.00000178,0.00000051,-0.00000317,-0.0000
 0410,-0.00000073,-0.00000206,0.00000107,-0.00000175,0.00000312,-0.0000
 0285,0.00000106,-0.00000083,0.,0.,0.00000161,0.00000285,-0.00000106,-0
 .00000083,-0.00023984,-0.00031556,-0.00010246,0.00000010,0.00000036,-0
 .00134799,0.00023982,0.00031557,-0.00010245,-0.00000046,-0.00000150,-0
 .04929657,0.00000007,0.00000006,0.00096917,-0.00053577,0.00020044,-0.0
 0001005,-0.00003717,-0.00015334,-0.00004266,0.00012356,0.00008517,-0.0
 0006631,0.00003717,0.00015334,-0.00004266,0.00053577,-0.00020044,-0.00
 001007,-0.00012357,-0.00008516,-0.00006630,0.00000043,0.00000162,0.045
 28466,0.00001237,-0.00004406,0.00002570,0.00002233,0.00010201,-0.00002
 459,-0.00002399,-0.00001894,-0.00000600,0.00000307,-0.00002739,0.00001
 476,-0.00004171,-0.00004440,0.00006071,-0.00002164,-0.00001012,0.00000
 030,0.00002960,0.00000276,0.00000956,-0.00001225,0.00006615,-0.0000349
 1,0.00000219,0.00000027,0.00000288,0.00000194,-0.00000710,0.00000965,-
 0.00000049,0.00001213,-0.00000277,0.00000781,0.00000041,0.00000326,-0.
 00000977,-0.00000548,-0.00000285,-0.00000024,0.00000376,-0.00000171,-0
 .00682572,-0.00101509,0.00143768,-0.01141746,0.01582554,-0.02803460,0.
 00135169,-0.00027042,-0.00132579,-0.08348410,0.04386150,-0.07814879,0.
 00069284,0.00040353,0.00007530,0.00014700,0.00006409,0.00026122,0.0000
 9801,-0.00018498,0.00007411,-0.00056223,0.00091930,-0.00176153,-0.0003
 0131,0.00005326,0.00092701,-0.00001790,-0.00004697,0.00003394,0.000224
 97,-0.00032761,0.00006375,0.00357935,-0.00385812,0.00926854,0.09195989
 ,-0.00001816,-0.00000337,0.00000504,0.00000302,0.00002994,0.00000926,-
 0.00000499,-0.00001286,-0.00000978,0.00000071,-0.00000894,-0.00000511,
 0.00000189,-0.00001710,-0.00001924,0.00000196,-0.00000080,-0.00000512,
 0.00000779,-0.00000311,-0.00000015,-0.00000010,0.00000207,-0.00001000,
 0.00001559,-0.00000287,-0.00000360,-0.00000728,-0.00000209,0.00000182,
 -0.00001022,0.00002244,0.00002124,0.00000041,0.00000021,0.00000160,-0.
 00000268,0.00000037,0.00000106,0.00000376,-0.00000143,-0.00000272,-0.0
 0009576,0.00059059,-0.00020941,-0.00272399,-0.00096884,-0.00223765,-0.
 00002995,-0.00034094,0.00019460,0.04683673,-0.10460834,0.10084694,-0.0
 0045178,0.00066346,-0.00080295,-0.00015701,0.00038330,-0.00021471,-0.0
 0000603,-0.00003622,0.00022470,-0.00001973,0.00056727,0.00009141,0.000
 39040,0.00017556,-0.00023486,0.00010877,-0.00010128,0.00009715,-0.0001
 0503,0.00000546,-0.00019479,0.01171580,-0.01009751,0.02367007,-0.04862
 071,0.10620863,-0.00000012,-0.00002268,0.00001764,0.00001235,0.0000710
 2,-0.00000432,-0.00000677,-0.00001408,-0.00000993,0.00000166,-0.000018
 50,0.00000268,-0.00005217,-0.00002919,0.00001595,-0.00000833,-0.000007
 42,-0.00000170,0.00001579,0.00000157,0.00000247,-0.00001174,0.00002677
 ,-0.00002167,0.00000820,0.00000222,-0.00000030,-0.00000379,-0.00000724
 ,0.00000288,0.00000088,0.00001474,0.00001036,0.00000326,0.00000160,0.0
 0000113,-0.00000719,-0.00000564,-0.00000083,0.00000171,0.00000272,-0.0
 0000066,-0.00044553,-0.00048183,0.00080617,0.00128660,-0.00049114,0.00
 016547,0.00069994,-0.00055433,0.00087958,-0.08161128,0.10051696,-0.231
 76228,0.00024546,-0.00057423,0.00027480,0.00016889,-0.00001880,-0.0000
 0266,0.00020646,0.00005560,0.00035537,-0.00006324,0.00019641,0.0001953
 3,0.00012885,0.00019495,0.00021524,-0.00004320,-0.00008707,-0.00004592
 ,-0.00004163,-0.00008315,0.00010344,0.00155846,-0.00203403,0.00242569,
 0.08751617,-0.10893537,0.24291619,-0.00002399,-0.00001894,0.00000600,0
 .00002233,0.00010201,0.00002459,0.00001237,-0.00004406,-0.00002570,0.0
 0000307,-0.00002739,-0.00001476,-0.00004171,-0.00004440,-0.00006071,0.
 00000194,-0.00000710,-0.00000965,0.00000219,0.00000027,-0.00000288,-0.
 00000049,0.00001213,0.00000277,0.00002959,0.00000276,-0.00000956,-0.00
 002164,-0.00001012,-0.00000030,-0.00001225,0.00006615,0.00003491,-0.00
 000024,0.00000376,0.00000171,-0.00000977,-0.00000548,0.00000285,0.0000
 0781,0.00000041,-0.00000326,0.00135172,-0.00027042,0.00132575,-0.01141
 679,0.01582501,0.02803522,-0.00682575,-0.00101509,-0.00143749,-0.08348
 011,0.04385741,0.07814598,0.00069283,0.00040354,-0.00007531,-0.0000179
 1,-0.00004696,-0.00003394,-0.00030134,0.00005326,-0.00092699,0.0002249
 7,-0.00032761,-0.00006376,0.00009800,-0.00018498,-0.00007412,0.0001469
 9,0.00006410,-0.00026121,-0.00056218,0.00091928,0.00176156,0.00357908,
 -0.00385788,-0.00926865,0.00458575,-0.00683341,-0.00955968,0.09195551,
 -0.00000499,-0.00001286,0.00000978,0.00000302,0.00002994,-0.00000926,-
 0.00001816,-0.00000337,-0.00000504,0.00000071,-0.00000894,0.00000511,0
 .00000190,-0.00001710,0.00001924,-0.00000728,-0.00000209,-0.00000182,0
 .00001559,-0.00000287,0.00000360,-0.00001022,0.00002244,-0.00002124,0.
 00000779,-0.00000311,0.00000015,0.00000196,-0.00000080,0.00000512,-0.0
 0000010,0.00000207,0.00001000,0.00000376,-0.00000144,0.00000272,-0.000
 00268,0.00000037,-0.00000106,0.00000041,0.00000021,-0.00000160,-0.0000
 2995,-0.00034093,-0.00019461,-0.00272388,-0.00096889,0.00223769,-0.000
 09575,0.00059059,0.00020942,0.04683255,-0.10460432,-0.10084555,-0.0004
 5174,0.00066343,0.00080297,0.00010876,-0.00010128,-0.00009716,0.000390
 40,0.00017556,0.00023484,-0.00010503,0.00000545,0.00019479,-0.00000604
 ,-0.00003622,-0.00022470,-0.00015702,0.00038330,0.00021472,-0.00001974
 ,0.00056727,-0.00009141,0.01171524,-0.01009707,-0.02367062,-0.00683330
 ,0.00755641,0.01228011,-0.04861623,0.10620426,0.00000677,0.00001408,-0
 .00000993,-0.00001235,-0.00007103,-0.00000432,0.00000012,0.00002269,0.
 00001764,-0.00000166,0.00001850,0.00000268,0.00005217,0.00002919,0.000
 01595,0.00000379,0.00000724,0.00000288,-0.00000819,-0.00000222,-0.0000
 0030,-0.00000088,-0.00001474,0.00001036,-0.00001579,-0.00000157,0.0000
 0247,0.00000833,0.00000742,-0.00000170,0.00001174,-0.00002677,-0.00002
 168,-0.00000171,-0.00000272,-0.00000066,0.00000719,0.00000564,-0.00000
 083,-0.00000326,-0.00000160,0.00000113,-0.00069996,0.00055431,0.000879
 57,-0.00128637,0.00049072,0.00016487,0.00044570,0.00048186,0.00080620,
 0.08160851,-0.10051549,-0.23177038,-0.00024547,0.00057423,0.00027483,0
 .00004321,0.00008707,-0.00004592,-0.00012882,-0.00019496,0.00021527,0.
 00004162,0.00008316,0.00010344,-0.00020645,-0.00005561,0.00035538,-0.0
 0016889,0.00001879,-0.00000265,0.00006326,-0.00019643,0.00019528,-0.00
 155825,0.00203387,0.00242552,0.00955902,-0.01227946,-0.01654011,-0.087
 51338,0.10893384,0.24292501\\0.00000009,-0.00000030,0.00000003,-0.0000
 0001,-0.00000019,-0.00000001,0.00000006,-0.00000018,-0.00000004,0.,-0.
 00000045,0.,-0.00000003,-0.00000026,-0.00000002,0.00000022,-0.00000021
 ,0.00000002,0.00000008,-0.00000022,0.,0.00000013,0.00000003,-0.0000000
 8,0.00000008,-0.00000021,0.,0.00000022,-0.00000022,-0.00000001,0.00000
 006,-0.00000007,0.00000012,0.,-0.00000044,0.,0.00000015,-0.00000043,0.
 ,0.,-0.00000043,0.,-0.00000009,0.00000028,-0.00000010,-0.00000006,0.00
 000021,0.,-0.00000006,0.00000011,0.00000012,0.,0.00000045,0.,0.0000002
 2,0.00000013,-0.00000004,-0.00000022,0.00000021,0.00000003,-0.00000008
 ,0.00000023,0.,-0.00000019,0.00000002,0.00000010,-0.00000009,0.0000002
 2,0.,-0.00000022,0.00000022,-0.00000001,-0.00000012,0.00000022,-0.0000
 0010,-0.00000015,0.00000042,0.,0.,0.00000043,0.,0.,0.00000043,0.\\\@


 THE SECRET OF SUCCESS IN LIFE IS TO EAT WHAT YOU LIKE, AND LET THE FOOD
 FIGHT IT OUT INSIDE YOU. -- FROM A FORTUNE COOKIE
 File lengths (MBytes):  RWF=    184 Int=      0 D2E=      0 Chk=      6 Scr=      1
 Normal termination of Gaussian 16 at Tue Jul 11 16:09:43 2023.
real 2740.72
user 9675.42
sys 59.18
