 Entering Gaussian System, Link 0=g16
 Input=gaussian_test.inp
 Output=gaussian_test.log
 Initial command:
 /sw/restricted/lms/sw/Gaussian/g16_B01/g16/l1.exe "/scratch/user/peterchao1/peterchao1/6113296_1660079069000000192342280/Gau-228834.inp" -scrdir="/scratch/user/peterchao1/peterchao1/6113296_1660079069000000192342280/"
 Entering Link 1 = /sw/restricted/lms/sw/Gaussian/g16_B01/g16/l1.exe PID=    228835.
  
 Copyright (c) 1988-2017, Gaussian, Inc.  All Rights Reserved.
  
 This is part of the Gaussian(R) 16 program.  It is based on
 the Gaussian(R) 09 system (copyright 2009, Gaussian, Inc.),
 the Gaussian(R) 03 system (copyright 2003, Gaussian, Inc.),
 the Gaussian(R) 98 system (copyright 1998, Gaussian, Inc.),
 the Gaussian(R) 94 system (copyright 1995, Gaussian, Inc.),
 the Gaussian 92(TM) system (copyright 1992, Gaussian, Inc.),
 the Gaussian 90(TM) system (copyright 1990, Gaussian, Inc.),
 the Gaussian 88(TM) system (copyright 1988, Gaussian, Inc.),
 the Gaussian 86(TM) system (copyright 1986, Carnegie Mellon
 University), and the Gaussian 82(TM) system (copyright 1983,
 Carnegie Mellon University). Gaussian is a federally registered
 trademark of Gaussian, Inc.
  
 This software contains proprietary and confidential information,
 including trade secrets, belonging to Gaussian, Inc.
  
 This software is provided under written license and may be
 used, copied, transmitted, or stored only in accord with that
 written license.
  
 The following legend is applicable only to US Government
 contracts under FAR:
  
                    RESTRICTED RIGHTS LEGEND
  
 Use, reproduction and disclosure by the US Government is
 subject to restrictions as set forth in subparagraphs (a)
 and (c) of the Commercial Computer Software - Restricted
 Rights clause in FAR 52.227-19.
  
 Gaussian, Inc.
 340 Quinnipiac St., Bldg. 40, Wallingford CT 06492
  
  
 ---------------------------------------------------------------
 Warning -- This program may not be used in any manner that
 competes with the business of Gaussian, Inc. or will provide
 assistance to any competitor of Gaussian, Inc.  The licensee
 of this program is prohibited from giving any competitor of
 Gaussian, Inc. access to this program.  By using this program,
 the user acknowledges that Gaussian, Inc. is engaged in the
 business of creating and licensing software in the field of
 computational chemistry and represents and warrants to the
 licensee that it is not a competitor of Gaussian, Inc. and that
 it will not use this program in any manner prohibited above.
 ---------------------------------------------------------------
  

 Cite this work as:
 Gaussian 16, Revision B.01,
 M. J. Frisch, G. W. Trucks, H. B. Schlegel, G. E. Scuseria, 
 M. A. Robb, J. R. Cheeseman, G. Scalmani, V. Barone, 
 G. A. Petersson, H. Nakatsuji, X. Li, M. Caricato, A. V. Marenich, 
 J. Bloino, B. G. Janesko, R. Gomperts, B. Mennucci, H. P. Hratchian, 
 J. V. Ortiz, A. F. Izmaylov, J. L. Sonnenberg, D. Williams-Young, 
 F. Ding, F. Lipparini, F. Egidi, J. Goings, B. Peng, A. Petrone, 
 T. Henderson, D. Ranasinghe, V. G. Zakrzewski, J. Gao, N. Rega, 
 G. Zheng, W. Liang, M. Hada, M. Ehara, K. Toyota, R. Fukuda, 
 J. Hasegawa, M. Ishida, T. Nakajima, Y. Honda, O. Kitao, H. Nakai, 
 T. Vreven, K. Throssell, J. A. Montgomery, Jr., J. E. Peralta, 
 F. Ogliaro, M. J. Bearpark, J. J. Heyd, E. N. Brothers, K. N. Kudin, 
 V. N. Staroverov, T. A. Keith, R. Kobayashi, J. Normand, 
 K. Raghavachari, A. P. Rendell, J. C. Burant, S. S. Iyengar, 
 J. Tomasi, M. Cossi, J. M. Millam, M. Klene, C. Adamo, R. Cammi, 
 J. W. Ochterski, R. L. Martin, K. Morokuma, O. Farkas, 
 J. B. Foresman, and D. J. Fox, Gaussian, Inc., Wallingford CT, 2016.
 
 ******************************************
 Gaussian 16:  ES64L-G16RevB.01 20-Dec-2017
                 9-Aug-2022 
 ******************************************
 %nprocshared=4
 Will use up to    4 processors via shared memory.
 %mem=8000mb
 ----------------------------------------------------------------------
 #T wB97XD/def2svpp opt=tight freq int(grid=ultrafine) scf=(verytight,q
 c)
 ----------------------------------------------------------------------
 -----
 dimer
 -----
 Symbolic Z-matrix:
 Charge =  0 Multiplicity = 1
 C                    -1.71768  -0.00038   1.64117 
 C                    -2.227    -0.00012   0.2222 
 Cl                   -1.6554    1.44207  -0.65111 
 Cl                   -1.65671  -1.44278  -0.65122 
 Cl                   -4.00899   0.00083   0.1871 
 H                    -0.62986  -0.0017    1.64125 
 H                    -2.0762   -0.88674   2.15987 
 H                    -2.07406   0.88709   2.15947 
 C                     1.71817  -0.00047  -1.64132 
 C                     2.2271   -0.00004  -0.2222 
 Cl                    1.65667   1.44314   0.6503 
 Cl                    1.65512  -1.44176   0.65165 
 Cl                    4.00905  -0.00106  -0.18665 
 H                     0.63034   0.00089  -1.64169 
 H                     2.07467  -0.88822  -2.15908 
 H                     2.07688   0.88563  -2.16037 
 
 Add virtual bond connecting atoms Cl11       and H6         Dist= 5.44D+00.
 Add virtual bond connecting atoms Cl12       and H6         Dist= 5.44D+00.
 Add virtual bond connecting atoms H14        and Cl3        Dist= 5.44D+00.
 Add virtual bond connecting atoms H14        and Cl4        Dist= 5.44D+00.

 GradGradGradGradGradGradGradGradGradGradGradGradGradGradGradGradGradGrad
 Initialization pass.
                           ----------------------------
                           !    Initial Parameters    !
                           ! (Angstroms and Degrees)  !
 --------------------------                            --------------------------
 ! Name  Definition              Value          Derivative Info.                !
 --------------------------------------------------------------------------------
 ! R1    R(1,2)                  1.5076         estimate D2E/DX2                !
 ! R2    R(1,6)                  1.0878         estimate D2E/DX2                !
 ! R3    R(1,7)                  1.0878         estimate D2E/DX2                !
 ! R4    R(1,8)                  1.0878         estimate D2E/DX2                !
 ! R5    R(2,3)                  1.7803         estimate D2E/DX2                !
 ! R6    R(2,4)                  1.7803         estimate D2E/DX2                !
 ! R7    R(2,5)                  1.7823         estimate D2E/DX2                !
 ! R8    R(3,14)                 2.878          estimate D2E/DX2                !
 ! R9    R(4,14)                 2.8802         estimate D2E/DX2                !
 ! R10   R(6,11)                 2.8806         estimate D2E/DX2                !
 ! R11   R(6,12)                 2.8765         estimate D2E/DX2                !
 ! R12   R(9,10)                 1.5076         estimate D2E/DX2                !
 ! R13   R(9,14)                 1.0878         estimate D2E/DX2                !
 ! R14   R(9,15)                 1.0878         estimate D2E/DX2                !
 ! R15   R(9,16)                 1.0878         estimate D2E/DX2                !
 ! R16   R(10,11)                1.7803         estimate D2E/DX2                !
 ! R17   R(10,12)                1.7803         estimate D2E/DX2                !
 ! R18   R(10,13)                1.7823         estimate D2E/DX2                !
 ! A1    A(2,1,6)              109.7495         estimate D2E/DX2                !
 ! A2    A(2,1,7)              109.7312         estimate D2E/DX2                !
 ! A3    A(2,1,8)              109.7337         estimate D2E/DX2                !
 ! A4    A(6,1,7)              109.1811         estimate D2E/DX2                !
 ! A5    A(6,1,8)              109.1828         estimate D2E/DX2                !
 ! A6    A(7,1,8)              109.2451         estimate D2E/DX2                !
 ! A7    A(1,2,3)              110.6941         estimate D2E/DX2                !
 ! A8    A(1,2,4)              110.6959         estimate D2E/DX2                !
 ! A9    A(1,2,5)              110.8733         estimate D2E/DX2                !
 ! A10   A(3,2,4)              108.237          estimate D2E/DX2                !
 ! A11   A(3,2,5)              108.1148         estimate D2E/DX2                !
 ! A12   A(4,2,5)              108.1224         estimate D2E/DX2                !
 ! A13   A(2,3,14)              91.042          estimate D2E/DX2                !
 ! A14   A(2,4,14)              90.9682         estimate D2E/DX2                !
 ! A15   A(1,6,11)             142.4792         estimate D2E/DX2                !
 ! A16   A(1,6,12)             142.6502         estimate D2E/DX2                !
 ! A17   A(11,6,12)             60.1461         estimate D2E/DX2                !
 ! A18   A(10,9,14)            109.7486         estimate D2E/DX2                !
 ! A19   A(10,9,15)            109.7334         estimate D2E/DX2                !
 ! A20   A(10,9,16)            109.7316         estimate D2E/DX2                !
 ! A21   A(14,9,15)            109.183          estimate D2E/DX2                !
 ! A22   A(14,9,16)            109.182          estimate D2E/DX2                !
 ! A23   A(15,9,16)            109.2448         estimate D2E/DX2                !
 ! A24   A(9,10,11)            110.6949         estimate D2E/DX2                !
 ! A25   A(9,10,12)            110.6927         estimate D2E/DX2                !
 ! A26   A(9,10,13)            110.8718         estimate D2E/DX2                !
 ! A27   A(11,10,12)           108.2389         estimate D2E/DX2                !
 ! A28   A(11,10,13)           108.1218         estimate D2E/DX2                !
 ! A29   A(12,10,13)           108.1177         estimate D2E/DX2                !
 ! A30   A(6,11,10)             90.9355         estimate D2E/DX2                !
 ! A31   A(6,12,10)             91.0694         estimate D2E/DX2                !
 ! A32   A(3,14,4)              60.1317         estimate D2E/DX2                !
 ! A33   A(3,14,9)             142.629          estimate D2E/DX2                !
 ! A34   A(4,14,9)             142.4949         estimate D2E/DX2                !
 ! D1    D(6,1,2,3)            -60.0577         estimate D2E/DX2                !
 ! D2    D(6,1,2,4)             59.9634         estimate D2E/DX2                !
 ! D3    D(6,1,2,5)            179.9582         estimate D2E/DX2                !
 ! D4    D(7,1,2,3)            179.9665         estimate D2E/DX2                !
 ! D5    D(7,1,2,4)            -60.0124         estimate D2E/DX2                !
 ! D6    D(7,1,2,5)             59.9824         estimate D2E/DX2                !
 ! D7    D(8,1,2,3)             59.9217         estimate D2E/DX2                !
 ! D8    D(8,1,2,4)            179.9428         estimate D2E/DX2                !
 ! D9    D(8,1,2,5)            -60.0624         estimate D2E/DX2                !
 ! D10   D(2,1,6,11)            55.617          estimate D2E/DX2                !
 ! D11   D(2,1,6,12)           -55.4315         estimate D2E/DX2                !
 ! D12   D(7,1,6,11)           175.9275         estimate D2E/DX2                !
 ! D13   D(7,1,6,12)            64.879          estimate D2E/DX2                !
 ! D14   D(8,1,6,11)           -64.6976         estimate D2E/DX2                !
 ! D15   D(8,1,6,12)          -175.746          estimate D2E/DX2                !
 ! D16   D(1,2,3,14)            93.0112         estimate D2E/DX2                !
 ! D17   D(4,2,3,14)           -28.4709         estimate D2E/DX2                !
 ! D18   D(5,2,3,14)          -145.3667         estimate D2E/DX2                !
 ! D19   D(1,2,4,14)           -93.0351         estimate D2E/DX2                !
 ! D20   D(3,2,4,14)            28.4459         estimate D2E/DX2                !
 ! D21   D(5,2,4,14)           145.3367         estimate D2E/DX2                !
 ! D22   D(2,3,14,4)            18.8275         estimate D2E/DX2                !
 ! D23   D(2,3,14,9)          -120.2189         estimate D2E/DX2                !
 ! D24   D(2,4,14,3)           -18.8268         estimate D2E/DX2                !
 ! D25   D(2,4,14,9)           120.3712         estimate D2E/DX2                !
 ! D26   D(1,6,11,10)         -120.4276         estimate D2E/DX2                !
 ! D27   D(12,6,11,10)          18.8169         estimate D2E/DX2                !
 ! D28   D(1,6,12,10)          120.2333         estimate D2E/DX2                !
 ! D29   D(11,6,12,10)         -18.818          estimate D2E/DX2                !
 ! D30   D(14,9,10,11)         -59.9669         estimate D2E/DX2                !
 ! D31   D(14,9,10,12)          60.055          estimate D2E/DX2                !
 ! D32   D(14,9,10,13)        -179.9593         estimate D2E/DX2                !
 ! D33   D(15,9,10,11)        -179.9459         estimate D2E/DX2                !
 ! D34   D(15,9,10,12)         -59.924          estimate D2E/DX2                !
 ! D35   D(15,9,10,13)          60.0618         estimate D2E/DX2                !
 ! D36   D(16,9,10,11)          60.0097         estimate D2E/DX2                !
 ! D37   D(16,9,10,12)        -179.9684         estimate D2E/DX2                !
 ! D38   D(16,9,10,13)         -59.9826         estimate D2E/DX2                !
 ! D39   D(10,9,14,3)           55.3801         estimate D2E/DX2                !
 ! D40   D(10,9,14,4)          -55.6219         estimate D2E/DX2                !
 ! D41   D(15,9,14,3)          175.6939         estimate D2E/DX2                !
 ! D42   D(15,9,14,4)           64.6919         estimate D2E/DX2                !
 ! D43   D(16,9,14,3)          -64.9309         estimate D2E/DX2                !
 ! D44   D(16,9,14,4)         -175.9329         estimate D2E/DX2                !
 ! D45   D(9,10,11,6)           93.0611         estimate D2E/DX2                !
 ! D46   D(12,10,11,6)         -28.4186         estimate D2E/DX2                !
 ! D47   D(13,10,11,6)        -145.3136         estimate D2E/DX2                !
 ! D48   D(9,10,12,6)          -93.0171         estimate D2E/DX2                !
 ! D49   D(11,10,12,6)          28.4641         estimate D2E/DX2                !
 ! D50   D(13,10,12,6)         145.3617         estimate D2E/DX2                !
 --------------------------------------------------------------------------------
 Number of steps in this run=    100 maximum allowed number of steps=    100.
 GradGradGradGradGradGradGradGradGradGradGradGradGradGradGradGradGradGrad

                    Distance matrix (angstroms):
                    1          2          3          4          5
     1  C    0.000000
     2  C    1.507604   0.000000
     3  Cl   2.709069   1.780254   0.000000
     4  Cl   2.709116   1.780274   2.884850   0.000000
     5  Cl   2.713740   1.782333   2.884290   2.884446   0.000000
     6  H    1.087821   2.136485   2.896746   2.895958   3.678730
     7  H    1.087765   2.136212   3.674512   2.896100   2.900910
     8  H    1.087765   2.136244   2.895279   3.674570   2.901658
     9  C    4.751823   4.363152   3.800319   3.801366   6.011945
    10  C    4.362736   4.476216   4.163826   4.165276   6.249505
    11  Cl   3.801560   4.165240   3.558584   4.582690   5.864687
    12  Cl   3.799019   4.163367   4.579650   3.558889   5.863361
    13  Cl   6.011355   6.249437   5.863814   5.864738   8.026741
    14  H    4.036134   3.411524   2.877993   2.880247   4.986767
    15  H    5.441700   4.996357   4.649475   4.062555   6.580718
    16  H    5.443841   4.998456   4.064157   4.651741   6.582646
                    6          7          8          9         10
     6  H    0.000000
     7  H    1.773173   0.000000
     8  H    1.773191   1.773830   0.000000
     9  C    4.035909   5.443507   5.441947   0.000000
    10  C    3.410970   4.997889   4.995935   1.507611   0.000000
    11  Cl   2.880595   4.652044   4.062658   2.709118   1.780290
    12  Cl   2.876497   4.062699   4.647995   2.709057   1.780261
    13  Cl   4.986055   6.581856   6.580072   2.713696   1.782302
    14  H    3.516512   4.750276   4.748469   1.087833   2.136489
    15  H    4.747943   5.990247   6.246084   1.087780   2.136257
    16  H    4.750387   6.249307   5.990938   1.087779   2.136234
                   11         12         13         14         15
    11  Cl   0.000000
    12  Cl   2.884903   0.000000
    13  Cl   2.884422   2.884323   0.000000
    14  H    2.895977   2.896694   3.678694   0.000000
    15  H    3.674589   2.895280   2.901608   1.773216   0.000000
    16  H    2.896082   3.674521   2.900878   1.773204   1.773850
                   16
    16  H    0.000000
 Framework group  C1[X(C4H6Cl6)]
 Deg. of freedom    42
                         Standard orientation:                         
 ---------------------------------------------------------------------
 Center     Atomic      Atomic             Coordinates (Angstroms)
 Number     Number       Type             X           Y           Z
 ---------------------------------------------------------------------
      1          6           0        1.743266   -0.000354   -1.613978
      2          6           0        2.230225   -0.000108   -0.187185
      3         17           0        1.644974    1.442075    0.677046
      4         17           0        1.646278   -1.442776    0.677161
      5         17           0        4.011440    0.000843   -0.124090
      6          1           0        0.655581   -0.001681   -1.631159
      7          1           0        2.109886   -0.886718   -2.126990
      8          1           0        2.107745    0.887111   -2.126612
      9          6           0       -1.743742   -0.000465    1.614116
     10          6           0       -2.230309   -0.000028    0.187180
     11         17           0       -1.646245    1.443162   -0.676246
     12         17           0       -1.644672   -1.441741   -0.677586
     13         17           0       -4.011477   -0.001050    0.123639
     14          1           0       -0.656050    0.000897    1.631581
     15          1           0       -2.108329   -0.888215    2.126211
     16          1           0       -2.110554    0.885633    2.127478
 ---------------------------------------------------------------------
 Rotational constants (GHZ):           1.1331339           0.2706236           0.2514499
   176 basis functions,   346 primitive gaussians,   186 cartesian basis functions
    66 alpha electrons       66 beta electrons
       nuclear repulsion energy      1209.2452718784 Hartrees.
 NAtoms=   16 NActive=   16 NUniq=   16 SFac= 1.00D+00 NAtFMM=   60 NAOKFM=F Big=F
 Nuclear repulsion after empirical dispersion term =     1209.2353669279 Hartrees.
   1 Symmetry operations used in ECPInt.
 ECPInt:  NShTT=    3570 NPrTT=   16498 LenC2=    3300 LenP2D=   10242.
 LDataN:  DoStor=T MaxTD1= 4 Len=   56
 ExpMin= 1.22D-01 ExpMax= 1.04D+04 ExpMxC= 1.57D+03 IAcc=3 IRadAn=         5 AccDes= 0.00D+00
 Harris functional with IExCor= 4639 and IRadAn=       5 diagonalized for initial guess.
 HarFok:  IExCor= 4639 AccDes= 0.00D+00 IRadAn=         5 IDoV= 1 UseB2=F ITyADJ=14
 ICtDFT=  3500011 ScaDFX=  1.000000  1.000000  1.000000  1.000000
 FoFCou: FMM=F IPFlag=           0 FMFlag=      100000 FMFlg1=           0
         NFxFlg=           0 DoJE=T BraDBF=F KetDBF=T FulRan=T
         wScrn=  0.000000 ICntrl=       500 IOpCl=  0 I1Cent=   200000004 NGrid=           0
         NMat0=    1 NMatS0=      1 NMatT0=    0 NMatD0=    1 NMtDS0=    0 NMtDT0=    0
 Petite list used in FoFCou.
     Accept linear search using points  3 and  4.
     Minimum is close to point  2 DX=  6.41D-02 DF= -1.84D-05 DXR=  9.65D-02 DFR=  9.39D-03 which will be used.
     Accept linear search using points  1 and  2.
     Minimum is close to point  2 DX=  7.19D-05 DF=  0.00D+00 DXR=  7.19D-05 DFR=  0.00D+00 which will be used.
 SCF Done:  E(RwB97XD) =  -2916.16911257     a.u. after    8 cycles
            Convg  =    0.7419D-09                    34 Fock formations.
              S**2 =  0.0000                  -V/T =  2.0024

 **********************************************************************

            Population analysis using the SCF Density.

 **********************************************************************

 Orbital symmetries:
       Occupied  (A) (A) (A) (A) (A) (A) (A) (A) (A) (A) (A) (A)
                 (A) (A) (A) (A) (A) (A) (A) (A) (A) (A) (A) (A)
                 (A) (A) (A) (A) (A) (A) (A) (A) (A) (A) (A) (A)
                 (A) (A) (A) (A) (A) (A) (A) (A) (A) (A) (A) (A)
                 (A) (A) (A) (A) (A) (A) (A) (A) (A) (A) (A) (A)
                 (A) (A) (A) (A) (A) (A)
       Virtual   (A) (A) (A) (A) (A) (A) (A) (A) (A) (A) (A) (A)
                 (A) (A) (A) (A) (A) (A) (A) (A) (A) (A) (A) (A)
                 (A) (A) (A) (A) (A) (A) (A) (A) (A) (A) (A) (A)
                 (A) (A) (A) (A) (A) (A) (A) (A) (A) (A) (A) (A)
                 (A) (A) (A) (A) (A) (A) (A) (A) (A) (A) (A) (A)
                 (A) (A) (A) (A) (A) (A) (A) (A) (A) (A) (A) (A)
                 (A) (A) (A) (A) (A) (A) (A) (A) (A) (A) (A) (A)
                 (A) (A) (A) (A) (A) (A) (A) (A) (A) (A) (A) (A)
                 (A) (A) (A) (A) (A) (A) (A) (A) (A) (A) (A) (A)
                 (A) (A)
 The electronic state is 1-A.
 Alpha  occ. eigenvalues -- -101.69396-101.69395-101.69391-101.69390-101.69088
 Alpha  occ. eigenvalues -- -101.69087 -10.47783 -10.47781 -10.31612 -10.31611
 Alpha  occ. eigenvalues --   -9.60257  -9.60255  -9.60252  -9.60252  -9.59970
 Alpha  occ. eigenvalues --   -9.59969  -7.35677  -7.35675  -7.35674  -7.35674
 Alpha  occ. eigenvalues --   -7.35397  -7.35396  -7.34636  -7.34635  -7.34634
 Alpha  occ. eigenvalues --   -7.34633  -7.34602  -7.34601  -7.34599  -7.34599
 Alpha  occ. eigenvalues --   -7.34336  -7.34335  -7.34323  -7.34322  -1.05331
 Alpha  occ. eigenvalues --   -1.05133  -0.93769  -0.93528  -0.93445  -0.93330
 Alpha  occ. eigenvalues --   -0.85227  -0.84974  -0.69266  -0.68677  -0.58796
 Alpha  occ. eigenvalues --   -0.58582  -0.58404  -0.58050  -0.56194  -0.55934
 Alpha  occ. eigenvalues --   -0.50336  -0.50085  -0.49359  -0.49139  -0.44170
 Alpha  occ. eigenvalues --   -0.43910  -0.43011  -0.42746  -0.41410  -0.40806
 Alpha  occ. eigenvalues --   -0.40143  -0.39757  -0.39473  -0.38799  -0.38739
 Alpha  occ. eigenvalues --   -0.37821
 Alpha virt. eigenvalues --    0.06301   0.06661   0.08965   0.09248   0.09652
 Alpha virt. eigenvalues --    0.09901   0.15799   0.17418   0.20883   0.21004
 Alpha virt. eigenvalues --    0.21959   0.22724   0.23493   0.24039   0.43959
 Alpha virt. eigenvalues --    0.45667   0.47048   0.48068   0.48198   0.49474
 Alpha virt. eigenvalues --    0.50643   0.52586   0.52624   0.54011   0.54372
 Alpha virt. eigenvalues --    0.55247   0.63406   0.64104   0.64199   0.65857
 Alpha virt. eigenvalues --    0.66399   0.67784   0.74632   0.74924   0.75342
 Alpha virt. eigenvalues --    0.75400   0.75878   0.77494   0.78650   0.78828
 Alpha virt. eigenvalues --    0.79899   0.79986   0.80372   0.81429   0.81531
 Alpha virt. eigenvalues --    0.81597   0.82081   0.82243   0.82896   0.84802
 Alpha virt. eigenvalues --    0.85271   0.85357   0.85848   0.86331   0.86766
 Alpha virt. eigenvalues --    0.87017   0.87498   0.87690   0.88112   0.88181
 Alpha virt. eigenvalues --    0.88244   0.88405   0.88857   0.90654   0.91259
 Alpha virt. eigenvalues --    0.92673   0.95462   0.96106   0.99061   0.99522
 Alpha virt. eigenvalues --    1.02676   1.04108   1.07918   1.10073   1.11011
 Alpha virt. eigenvalues --    1.11514   1.12817   1.15640   1.16345   1.18595
 Alpha virt. eigenvalues --    1.20611   1.25581   1.33468   1.34826   1.36621
 Alpha virt. eigenvalues --    1.38138   1.38224   1.39310   1.46245   1.46906
 Alpha virt. eigenvalues --    1.69901   1.70025   1.70441   1.72679   1.94190
 Alpha virt. eigenvalues --    1.95233   2.00976   2.02708   2.03359   2.04166
 Alpha virt. eigenvalues --    2.23413   2.24346   2.24728   2.26125   2.31724
 Alpha virt. eigenvalues --    2.31820   2.31875   2.32195   2.59260   2.60941
          Condensed to atoms (all electrons):
 Mulliken charges:
               1
     1  C   -0.199308
     2  C   -0.111598
     3  Cl  -0.042412
     4  Cl  -0.042467
     5  Cl  -0.047610
     6  H    0.145730
     7  H    0.148820
     8  H    0.148827
     9  C   -0.199306
    10  C   -0.111588
    11  Cl  -0.042468
    12  Cl  -0.042405
    13  Cl  -0.047594
    14  H    0.145718
    15  H    0.148830
    16  H    0.148830
 Sum of Mulliken charges =   0.00000
 Mulliken charges with hydrogens summed into heavy atoms:
               1
     1  C    0.244069
     2  C   -0.111598
     3  Cl  -0.042412
     4  Cl  -0.042467
     5  Cl  -0.047610
     9  C    0.244073
    10  C   -0.111588
    11  Cl  -0.042468
    12  Cl  -0.042405
    13  Cl  -0.047594
 Electronic spatial extent (au):  <R**2>=           4071.0063
 Charge=              0.0000 electrons
 Dipole moment (field-independent basis, Debye):
    X=             -0.0009    Y=             -0.0008    Z=              0.0001  Tot=              0.0012
   1 Symmetry operations used in ECPInt.
 ECPInt:  NShTT=    3570 NPrTT=   16498 LenC2=    3300 LenP2D=   10242.
 LDataN:  DoStor=T MaxTD1= 5 Len=  102
 Calling FoFJK, ICntrl=      2127 FMM=F ISym2X=0 I1Cent= 0 IOpClX= 0 NMat=1 NMatS=1 NMatT=0.

 GradGradGradGradGradGradGradGradGradGradGradGradGradGradGradGradGradGrad
 FormGI is forming the generalized inverse of G from B-inverse, IUseBI=4.
 Internal  Forces:  Max     0.010520832 RMS     0.002876296
 Step number   1 out of a maximum of  100
 All quantities printed in internal units (Hartrees-Bohrs-Radians)
 Mixed Optimization -- RFO/linear search
 Second derivative matrix not updated -- first step.
 ITU=  0
     Eigenvalues ---    0.00442   0.01238   0.01243   0.01365   0.02125
     Eigenvalues ---    0.02233   0.02368   0.02827   0.03234   0.04385
     Eigenvalues ---    0.05229   0.05828   0.06102   0.06494   0.06947
     Eigenvalues ---    0.07178   0.08482   0.08681   0.08700   0.08929
     Eigenvalues ---    0.09142   0.10128   0.11416   0.12343   0.13217
     Eigenvalues ---    0.15027   0.16682   0.18656   0.25739   0.26696
     Eigenvalues ---    0.26889   0.26947   0.27559   0.27562   0.30648
     Eigenvalues ---    0.31592   0.32469   0.35065   0.35070   0.35071
     Eigenvalues ---    0.35072   0.35072
 Linear search not attempted -- first point.
 Iteration  1 RMS(Cart)=  0.02975627 RMS(Int)=  0.00033311
 Iteration  2 RMS(Cart)=  0.00037185 RMS(Int)=  0.00007828
 Iteration  3 RMS(Cart)=  0.00000009 RMS(Int)=  0.00007828
 Variable       Old X    -DE/DX   Delta X   Delta X   Delta X     New X
                                 (Linear)    (Quad)   (Total)
    R1        2.84896   0.00443   0.00000   0.01388   0.01388   2.86284
    R2        2.05568   0.01052   0.00000   0.02971   0.02972   2.08540
    R3        2.05558   0.00930   0.00000   0.02627   0.02627   2.08185
    R4        2.05558   0.00930   0.00000   0.02626   0.02626   2.08184
    R5        3.36419   0.00524   0.00000   0.02096   0.02094   3.38513
    R6        3.36423   0.00523   0.00000   0.02091   0.02089   3.38512
    R7        3.36812   0.00470   0.00000   0.01685   0.01685   3.38497
    R8        5.43862   0.00138   0.00000   0.05082   0.05084   5.48946
    R9        5.44288   0.00138   0.00000   0.05089   0.05090   5.49378
   R10        5.44354   0.00138   0.00000   0.05083   0.05085   5.49439
   R11        5.43579   0.00138   0.00000   0.05098   0.05100   5.48679
   R12        2.84897   0.00443   0.00000   0.01388   0.01388   2.86285
   R13        2.05571   0.01051   0.00000   0.02969   0.02969   2.08539
   R14        2.05561   0.00929   0.00000   0.02624   0.02624   2.08184
   R15        2.05560   0.00929   0.00000   0.02624   0.02624   2.08185
   R16        3.36426   0.00522   0.00000   0.02089   0.02086   3.38513
   R17        3.36421   0.00524   0.00000   0.02095   0.02093   3.38513
   R18        3.36806   0.00471   0.00000   0.01689   0.01689   3.38495
    A1        1.91549   0.00162   0.00000   0.02001   0.02014   1.93563
    A2        1.91517  -0.00096   0.00000  -0.00988  -0.00998   1.90519
    A3        1.91521  -0.00096   0.00000  -0.00988  -0.00997   1.90524
    A4        1.90557  -0.00008   0.00000   0.00003   0.00004   1.90561
    A5        1.90560  -0.00007   0.00000   0.00014   0.00016   1.90576
    A6        1.90669   0.00046   0.00000  -0.00041  -0.00049   1.90620
    A7        1.93198  -0.00087   0.00000  -0.00789  -0.00779   1.92419
    A8        1.93201  -0.00087   0.00000  -0.00794  -0.00784   1.92417
    A9        1.93510  -0.00191   0.00000  -0.01648  -0.01650   1.91860
   A10        1.88909   0.00084   0.00000   0.01000   0.00983   1.89892
   A11        1.88696   0.00149   0.00000   0.01195   0.01177   1.89873
   A12        1.88709   0.00148   0.00000   0.01184   0.01166   1.89875
   A13        1.58898  -0.00116   0.00000  -0.01175  -0.01172   1.57726
   A14        1.58770  -0.00116   0.00000  -0.01174  -0.01171   1.57598
   A15        2.48673  -0.00107   0.00000   0.00886   0.00867   2.49541
   A16        2.48972  -0.00107   0.00000   0.00878   0.00859   2.49831
   A17        1.04975   0.00186   0.00000   0.00054   0.00046   1.05021
   A18        1.91547   0.00162   0.00000   0.02003   0.02015   1.93563
   A19        1.91521  -0.00097   0.00000  -0.00988  -0.00998   1.90523
   A20        1.91518  -0.00096   0.00000  -0.00988  -0.00997   1.90520
   A21        1.90560  -0.00007   0.00000   0.00011   0.00013   1.90573
   A22        1.90559  -0.00008   0.00000   0.00004   0.00005   1.90564
   A23        1.90668   0.00046   0.00000  -0.00041  -0.00049   1.90619
   A24        1.93199  -0.00087   0.00000  -0.00792  -0.00782   1.92417
   A25        1.93195  -0.00087   0.00000  -0.00789  -0.00779   1.92416
   A26        1.93508  -0.00190   0.00000  -0.01643  -0.01646   1.91862
   A27        1.88913   0.00084   0.00000   0.00998   0.00980   1.89893
   A28        1.88708   0.00148   0.00000   0.01186   0.01168   1.89876
   A29        1.88701   0.00148   0.00000   0.01189   0.01171   1.89872
   A30        1.58712  -0.00116   0.00000  -0.01169  -0.01166   1.57546
   A31        1.58946  -0.00116   0.00000  -0.01177  -0.01175   1.57771
   A32        1.04950   0.00186   0.00000   0.00057   0.00049   1.04999
   A33        2.48935  -0.00107   0.00000   0.00879   0.00860   2.49795
   A34        2.48701  -0.00107   0.00000   0.00884   0.00865   2.49565
    D1       -1.04820   0.00004   0.00000  -0.00106  -0.00104  -1.04925
    D2        1.04656  -0.00004   0.00000   0.00112   0.00111   1.04766
    D3        3.14086  -0.00001   0.00000  -0.00005  -0.00005   3.14081
    D4        3.14101  -0.00027   0.00000  -0.00738  -0.00733   3.13368
    D5       -1.04741  -0.00035   0.00000  -0.00520  -0.00518  -1.05259
    D6        1.04689  -0.00031   0.00000  -0.00638  -0.00634   1.04055
    D7        1.04583   0.00035   0.00000   0.00541   0.00539   1.05122
    D8        3.14059   0.00028   0.00000   0.00759   0.00754  -3.13505
    D9       -1.04829   0.00031   0.00000   0.00642   0.00638  -1.04190
   D10        0.97070   0.00030   0.00000   0.01740   0.01742   0.98812
   D11       -0.96746  -0.00031   0.00000  -0.01752  -0.01754  -0.98500
   D12        3.07051   0.00007   0.00000   0.01756   0.01762   3.08813
   D13        1.13235  -0.00054   0.00000  -0.01736  -0.01734   1.11501
   D14       -1.12919   0.00054   0.00000   0.01716   0.01714  -1.11204
   D15       -3.06735  -0.00007   0.00000  -0.01776  -0.01782  -3.08517
   D16        1.62335  -0.00049   0.00000  -0.02885  -0.02881   1.59454
   D17       -0.49691   0.00057   0.00000  -0.02063  -0.02062  -0.51753
   D18       -2.53713  -0.00242   0.00000  -0.04634  -0.04643  -2.58356
   D19       -1.62377   0.00049   0.00000   0.02880   0.02877  -1.59500
   D20        0.49647  -0.00057   0.00000   0.02061   0.02060   0.51708
   D21        2.53660   0.00243   0.00000   0.04640   0.04649   2.58309
   D22        0.32860  -0.00037   0.00000   0.01067   0.01055   0.33915
   D23       -2.09822  -0.00030   0.00000  -0.01125  -0.01134  -2.10956
   D24       -0.32859   0.00037   0.00000  -0.01067  -0.01056  -0.33915
   D25        2.10087   0.00029   0.00000   0.01112   0.01121   2.11208
   D26       -2.10186  -0.00028   0.00000  -0.01105  -0.01114  -2.11300
   D27        0.32842  -0.00037   0.00000   0.01072   0.01060   0.33902
   D28        2.09847   0.00030   0.00000   0.01124   0.01133   2.10980
   D29       -0.32844   0.00037   0.00000  -0.01070  -0.01058  -0.33902
   D30       -1.04662   0.00004   0.00000  -0.00116  -0.00114  -1.04776
   D31        1.04816  -0.00004   0.00000   0.00100   0.00099   1.04914
   D32       -3.14088   0.00000   0.00000  -0.00005  -0.00005  -3.14093
   D33       -3.14065  -0.00027   0.00000  -0.00760  -0.00755   3.13499
   D34       -1.04587  -0.00035   0.00000  -0.00544  -0.00542  -1.05129
   D35        1.04828  -0.00031   0.00000  -0.00649  -0.00645   1.04182
   D36        1.04737   0.00035   0.00000   0.00519   0.00517   1.05254
   D37       -3.14104   0.00027   0.00000   0.00735   0.00730  -3.13374
   D38       -1.04689   0.00031   0.00000   0.00630   0.00626  -1.04063
   D39        0.96656   0.00031   0.00000   0.01761   0.01763   0.98419
   D40       -0.97078  -0.00030   0.00000  -0.01733  -0.01734  -0.98813
   D41        3.06644   0.00007   0.00000   0.01784   0.01789   3.08433
   D42        1.12909  -0.00054   0.00000  -0.01710  -0.01708   1.11201
   D43       -1.13326   0.00054   0.00000   0.01743   0.01741  -1.11585
   D44       -3.07061  -0.00007   0.00000  -0.01751  -0.01756  -3.08817
   D45        1.62422  -0.00050   0.00000  -0.02887  -0.02883   1.59539
   D46       -0.49600   0.00057   0.00000  -0.02067  -0.02066  -0.51666
   D47       -2.53620  -0.00242   0.00000  -0.04639  -0.04647  -2.58267
   D48       -1.62345   0.00050   0.00000   0.02889   0.02885  -1.59460
   D49        0.49679  -0.00057   0.00000   0.02067   0.02066   0.51745
   D50        2.53704   0.00242   0.00000   0.04637   0.04645   2.58349
         Item               Value     Threshold  Converged?
 Maximum Force            0.010521     0.000015     NO 
 RMS     Force            0.002876     0.000010     NO 
 Maximum Displacement     0.091645     0.000060     NO 
 RMS     Displacement     0.029773     0.000040     NO 
 GradGradGradGradGradGradGradGradGradGradGradGradGradGradGradGradGradGrad

                    Distance matrix (angstroms):
                    1          2          3          4          5
     1  C    0.000000
     2  C    1.514949   0.000000
     3  Cl   2.717041   1.791332   0.000000
     4  Cl   2.717021   1.791327   2.913067   0.000000
     5  Cl   2.711730   1.791251   2.912804   2.912826   0.000000
     6  H    1.103546   2.169300   2.924868   2.924032   3.703668
     7  H    1.101667   2.145752   3.692908   2.899498   2.886447
     8  H    1.101663   2.145785   2.898843   3.692915   2.887197
     9  C    4.742793   4.393027   3.845096   3.846200   6.075048
    10  C    4.392657   4.548647   4.248944   4.250342   6.336111
    11  Cl   3.846393   4.250345   3.654842   4.675293   5.954343
    12  Cl   3.843888   4.248483   4.672333   3.655026   5.952926
    13  Cl   6.074530   6.336073   5.953456   5.954335   8.125211
    14  H    4.012946   3.422658   2.904897   2.907184   5.036790
    15  H    5.442047   5.032525   4.701298   4.107896   6.652898
    16  H    5.444033   5.034468   4.109241   4.703539   6.654703
                    6          7          8          9         10
     6  H    0.000000
     7  H    1.797347   0.000000
     8  H    1.797437   1.796186   0.000000
     9  C    4.012724   5.443745   5.442278   0.000000
    10  C    3.422145   5.033972   5.032157   1.514956   0.000000
    11  Cl   2.907504   4.703837   4.108013   2.717032   1.791331
    12  Cl   2.903485   4.107899   4.699933   2.717027   1.791335
    13  Cl   5.036138   6.653988   6.652359   2.711739   1.791238
    14  H    3.485287   4.737651   4.735928   1.103543   2.169305
    15  H    4.735421   5.996358   6.258394   1.101664   2.145783
    16  H    4.737724   6.261398   5.996977   1.101666   2.145764
                   11         12         13         14         15
    11  Cl   0.000000
    12  Cl   2.913077   0.000000
    13  Cl   2.912827   2.912790   0.000000
    14  H    2.924094   2.924794   3.703670   0.000000
    15  H    3.692920   2.898850   2.887161   1.797418   0.000000
    16  H    2.899487   3.692904   2.886513   1.797360   1.796184
                   16
    16  H    0.000000
 Framework group  C1[X(C4H6Cl6)]
 Deg. of freedom    42
                         Standard orientation:                         
 ---------------------------------------------------------------------
 Center     Atomic      Atomic             Coordinates (Angstroms)
 Number     Number       Type             X           Y           Z
 ---------------------------------------------------------------------
      1          6           0        1.756683   -0.000362   -1.592674
      2          6           0        2.268172   -0.000059   -0.166682
      3         17           0        1.687576    1.456255    0.699880
      4         17           0        1.688877   -1.456813    0.700001
      5         17           0        4.059412    0.000766   -0.160570
      6          1           0        0.653369   -0.001677   -1.615224
      7          1           0        2.130418   -0.897961   -2.110660
      8          1           0        2.128421    0.898224   -2.110378
      9          6           0       -1.757100   -0.000324    1.592827
     10          6           0       -2.268241   -0.000029    0.166704
     11         17           0       -1.688888    1.457183   -0.699177
     12         17           0       -1.687249   -1.455894   -0.700353
     13         17           0       -4.059467   -0.001074    0.160125
     14          1           0       -0.653793    0.000995    1.615649
     15          1           0       -2.128927   -0.899157    2.110038
     16          1           0       -2.131000    0.897025    2.111123
 ---------------------------------------------------------------------
 Rotational constants (GHZ):           1.1113614           0.2628204           0.2443615
   176 basis functions,   346 primitive gaussians,   186 cartesian basis functions
    66 alpha electrons       66 beta electrons
       nuclear repulsion energy      1196.2552923788 Hartrees.
 NAtoms=   16 NActive=   16 NUniq=   16 SFac= 1.00D+00 NAtFMM=   60 NAOKFM=F Big=F
 Nuclear repulsion after empirical dispersion term =     1196.2454513770 Hartrees.
   1 Symmetry operations used in ECPInt.
 ECPInt:  NShTT=    3570 NPrTT=   16498 LenC2=    3292 LenP2D=   10182.
 LDataN:  DoStor=T MaxTD1= 4 Len=   56
 Initial guess from the checkpoint file:  "/scratch/user/peterchao1/peterchao1/6113296_1660079069000000192342280/Gau-228835.chk"
 B after Tr=     0.000000   -0.000000    0.000000
         Rot=    0.999999    0.000027   -0.001329   -0.000001 Ang=   0.15 deg.
 ExpMin= 1.22D-01 ExpMax= 1.04D+04 ExpMxC= 1.57D+03 IAcc=3 IRadAn=         5 AccDes= 0.00D+00
 Harris functional with IExCor= 4639 and IRadAn=       5 diagonalized for initial guess.
 HarFok:  IExCor= 4639 AccDes= 0.00D+00 IRadAn=         5 IDoV= 1 UseB2=F ITyADJ=14
 ICtDFT=  3500011 ScaDFX=  1.000000  1.000000  1.000000  1.000000
 FoFCou: FMM=F IPFlag=           0 FMFlag=      100000 FMFlg1=           0
         NFxFlg=           0 DoJE=T BraDBF=F KetDBF=T FulRan=T
         wScrn=  0.000000 ICntrl=       500 IOpCl=  0 I1Cent=   200000004 NGrid=           0
         NMat0=    1 NMatS0=      1 NMatT0=    0 NMatD0=    1 NMtDS0=    0 NMtDT0=    0
 Petite list used in FoFCou.
     Accept linear search using points  3 and  4.
     Accept linear search using points  2 and  3.
     Minimum is close to point  2 DX=  1.42D-03 DF= -2.48D-10 DXR=  1.42D-03 DFR=  2.02D-06 which will be used.
 SCF Done:  E(RwB97XD) =  -2916.17080516     a.u. after    5 cycles
            Convg  =    0.7890D-08                    29 Fock formations.
              S**2 =  0.0000                  -V/T =  2.0025
   1 Symmetry operations used in ECPInt.
 ECPInt:  NShTT=    3570 NPrTT=   16498 LenC2=    3292 LenP2D=   10182.
 LDataN:  DoStor=T MaxTD1= 5 Len=  102
 Calling FoFJK, ICntrl=      2127 FMM=F ISym2X=0 I1Cent= 0 IOpClX= 0 NMat=1 NMatS=1 NMatT=0.

 GradGradGradGradGradGradGradGradGradGradGradGradGradGradGradGradGradGrad
 Using GEDIIS/GDIIS optimizer.
 FormGI is forming the generalized inverse of G from B-inverse, IUseBI=4.
 Internal  Forces:  Max     0.000987068 RMS     0.000328786
 Step number   2 out of a maximum of  100
 All quantities printed in internal units (Hartrees-Bohrs-Radians)
 Mixed Optimization -- En-DIIS/RFO-DIIS
 Trust test= 9.43D-01 RLast= 2.00D-01 DXMaxT set to 5.05D-01
 ITU=  1  0
 Use linear search instead of GDIIS.
     Eigenvalues ---    0.00438   0.01211   0.01224   0.01285   0.01978
     Eigenvalues ---    0.02197   0.02374   0.02758   0.03194   0.04273
     Eigenvalues ---    0.05228   0.05833   0.06119   0.06605   0.07009
     Eigenvalues ---    0.07382   0.08628   0.08818   0.08842   0.09091
     Eigenvalues ---    0.09218   0.10300   0.11676   0.12513   0.12942
     Eigenvalues ---    0.15177   0.16581   0.18599   0.25756   0.26718
     Eigenvalues ---    0.26901   0.27177   0.27561   0.28291   0.30686
     Eigenvalues ---    0.31604   0.32439   0.34812   0.35071   0.35071
     Eigenvalues ---    0.35072   0.36985
 Quartic linear search produced a step of  0.00455.
 Iteration  1 RMS(Cart)=  0.00790992 RMS(Int)=  0.00007610
 Iteration  2 RMS(Cart)=  0.00006969 RMS(Int)=  0.00004615
 Iteration  3 RMS(Cart)=  0.00000000 RMS(Int)=  0.00004615
 Variable       Old X    -DE/DX   Delta X   Delta X   Delta X     New X
                                 (Linear)    (Quad)   (Total)
    R1        2.86284  -0.00004   0.00006   0.00036   0.00042   2.86326
    R2        2.08540  -0.00099   0.00014  -0.00180  -0.00167   2.08373
    R3        2.08185  -0.00013   0.00012   0.00053   0.00065   2.08250
    R4        2.08184  -0.00013   0.00012   0.00053   0.00065   2.08249
    R5        3.38513  -0.00042   0.00010   0.00069   0.00074   3.38587
    R6        3.38512  -0.00042   0.00009   0.00070   0.00075   3.38586
    R7        3.38497  -0.00092   0.00008  -0.00276  -0.00269   3.38229
    R8        5.48946   0.00058   0.00023   0.02235   0.02261   5.51206
    R9        5.49378   0.00058   0.00023   0.02222   0.02248   5.51626
   R10        5.49439   0.00058   0.00023   0.02217   0.02243   5.51681
   R11        5.48679   0.00059   0.00023   0.02265   0.02291   5.50970
   R12        2.86285  -0.00004   0.00006   0.00035   0.00041   2.86326
   R13        2.08539  -0.00099   0.00013  -0.00180  -0.00166   2.08373
   R14        2.08184  -0.00013   0.00012   0.00053   0.00065   2.08249
   R15        2.08185  -0.00013   0.00012   0.00053   0.00065   2.08250
   R16        3.38513  -0.00042   0.00009   0.00069   0.00074   3.38586
   R17        3.38513  -0.00042   0.00010   0.00070   0.00075   3.38588
   R18        3.38495  -0.00092   0.00008  -0.00275  -0.00267   3.38228
    A1        1.93563  -0.00046   0.00009  -0.00251  -0.00231   1.93332
    A2        1.90519   0.00008  -0.00005  -0.00020  -0.00027   1.90492
    A3        1.90524   0.00008  -0.00005  -0.00016  -0.00024   1.90500
    A4        1.90561   0.00019   0.00000   0.00131   0.00128   1.90689
    A5        1.90576   0.00019   0.00000   0.00135   0.00132   1.90707
    A6        1.90620  -0.00007  -0.00000   0.00024   0.00025   1.90645
    A7        1.92419   0.00030  -0.00004   0.00204   0.00205   1.92623
    A8        1.92417   0.00031  -0.00004   0.00203   0.00204   1.92621
    A9        1.91860   0.00019  -0.00008  -0.00014  -0.00026   1.91835
   A10        1.89892  -0.00007   0.00004   0.00232   0.00228   1.90120
   A11        1.89873  -0.00038   0.00005  -0.00320  -0.00314   1.89559
   A12        1.89875  -0.00038   0.00005  -0.00316  -0.00310   1.89565
   A13        1.57726   0.00001  -0.00005  -0.00444  -0.00451   1.57276
   A14        1.57598   0.00002  -0.00005  -0.00441  -0.00447   1.57152
   A15        2.49541   0.00034   0.00004   0.00960   0.00948   2.50489
   A16        2.49831   0.00034   0.00004   0.00950   0.00938   2.50769
   A17        1.05021  -0.00029   0.00000  -0.00353  -0.00357   1.04665
   A18        1.93563  -0.00046   0.00009  -0.00250  -0.00230   1.93333
   A19        1.90523   0.00008  -0.00005  -0.00016  -0.00024   1.90499
   A20        1.90520   0.00008  -0.00005  -0.00020  -0.00028   1.90493
   A21        1.90573   0.00019   0.00000   0.00135   0.00132   1.90705
   A22        1.90564   0.00019   0.00000   0.00131   0.00127   1.90691
   A23        1.90619  -0.00007  -0.00000   0.00024   0.00025   1.90645
   A24        1.92417   0.00030  -0.00004   0.00203   0.00204   1.92621
   A25        1.92416   0.00030  -0.00004   0.00205   0.00206   1.92623
   A26        1.91862   0.00019  -0.00007  -0.00016  -0.00027   1.91835
   A27        1.89893  -0.00007   0.00004   0.00233   0.00229   1.90121
   A28        1.89876  -0.00037   0.00005  -0.00317  -0.00310   1.89566
   A29        1.89872  -0.00038   0.00005  -0.00320  -0.00314   1.89559
   A30        1.57546   0.00002  -0.00005  -0.00435  -0.00441   1.57105
   A31        1.57771   0.00001  -0.00005  -0.00450  -0.00456   1.57315
   A32        1.04999  -0.00029   0.00000  -0.00350  -0.00354   1.04645
   A33        2.49795   0.00034   0.00004   0.00951   0.00939   2.50734
   A34        2.49565   0.00034   0.00004   0.00959   0.00947   2.50512
    D1       -1.04925  -0.00015  -0.00000  -0.00271  -0.00270  -1.05195
    D2        1.04766   0.00015   0.00001   0.00278   0.00277   1.05044
    D3        3.14081   0.00000  -0.00000   0.00006   0.00006   3.14087
    D4        3.13368  -0.00015  -0.00003  -0.00263  -0.00266   3.13101
    D5       -1.05259   0.00016  -0.00002   0.00286   0.00281  -1.04978
    D6        1.04055   0.00001  -0.00003   0.00013   0.00009   1.04065
    D7        1.05122  -0.00015   0.00002  -0.00272  -0.00267   1.04855
    D8       -3.13505   0.00015   0.00003   0.00278   0.00281  -3.13224
    D9       -1.04190  -0.00000   0.00003   0.00005   0.00009  -1.04182
   D10        0.98812   0.00030   0.00008   0.01452   0.01465   1.00277
   D11       -0.98500  -0.00031  -0.00008  -0.01469  -0.01481  -0.99981
   D12        3.08813   0.00024   0.00008   0.01355   0.01368   3.10182
   D13        1.11501  -0.00038  -0.00008  -0.01566  -0.01577   1.09924
   D14       -1.11204   0.00037   0.00008   0.01543   0.01554  -1.09650
   D15       -3.08517  -0.00024  -0.00008  -0.01378  -0.01391  -3.09908
   D16        1.59454   0.00003  -0.00013  -0.00971  -0.00979   1.58475
   D17       -0.51753  -0.00048  -0.00009  -0.01494  -0.01504  -0.53257
   D18       -2.58356   0.00022  -0.00021  -0.01064  -0.01083  -2.59439
   D19       -1.59500  -0.00003   0.00013   0.00970   0.00978  -1.58521
   D20        0.51708   0.00048   0.00009   0.01494   0.01504   0.53212
   D21        2.58309  -0.00022   0.00021   0.01062   0.01081   2.59390
   D22        0.33915   0.00029   0.00005   0.00833   0.00835   0.34750
   D23       -2.10956  -0.00017  -0.00005  -0.01086  -0.01093  -2.12048
   D24       -0.33915  -0.00029  -0.00005  -0.00834  -0.00835  -0.34750
   D25        2.11208   0.00017   0.00005   0.01073   0.01079   2.12287
   D26       -2.11300  -0.00016  -0.00005  -0.01067  -0.01073  -2.12373
   D27        0.33902   0.00029   0.00005   0.00836   0.00838   0.34740
   D28        2.10980   0.00017   0.00005   0.01084   0.01091   2.12071
   D29       -0.33902  -0.00029  -0.00005  -0.00836  -0.00838  -0.34740
   D30       -1.04776  -0.00015  -0.00001  -0.00279  -0.00279  -1.05055
   D31        1.04914   0.00015   0.00000   0.00271   0.00270   1.05185
   D32       -3.14093  -0.00000  -0.00000  -0.00005  -0.00005  -3.14098
   D33        3.13499  -0.00015  -0.00003  -0.00279  -0.00283   3.13216
   D34       -1.05129   0.00015  -0.00002   0.00271   0.00267  -1.04862
   D35        1.04182   0.00000  -0.00003  -0.00005  -0.00009   1.04173
   D36        1.05254  -0.00016   0.00002  -0.00287  -0.00283   1.04971
   D37       -3.13374   0.00015   0.00003   0.00263   0.00266  -3.13108
   D38       -1.04063  -0.00001   0.00003  -0.00013  -0.00010  -1.04073
   D39        0.98419   0.00031   0.00008   0.01476   0.01488   0.99907
   D40       -0.98813  -0.00030  -0.00008  -0.01448  -0.01460  -1.00273
   D41        3.08433   0.00024   0.00008   0.01386   0.01399   3.09832
   D42        1.11201  -0.00037  -0.00008  -0.01538  -0.01549   1.09652
   D43       -1.11585   0.00038   0.00008   0.01573   0.01584  -1.10000
   D44       -3.08817  -0.00024  -0.00008  -0.01351  -0.01364  -3.10181
   D45        1.59539   0.00003  -0.00013  -0.00975  -0.00983   1.58556
   D46       -0.51666  -0.00049  -0.00009  -0.01501  -0.01511  -0.53177
   D47       -2.58267   0.00022  -0.00021  -0.01069  -0.01087  -2.59354
   D48       -1.59460  -0.00003   0.00013   0.00973   0.00981  -1.58479
   D49        0.51745   0.00049   0.00009   0.01497   0.01507   0.53253
   D50        2.58349  -0.00022   0.00021   0.01067   0.01086   2.59435
         Item               Value     Threshold  Converged?
 Maximum Force            0.000987     0.000015     NO 
 RMS     Force            0.000329     0.000010     NO 
 Maximum Displacement     0.032107     0.000060     NO 
 RMS     Displacement     0.007945     0.000040     NO 
 GradGradGradGradGradGradGradGradGradGradGradGradGradGradGradGradGradGrad

                    Distance matrix (angstroms):
                    1          2          3          4          5
     1  C    0.000000
     2  C    1.515171   0.000000
     3  Cl   2.719467   1.791723   0.000000
     4  Cl   2.719439   1.791722   2.916084   0.000000
     5  Cl   2.710453   1.789830   2.908690   2.908755   0.000000
     6  H    1.102664   2.167162   2.926854   2.926042   3.700557
     7  H    1.102013   2.146004   3.694997   2.900807   2.885306
     8  H    1.102009   2.146061   2.900269   3.695014   2.885989
     9  C    4.742033   4.400650   3.860763   3.861857   6.084380
    10  C    4.400320   4.564334   4.273336   4.274672   6.350852
    11  Cl   3.862029   4.274676   3.689949   4.704579   5.977102
    12  Cl   3.859705   4.272951   4.701801   3.690136   5.975815
    13  Cl   6.083931   6.350825   5.976264   5.977099   8.138802
    14  H    4.005706   3.426197   2.916859   2.919080   5.044411
    15  H    5.440931   5.038700   4.714159   4.121748   6.661101
    16  H    5.442723   5.040465   4.122880   4.716305   6.662723
                    6          7          8          9         10
     6  H    0.000000
     7  H    1.797725   0.000000
     8  H    1.797840   1.796912   0.000000
     9  C    4.005500   5.442480   5.441120   0.000000
    10  C    3.425736   5.040038   5.038353   1.515174   0.000000
    11  Cl   2.919372   4.716581   4.121830   2.719445   1.791722
    12  Cl   2.915608   4.121718   4.712945   2.719467   1.791731
    13  Cl   5.043843   6.662116   6.660613   2.710450   1.789823
    14  H    3.469088   4.730552   4.728948   1.102663   2.167172
    15  H    4.728500   5.994719   6.257115   1.102009   2.146056
    16  H    4.730601   6.259857   5.995236   1.102012   2.146009
                   11         12         13         14         15
    11  Cl   0.000000
    12  Cl   2.916098   0.000000
    13  Cl   2.908754   2.908686   0.000000
    14  H    2.926116   2.926806   3.700557   0.000000
    15  H    3.695014   2.900296   2.885935   1.797821   0.000000
    16  H    2.900780   3.695001   2.885352   1.797736   1.796909
                   16
    16  H    0.000000
 Framework group  C1[X(C4H6Cl6)]
 Deg. of freedom    42
                         Standard orientation:                         
 ---------------------------------------------------------------------
 Center     Atomic      Atomic             Coordinates (Angstroms)
 Number     Number       Type             X           Y           Z
 ---------------------------------------------------------------------
      1          6           0        1.757827   -0.000366   -1.590885
      2          6           0        2.276016   -0.000070   -0.167079
      3         17           0        1.704887    1.457765    0.704012
      4         17           0        1.706112   -1.458318    0.704121
      5         17           0        4.065843    0.000747   -0.169753
      6          1           0        0.655263   -0.001619   -1.605742
      7          1           0        2.129326   -0.898381   -2.110491
      8          1           0        2.127473    0.898529   -2.110280
      9          6           0       -1.758190   -0.000248    1.591018
     10          6           0       -2.276069   -0.000011    0.167097
     11         17           0       -1.706116    1.458646   -0.703388
     12         17           0       -1.704610   -1.457451   -0.704453
     13         17           0       -4.065891   -0.001009    0.169379
     14          1           0       -0.655631    0.000988    1.606130
     15          1           0       -2.127936   -0.899353    2.109980
     16          1           0       -2.129822    0.897556    2.110893
 ---------------------------------------------------------------------
 Rotational constants (GHZ):           1.1078330           0.2609720           0.2427876
   176 basis functions,   346 primitive gaussians,   186 cartesian basis functions
    66 alpha electrons       66 beta electrons
       nuclear repulsion energy      1194.0442924461 Hartrees.
 NAtoms=   16 NActive=   16 NUniq=   16 SFac= 1.00D+00 NAtFMM=   60 NAOKFM=F Big=F
 Nuclear repulsion after empirical dispersion term =     1194.0344915688 Hartrees.
   1 Symmetry operations used in ECPInt.
 ECPInt:  NShTT=    3570 NPrTT=   16498 LenC2=    3290 LenP2D=   10171.
 LDataN:  DoStor=T MaxTD1= 4 Len=   56
 Initial guess from the checkpoint file:  "/scratch/user/peterchao1/peterchao1/6113296_1660079069000000192342280/Gau-228835.chk"
 B after Tr=     0.000000    0.000000   -0.000000
         Rot=    1.000000    0.000013   -0.000784    0.000005 Ang=   0.09 deg.
 ExpMin= 1.22D-01 ExpMax= 1.04D+04 ExpMxC= 1.57D+03 IAcc=3 IRadAn=         5 AccDes= 0.00D+00
 Harris functional with IExCor= 4639 and IRadAn=       5 diagonalized for initial guess.
 HarFok:  IExCor= 4639 AccDes= 0.00D+00 IRadAn=         5 IDoV= 1 UseB2=F ITyADJ=14
 ICtDFT=  3500011 ScaDFX=  1.000000  1.000000  1.000000  1.000000
 FoFCou: FMM=F IPFlag=           0 FMFlag=      100000 FMFlg1=           0
         NFxFlg=           0 DoJE=T BraDBF=F KetDBF=T FulRan=T
         wScrn=  0.000000 ICntrl=       500 IOpCl=  0 I1Cent=   200000004 NGrid=           0
         NMat0=    1 NMatS0=      1 NMatT0=    0 NMatD0=    1 NMtDS0=    0 NMtDT0=    0
 Petite list used in FoFCou.
     Accept linear search using points  1 and  2.
     Minimum is close to point  2 DX= -6.22D-05 DF= -4.55D-13 DXR=  6.22D-05 DFR=  7.72D-09 which will be used.
 SCF Done:  E(RwB97XD) =  -2916.17095279     a.u. after    3 cycles
            Convg  =    0.1523D-08                    20 Fock formations.
              S**2 =  0.0000                  -V/T =  2.0025
   1 Symmetry operations used in ECPInt.
 ECPInt:  NShTT=    3570 NPrTT=   16498 LenC2=    3290 LenP2D=   10171.
 LDataN:  DoStor=T MaxTD1= 5 Len=  102
 Calling FoFJK, ICntrl=      2127 FMM=F ISym2X=0 I1Cent= 0 IOpClX= 0 NMat=1 NMatS=1 NMatT=0.

 GradGradGradGradGradGradGradGradGradGradGradGradGradGradGradGradGradGrad
 Using GEDIIS/GDIIS optimizer.
 FormGI is forming the generalized inverse of G from B-inverse, IUseBI=4.
 Internal  Forces:  Max     0.000552583 RMS     0.000231544
 Step number   3 out of a maximum of  100
 All quantities printed in internal units (Hartrees-Bohrs-Radians)
 Mixed Optimization -- En-DIIS/RFO-DIIS
 Swapping is turned off.
 Trust test= 1.62D+00 RLast= 8.85D-02 DXMaxT set to 5.05D-01
 ITU=  1  1  0
     Eigenvalues ---    0.00410   0.00436   0.01178   0.01231   0.01604
     Eigenvalues ---    0.02182   0.02379   0.02688   0.03059   0.04280
     Eigenvalues ---    0.05248   0.05840   0.06243   0.06638   0.07071
     Eigenvalues ---    0.07415   0.08784   0.08902   0.08947   0.09185
     Eigenvalues ---    0.10286   0.10683   0.11830   0.12488   0.12937
     Eigenvalues ---    0.15251   0.16575   0.18544   0.25746   0.26706
     Eigenvalues ---    0.26914   0.27251   0.27561   0.29470   0.30692
     Eigenvalues ---    0.32005   0.32405   0.35071   0.35071   0.35072
     Eigenvalues ---    0.35863   0.37057
 En-DIIS/RFO-DIIS/Sim-DIIS IScMMF=       -3 using points:     3    2
 RFO step:  Lambda=-4.13993336D-04.
 DidBck=F Rises=F RFO-DIIS coefs:    3.00000   -2.00000
 Iteration  1 RMS(Cart)=  0.02777706 RMS(Int)=  0.00097795
 Iteration  2 RMS(Cart)=  0.00087344 RMS(Int)=  0.00068769
 Iteration  3 RMS(Cart)=  0.00000048 RMS(Int)=  0.00068769
 Variable       Old X    -DE/DX   Delta X   Delta X   Delta X     New X
                                 (Linear)    (Quad)   (Total)
    R1        2.86326  -0.00029   0.00084  -0.00177  -0.00093   2.86232
    R2        2.08373  -0.00055  -0.00333  -0.00064  -0.00397   2.07977
    R3        2.08250  -0.00039   0.00131  -0.00150  -0.00019   2.08231
    R4        2.08249  -0.00039   0.00131  -0.00151  -0.00020   2.08229
    R5        3.38587  -0.00050   0.00148  -0.00043   0.00040   3.38626
    R6        3.38586  -0.00050   0.00149  -0.00046   0.00039   3.38625
    R7        3.38229  -0.00002  -0.00537   0.00339  -0.00198   3.38031
    R8        5.51206   0.00043   0.04521   0.02356   0.06916   5.58123
    R9        5.51626   0.00043   0.04496   0.02378   0.06913   5.58539
   R10        5.51681   0.00043   0.04485   0.02361   0.06886   5.58567
   R11        5.50970   0.00044   0.04582   0.02378   0.06998   5.57968
   R12        2.86326  -0.00029   0.00082  -0.00178  -0.00095   2.86231
   R13        2.08373  -0.00055  -0.00333  -0.00064  -0.00396   2.07977
   R14        2.08249  -0.00039   0.00131  -0.00151  -0.00020   2.08229
   R15        2.08250  -0.00039   0.00131  -0.00150  -0.00019   2.08231
   R16        3.38586  -0.00051   0.00148  -0.00047   0.00036   3.38622
   R17        3.38588  -0.00050   0.00149  -0.00044   0.00041   3.38629
   R18        3.38228  -0.00002  -0.00535   0.00340  -0.00195   3.38033
    A1        1.93332  -0.00025  -0.00462  -0.00213  -0.00512   1.92819
    A2        1.90492   0.00005  -0.00054   0.00002  -0.00097   1.90395
    A3        1.90500   0.00005  -0.00048  -0.00002  -0.00094   1.90406
    A4        1.90689   0.00009   0.00255   0.00055   0.00261   1.90949
    A5        1.90707   0.00008   0.00263   0.00051   0.00265   1.90973
    A6        1.90645  -0.00002   0.00051   0.00111   0.00183   1.90828
    A7        1.92623   0.00004   0.00410  -0.00502  -0.00028   1.92596
    A8        1.92621   0.00004   0.00407  -0.00500  -0.00028   1.92592
    A9        1.91835   0.00017  -0.00051   0.00280   0.00166   1.92000
   A10        1.90120  -0.00017   0.00456  -0.00072   0.00289   1.90409
   A11        1.89559  -0.00004  -0.00628   0.00413  -0.00202   1.89357
   A12        1.89565  -0.00004  -0.00620   0.00407  -0.00200   1.89365
   A13        1.57276   0.00020  -0.00901  -0.00104  -0.00998   1.56277
   A14        1.57152   0.00020  -0.00893  -0.00109  -0.00996   1.56155
   A15        2.50489   0.00032   0.01896   0.01617   0.03264   2.53752
   A16        2.50769   0.00032   0.01876   0.01598   0.03222   2.53991
   A17        1.04665  -0.00033  -0.00713  -0.00542  -0.01302   1.03362
   A18        1.93333  -0.00024  -0.00460  -0.00213  -0.00510   1.92823
   A19        1.90499   0.00005  -0.00048  -0.00002  -0.00093   1.90406
   A20        1.90493   0.00005  -0.00055   0.00001  -0.00098   1.90395
   A21        1.90705   0.00008   0.00263   0.00052   0.00266   1.90970
   A22        1.90691   0.00009   0.00254   0.00054   0.00259   1.90950
   A23        1.90645  -0.00002   0.00051   0.00111   0.00183   1.90828
   A24        1.92621   0.00004   0.00408  -0.00499  -0.00028   1.92593
   A25        1.92623   0.00004   0.00413  -0.00504  -0.00025   1.92597
   A26        1.91835   0.00017  -0.00054   0.00281   0.00163   1.91998
   A27        1.90121  -0.00017   0.00457  -0.00073   0.00288   1.90409
   A28        1.89566  -0.00004  -0.00621   0.00408  -0.00200   1.89366
   A29        1.89559  -0.00004  -0.00627   0.00413  -0.00203   1.89356
   A30        1.57105   0.00020  -0.00883  -0.00103  -0.00979   1.56126
   A31        1.57315   0.00020  -0.00913  -0.00108  -0.01015   1.56301
   A32        1.04645  -0.00033  -0.00708  -0.00540  -0.01296   1.03349
   A33        2.50734   0.00032   0.01878   0.01600   0.03226   2.53959
   A34        2.50512   0.00032   0.01894   0.01616   0.03260   2.53773
    D1       -1.05195   0.00008  -0.00541   0.00386  -0.00139  -1.05335
    D2        1.05044  -0.00008   0.00555  -0.00355   0.00184   1.05228
    D3        3.14087   0.00000   0.00011   0.00012   0.00023   3.14110
    D4        3.13101   0.00010  -0.00533   0.00450  -0.00081   3.13020
    D5       -1.04978  -0.00006   0.00563  -0.00291   0.00242  -1.04736
    D6        1.04065   0.00002   0.00019   0.00076   0.00081   1.04146
    D7        1.04855   0.00006  -0.00534   0.00315  -0.00190   1.04665
    D8       -3.13224  -0.00010   0.00561  -0.00426   0.00134  -3.13090
    D9       -1.04182  -0.00002   0.00018  -0.00058  -0.00027  -1.04209
   D10        1.00277   0.00023   0.02929   0.02657   0.05650   1.05927
   D11       -0.99981  -0.00023  -0.02962  -0.02687  -0.05712  -1.05693
   D12        3.10182   0.00019   0.02737   0.02561   0.05377  -3.12760
   D13        1.09924  -0.00027  -0.03154  -0.02783  -0.05985   1.03939
   D14       -1.09650   0.00027   0.03108   0.02760   0.05917  -1.03734
   D15       -3.09908  -0.00019  -0.02782  -0.02584  -0.05445   3.12965
   D16        1.58475  -0.00017  -0.01958  -0.02156  -0.04041   1.54434
   D17       -0.53257  -0.00014  -0.03008  -0.01175  -0.04174  -0.57431
   D18       -2.59439   0.00003  -0.02166  -0.01858  -0.03982  -2.63421
   D19       -1.58521   0.00017   0.01957   0.02154   0.04038  -1.54483
   D20        0.53212   0.00014   0.03009   0.01172   0.04172   0.57384
   D21        2.59390  -0.00003   0.02161   0.01858   0.03978   2.63368
   D22        0.34750   0.00009   0.01670   0.00683   0.02322   0.37072
   D23       -2.12048  -0.00027  -0.02185  -0.02775  -0.04958  -2.17007
   D24       -0.34750  -0.00009  -0.01670  -0.00683  -0.02322  -0.37072
   D25        2.12287   0.00027   0.02158   0.02748   0.04904   2.17192
   D26       -2.12373  -0.00027  -0.02146  -0.02744  -0.04888  -2.17261
   D27        0.34740   0.00009   0.01676   0.00684   0.02328   0.37068
   D28        2.12071   0.00027   0.02181   0.02777   0.04955   2.17026
   D29       -0.34740  -0.00009  -0.01675  -0.00683  -0.02327  -0.37067
   D30       -1.05055   0.00008  -0.00558   0.00358  -0.00184  -1.05239
   D31        1.05185  -0.00008   0.00541  -0.00384   0.00141   1.05326
   D32       -3.14098  -0.00000  -0.00011  -0.00012  -0.00022  -3.14121
   D33        3.13216   0.00010  -0.00565   0.00428  -0.00135   3.13081
   D34       -1.04862  -0.00006   0.00533  -0.00314   0.00190  -1.04673
   D35        1.04173   0.00002  -0.00018   0.00058   0.00026   1.04199
   D36        1.04971   0.00006  -0.00566   0.00293  -0.00244   1.04727
   D37       -3.13108  -0.00010   0.00533  -0.00449   0.00082  -3.13026
   D38       -1.04073  -0.00002  -0.00019  -0.00077  -0.00082  -1.04155
   D39        0.99907   0.00023   0.02976   0.02691   0.05730   1.05638
   D40       -1.00273  -0.00023  -0.02921  -0.02655  -0.05640  -1.05913
   D41        3.09832   0.00019   0.02798   0.02588   0.05466  -3.13021
   D42        1.09652  -0.00027  -0.03098  -0.02757  -0.05904   1.03748
   D43       -1.10000   0.00027   0.03169   0.02788   0.06005  -1.03996
   D44       -3.10181  -0.00019  -0.02728  -0.02558  -0.05365   3.12773
   D45        1.58556  -0.00017  -0.01965  -0.02157  -0.04050   1.54506
   D46       -0.53177  -0.00014  -0.03021  -0.01174  -0.04187  -0.57363
   D47       -2.59354   0.00003  -0.02174  -0.01860  -0.03992  -2.63346
   D48       -1.58479   0.00017   0.01962   0.02154   0.04044  -1.54436
   D49        0.53253   0.00014   0.03014   0.01173   0.04179   0.57431
   D50        2.59435  -0.00003   0.02172   0.01856   0.03986   2.63421
         Item               Value     Threshold  Converged?
 Maximum Force            0.000553     0.000015     NO 
 RMS     Force            0.000232     0.000010     NO 
 Maximum Displacement     0.101648     0.000060     NO 
 RMS     Displacement     0.028286     0.000040     NO 
 GradGradGradGradGradGradGradGradGradGradGradGradGradGradGradGradGradGrad

                    Distance matrix (angstroms):
                    1          2          3          4          5
     1  C    0.000000
     2  C    1.514677   0.000000
     3  Cl   2.718998   1.791934   0.000000
     4  Cl   2.718961   1.791927   2.919424   0.000000
     5  Cl   2.710730   1.788782   2.905899   2.905978   0.000000
     6  H    1.100565   2.161446   2.921754   2.921162   3.696332
     7  H    1.101910   2.144785   3.694147   2.898035   2.885719
     8  H    1.101902   2.144860   2.897803   3.694162   2.886141
     9  C    4.734996   4.433069   3.910533   3.911828   6.128089
    10  C    4.432832   4.633615   4.358619   4.360004   6.420672
    11  Cl   3.911879   4.359960   3.799203   4.792750   6.060505
    12  Cl   3.909875   4.358433   4.790115   3.799425   6.059415
    13  Cl   6.127797   6.420673   6.059652   6.060570   8.208484
    14  H    3.972915   3.442240   2.953458   2.955661   5.080669
    15  H    5.430359   5.062571   4.751033   4.163177   6.697453
    16  H    5.431636   5.063848   4.163508   4.753126   6.698556
                    6          7          8          9         10
     6  H    0.000000
     7  H    1.797588   0.000000
     8  H    1.797729   1.797905   0.000000
     9  C    3.972753   5.431517   5.430434   0.000000
    10  C    3.441905   5.063591   5.062266   1.514671   0.000000
    11  Cl   2.955810   4.753276   4.163104   2.718950   1.791911
    12  Cl   2.952641   4.162827   4.750224   2.719017   1.791946
    13  Cl   5.080292   6.698208   6.697071   2.710714   1.788793
    14  H    3.401341   4.696752   4.695467   1.100565   2.161464
    15  H    4.695178   5.980429   6.243924   1.101902   2.144852
    16  H    4.696729   6.245981   5.980671   1.101909   2.144774
                   11         12         13         14         15
    11  Cl   0.000000
    12  Cl   2.919426   0.000000
    13  Cl   2.905982   2.905902   0.000000
    14  H    2.921239   2.921759   3.696336   0.000000
    15  H    3.694147   2.897859   2.886064   1.797715   0.000000
    16  H    2.897977   3.694161   2.885736   1.797589   1.797903
                   16
    16  H    0.000000
 Framework group  C1[X(C4H6Cl6)]
 Deg. of freedom    42
                         Standard orientation:                         
 ---------------------------------------------------------------------
 Center     Atomic      Atomic             Coordinates (Angstroms)
 Number     Number       Type             X           Y           Z
 ---------------------------------------------------------------------
      1          6           0        1.765192   -0.000319   -1.577520
      2          6           0        2.310943   -0.000068   -0.164579
      3         17           0        1.758832    1.459403    0.716411
      4         17           0        1.760085   -1.460021    0.716383
      5         17           0        4.099389    0.000782   -0.199268
      6          1           0        0.664697   -0.001350   -1.565193
      7          1           0        2.126288   -0.898952   -2.103139
      8          1           0        2.124844    0.898952   -2.103020
      9          6           0       -1.765436   -0.000094    1.577611
     10          6           0       -2.310965    0.000018    0.164590
     11         17           0       -1.760037    1.460214   -0.715893
     12         17           0       -1.758697   -1.459211   -0.716727
     13         17           0       -4.099426   -0.000914    0.199037
     14          1           0       -0.664938    0.000873    1.565491
     15          1           0       -2.125217   -0.899474    2.102838
     16          1           0       -2.126579    0.898429    2.103383
 ---------------------------------------------------------------------
 Rotational constants (GHZ):           1.1018098           0.2542052           0.2370455
   176 basis functions,   346 primitive gaussians,   186 cartesian basis functions
    66 alpha electrons       66 beta electrons
       nuclear repulsion energy      1186.5924818187 Hartrees.
 NAtoms=   16 NActive=   16 NUniq=   16 SFac= 1.00D+00 NAtFMM=   60 NAOKFM=F Big=F
 Nuclear repulsion after empirical dispersion term =     1186.5828328034 Hartrees.
   1 Symmetry operations used in ECPInt.
 ECPInt:  NShTT=    3570 NPrTT=   16498 LenC2=    3280 LenP2D=   10128.
 LDataN:  DoStor=T MaxTD1= 4 Len=   56
 Initial guess from the checkpoint file:  "/scratch/user/peterchao1/peterchao1/6113296_1660079069000000192342280/Gau-228835.chk"
 B after Tr=    -0.000000   -0.000000    0.000000
         Rot=    0.999998    0.000017   -0.002230    0.000004 Ang=   0.26 deg.
 ExpMin= 1.22D-01 ExpMax= 1.04D+04 ExpMxC= 1.57D+03 IAcc=3 IRadAn=         5 AccDes= 0.00D+00
 Harris functional with IExCor= 4639 and IRadAn=       5 diagonalized for initial guess.
 HarFok:  IExCor= 4639 AccDes= 0.00D+00 IRadAn=         5 IDoV= 1 UseB2=F ITyADJ=14
 ICtDFT=  3500011 ScaDFX=  1.000000  1.000000  1.000000  1.000000
 FoFCou: FMM=F IPFlag=           0 FMFlag=      100000 FMFlg1=           0
         NFxFlg=           0 DoJE=T BraDBF=F KetDBF=T FulRan=T
         wScrn=  0.000000 ICntrl=       500 IOpCl=  0 I1Cent=   200000004 NGrid=           0
         NMat0=    1 NMatS0=      1 NMatT0=    0 NMatD0=    1 NMtDS0=    0 NMtDT0=    0
 Petite list used in FoFCou.
     Accept linear search using points  3 and  4.
     Minimum is close to point  4 DX= -3.80D-02 DF= -7.51D-08 DXR=  3.27D-02 DFR=  2.05D-04 which will be used.
     Accept linear search using points  1 and  2.
     Minimum is close to point  2 DX= -6.07D-05 DF=  0.00D+00 DXR=  6.07D-05 DFR=  0.00D+00 which will be used.
 SCF Done:  E(RwB97XD) =  -2916.17122544     a.u. after    5 cycles
            Convg  =    0.1198D-08                    26 Fock formations.
              S**2 =  0.0000                  -V/T =  2.0025
   1 Symmetry operations used in ECPInt.
 ECPInt:  NShTT=    3570 NPrTT=   16498 LenC2=    3280 LenP2D=   10128.
 LDataN:  DoStor=T MaxTD1= 5 Len=  102
 Calling FoFJK, ICntrl=      2127 FMM=F ISym2X=0 I1Cent= 0 IOpClX= 0 NMat=1 NMatS=1 NMatT=0.

 GradGradGradGradGradGradGradGradGradGradGradGradGradGradGradGradGradGrad
 Using GEDIIS/GDIIS optimizer.
 FormGI is forming the generalized inverse of G from B-inverse, IUseBI=4.
 Internal  Forces:  Max     0.000519799 RMS     0.000236602
 Step number   4 out of a maximum of  100
 All quantities printed in internal units (Hartrees-Bohrs-Radians)
 Mixed Optimization -- En-DIIS/RFO-DIIS
 Swapping is turned off.
 Trust test= 1.15D+00 RLast= 3.08D-01 DXMaxT set to 8.49D-01
 ITU=  1  1  1  0
     Eigenvalues ---    0.00270   0.00427   0.01042   0.01252   0.01580
     Eigenvalues ---    0.02136   0.02408   0.02477   0.03092   0.04284
     Eigenvalues ---    0.05299   0.05862   0.06280   0.06774   0.07220
     Eigenvalues ---    0.07518   0.08749   0.09000   0.09080   0.09174
     Eigenvalues ---    0.10249   0.11014   0.12619   0.12667   0.12854
     Eigenvalues ---    0.15488   0.16411   0.18767   0.25690   0.26665
     Eigenvalues ---    0.26969   0.27210   0.27561   0.29805   0.30719
     Eigenvalues ---    0.31975   0.32263   0.35071   0.35071   0.35072
     Eigenvalues ---    0.35512   0.37396
 En-DIIS/RFO-DIIS/Sim-DIIS IScMMF=       -3 using points:     4    3    2
 RFO step:  Lambda=-1.27357964D-04.
 DidBck=F Rises=F RFO-DIIS coefs:    1.76632   -2.00000    1.23368
 Iteration  1 RMS(Cart)=  0.01590724 RMS(Int)=  0.00039270
 Iteration  2 RMS(Cart)=  0.00034159 RMS(Int)=  0.00028784
 Iteration  3 RMS(Cart)=  0.00000008 RMS(Int)=  0.00028784
 Variable       Old X    -DE/DX   Delta X   Delta X   Delta X     New X
                                 (Linear)    (Quad)   (Total)
    R1        2.86232  -0.00005  -0.00123   0.00151   0.00027   2.86260
    R2        2.07977   0.00034  -0.00099   0.00097  -0.00001   2.07975
    R3        2.08231  -0.00037  -0.00096   0.00021  -0.00075   2.08156
    R4        2.08229  -0.00037  -0.00096   0.00022  -0.00074   2.08155
    R5        3.38626  -0.00037  -0.00060   0.00002  -0.00083   3.38543
    R6        3.38625  -0.00037  -0.00062   0.00003  -0.00084   3.38541
    R7        3.38031   0.00052   0.00180  -0.00113   0.00067   3.38098
    R8        5.58123   0.00005   0.02511   0.00706   0.03233   5.61355
    R9        5.58539   0.00005   0.02524   0.00682   0.03222   5.61761
   R10        5.58567   0.00005   0.02510   0.00679   0.03204   5.61771
   R11        5.57968   0.00005   0.02537   0.00746   0.03297   5.61266
   R12        2.86231  -0.00005  -0.00124   0.00152   0.00028   2.86260
   R13        2.07977   0.00034  -0.00098   0.00097  -0.00001   2.07976
   R14        2.08229  -0.00037  -0.00096   0.00021  -0.00074   2.08155
   R15        2.08231  -0.00037  -0.00096   0.00021  -0.00075   2.08156
   R16        3.38622  -0.00037  -0.00064   0.00005  -0.00084   3.38539
   R17        3.38629  -0.00037  -0.00061   0.00002  -0.00084   3.38545
   R18        3.38033   0.00052   0.00181  -0.00114   0.00067   3.38100
    A1        1.92819  -0.00028  -0.00107  -0.00817  -0.00862   1.91958
    A2        1.90395   0.00022  -0.00041   0.00404   0.00345   1.90741
    A3        1.90406   0.00022  -0.00042   0.00400   0.00340   1.90746
    A4        1.90949  -0.00003   0.00042   0.00025   0.00049   1.90999
    A5        1.90973  -0.00004   0.00041   0.00016   0.00039   1.91012
    A6        1.90828  -0.00009   0.00108  -0.00021   0.00095   1.90923
    A7        1.92596  -0.00002  -0.00274   0.00049  -0.00208   1.92388
    A8        1.92592  -0.00002  -0.00273   0.00049  -0.00207   1.92385
    A9        1.92000  -0.00009   0.00159   0.00043   0.00179   1.92180
   A10        1.90409  -0.00042  -0.00060  -0.00222  -0.00302   1.90107
   A11        1.89357   0.00028   0.00232   0.00038   0.00275   1.89632
   A12        1.89365   0.00028   0.00229   0.00039   0.00273   1.89638
   A13        1.56277   0.00042  -0.00209  -0.00023  -0.00211   1.56066
   A14        1.56155   0.00042  -0.00213  -0.00017  -0.00207   1.55948
   A15        2.53752   0.00023   0.01331   0.00854   0.02076   2.55828
   A16        2.53991   0.00023   0.01312   0.00843   0.02044   2.56035
   A17        1.03362  -0.00030  -0.00558  -0.00233  -0.00807   1.02556
   A18        1.92823  -0.00028  -0.00107  -0.00817  -0.00861   1.91961
   A19        1.90406   0.00022  -0.00042   0.00401   0.00340   1.90747
   A20        1.90395   0.00022  -0.00041   0.00404   0.00345   1.90739
   A21        1.90970  -0.00004   0.00041   0.00018   0.00041   1.91011
   A22        1.90950  -0.00003   0.00041   0.00024   0.00048   1.90997
   A23        1.90828  -0.00009   0.00109  -0.00022   0.00094   1.90922
   A24        1.92593  -0.00002  -0.00273   0.00050  -0.00206   1.92387
   A25        1.92597  -0.00003  -0.00274   0.00048  -0.00209   1.92389
   A26        1.91998  -0.00009   0.00159   0.00044   0.00180   1.92178
   A27        1.90409  -0.00042  -0.00061  -0.00221  -0.00302   1.90108
   A28        1.89366   0.00028   0.00230   0.00038   0.00272   1.89638
   A29        1.89356   0.00028   0.00231   0.00039   0.00275   1.89630
   A30        1.56126   0.00042  -0.00206  -0.00011  -0.00195   1.55931
   A31        1.56301   0.00042  -0.00214  -0.00030  -0.00223   1.56078
   A32        1.03349  -0.00030  -0.00556  -0.00230  -0.00802   1.02547
   A33        2.53959   0.00023   0.01314   0.00844   0.02046   2.56005
   A34        2.53773   0.00023   0.01330   0.00856   0.02076   2.55849
    D1       -1.05335   0.00028   0.00227   0.00113   0.00342  -1.04993
    D2        1.05228  -0.00027  -0.00201  -0.00100  -0.00303   1.04925
    D3        3.14110   0.00000   0.00011   0.00007   0.00018   3.14128
    D4        3.13020   0.00035   0.00266   0.00332   0.00596   3.13616
    D5       -1.04736  -0.00020  -0.00161   0.00119  -0.00049  -1.04785
    D6        1.04146   0.00007   0.00051   0.00226   0.00272   1.04418
    D7        1.04665   0.00020   0.00184  -0.00119   0.00072   1.04737
    D8       -3.13090  -0.00035  -0.00244  -0.00332  -0.00573  -3.13664
    D9       -1.04209  -0.00008  -0.00032  -0.00225  -0.00252  -1.04461
   D10        1.05927   0.00011   0.02523   0.01813   0.04365   1.10291
   D11       -1.05693  -0.00012  -0.02550  -0.01839  -0.04417  -1.10110
   D12       -3.12760   0.00019   0.02432   0.01819   0.04286  -3.08473
   D13        1.03939  -0.00004  -0.02641  -0.01833  -0.04496   0.99443
   D14       -1.03734   0.00004   0.02617   0.01818   0.04456  -0.99277
   D15        3.12965  -0.00019  -0.02457  -0.01834  -0.04326   3.08640
   D16        1.54434  -0.00010  -0.01889  -0.00658  -0.02518   1.51916
   D17       -0.57431   0.00021  -0.01343  -0.00607  -0.01937  -0.59369
   D18       -2.63421  -0.00004  -0.01715  -0.00551  -0.02251  -2.65672
   D19       -1.54483   0.00010   0.01887   0.00660   0.02518  -1.51965
   D20        0.57384  -0.00021   0.01341   0.00609   0.01937   0.59321
   D21        2.63368   0.00005   0.01715   0.00552   0.02252   2.65620
   D22        0.37072  -0.00005   0.00749   0.00400   0.01154   0.38225
   D23       -2.17007  -0.00025  -0.02452  -0.01877  -0.04315  -2.21321
   D24       -0.37072   0.00005  -0.00749  -0.00400  -0.01154  -0.38226
   D25        2.17192   0.00024   0.02427   0.01859   0.04274   2.21465
   D26       -2.17261  -0.00025  -0.02422  -0.01851  -0.04260  -2.21521
   D27        0.37068  -0.00005   0.00750   0.00402   0.01156   0.38224
   D28        2.17026   0.00025   0.02452   0.01869   0.04307   2.21333
   D29       -0.37067   0.00005  -0.00750  -0.00402  -0.01156  -0.38223
   D30       -1.05239   0.00027   0.00203   0.00109   0.00314  -1.04925
   D31        1.05326  -0.00028  -0.00225  -0.00103  -0.00330   1.04996
   D32       -3.14121  -0.00000  -0.00010   0.00003  -0.00007  -3.14128
   D33        3.13081   0.00035   0.00245   0.00339   0.00581   3.13662
   D34       -1.04673  -0.00020  -0.00183   0.00127  -0.00063  -1.04736
   D35        1.04199   0.00008   0.00031   0.00233   0.00260   1.04459
   D36        1.04727   0.00020   0.00162  -0.00111   0.00057   1.04784
   D37       -3.13026  -0.00035  -0.00266  -0.00323  -0.00587  -3.13613
   D38       -1.04155  -0.00007  -0.00051  -0.00217  -0.00264  -1.04419
   D39        1.05638   0.00012   0.02556   0.01841   0.04425   1.10062
   D40       -1.05913  -0.00011  -0.02520  -0.01823  -0.04371  -1.10284
   D41       -3.13021   0.00019   0.02463   0.01837   0.04335  -3.08685
   D42        1.03748  -0.00004  -0.02613  -0.01826  -0.04461   0.99287
   D43       -1.03996   0.00004   0.02647   0.01836   0.04505  -0.99491
   D44        3.12773  -0.00020  -0.02429  -0.01827  -0.04291   3.08481
   D45        1.54506  -0.00010  -0.01891  -0.00666  -0.02528   1.51978
   D46       -0.57363   0.00021  -0.01345  -0.00615  -0.01947  -0.59310
   D47       -2.63346  -0.00005  -0.01718  -0.00559  -0.02262  -2.65608
   D48       -1.54436   0.00010   0.01888   0.00659   0.02518  -1.51918
   D49        0.57431  -0.00021   0.01343   0.00608   0.01938   0.59370
   D50        2.63421   0.00004   0.01715   0.00551   0.02251   2.65673
         Item               Value     Threshold  Converged?
 Maximum Force            0.000520     0.000015     NO 
 RMS     Force            0.000237     0.000010     NO 
[...]
   zz         0.838101D+02      0.124194D+02      0.138184D+02

 ----------------------------------------------------------------------

 Dipole orientation:
     6         -3.82848428          1.67941283         -1.32619756
     6         -4.03540613         -1.17183049         -1.47051420
    17         -1.70045911         -2.40354942         -3.59061469
    17         -3.55267961         -2.53147408          1.59253746
    17         -7.09675380         -2.06783074         -2.58661280
     1         -1.93974194          2.21400363         -0.63805275
     1         -5.27426448          2.41070195         -0.02005524
     1         -4.13108206          2.48965933         -3.21908078
     6          3.82867674         -1.67940910          1.32722481
     6          4.03561009          1.17183741          1.47146102
    17          3.55290865          2.53139728         -1.59163039
    17          1.70065420          2.40362483          3.59151362
    17          7.09695393          2.06785579          2.58755588
     1          1.93993328         -2.21401181          0.63909254
     1          4.13126607         -2.48960270          3.22013206
     1          5.27445726         -2.41074185          0.02110734

 Electric dipole moment (dipole orientation):
 (Debye = 10**-18 statcoulomb cm , SI units = C m)
                  (au)            (Debye)         (10**-30 SI)
   Tot        0.170891D-04      0.434362D-04      0.144888D-03
   x          0.000000D+00      0.000000D+00      0.000000D+00
   y          0.000000D+00      0.000000D+00      0.000000D+00
   z          0.170891D-04      0.434362D-04      0.144888D-03

 Dipole polarizability, Alpha (dipole orientation).
 (esu units = cm**3 , SI units = C**2 m**2 J**-1)
 Alpha(0;0):
               (au)            (10**-24 esu)      (10**-40 SI)
   iso        0.980442D+02      0.145287D+02      0.161653D+02
   aniso      0.319004D+02      0.472716D+01      0.525967D+01
   xx         0.114836D+03      0.170170D+02      0.189340D+02
   yx         0.162193D+01      0.240346D+00      0.267421D+00
   yy         0.806927D+02      0.119574D+02      0.133044D+02
   zx         0.669782D+01      0.992515D+00      0.110432D+01
   zy         0.196918D+00      0.291803D-01      0.324674D-01
   zz         0.986036D+02      0.146115D+02      0.162575D+02

 ----------------------------------------------------------------------
 1\1\GINC-C128\Freq\RwB97XD\def2SVPP\C4H6Cl6\PETERCHAO1\09-Aug-2022\0\\
 #T Geom=AllCheck Guess=TCheck SCRF=Check GenChk RwB97XD/def2SVPP Freq\
 \dimer\\0,1\C,-1.7200610841,0.0001964954,1.5582566744\C,-2.3489765239,
 0.0001424589,0.1802856616\Cl,-1.8392131075,1.4566958388,-0.7301111305\
 Cl,-1.8396596514,-1.4567671683,-0.7297918755\Cl,-4.1323031224,0.000430
 1457,0.3135810649\H,-0.6231291614,0.0000179232,1.4669679538\H,-2.04241
 94673,-0.8987846983,2.1066557573\H,-2.0421444914,0.8993953073,2.106460
 4452\C,1.7203279937,-0.0006739955,-1.5583380982\C,2.3492355888,-0.0005
 777964,-0.1803635311\Cl,1.8399087378,1.4563550604,0.729669938\Cl,1.839
 4720004,-1.4571080542,0.7300712505\Cl,4.1325629771,-0.0008640779,-0.31
 36490604\H,0.6233955794,-0.0005020138,-1.4670557286\H,2.0424209876,-0.
 8998856303,-2.1065152378\H,2.0426830245,0.8982943399,-2.1067601791\\Ve
 rsion=ES64L-G16RevB.01\State=1-A\HF=-2916.1713936\RMSD=2.387e-10\RMSF=
 1.062e-06\ZeroPoint=0.096219\Thermal=0.1101326\Dipole=0.0000055,-0.000
 0161,-0.0000016\DipoleDeriv=-0.1539054,0.0000083,-0.0113663,0.0000074,
 -0.1040101,0.0000005,0.0125547,-0.0000031,-0.1116857,1.3134011,-0.0000
 439,-0.2410105,-0.0000396,1.1897902,-0.0000125,-0.2725324,-0.0000076,0
 .7336838,-0.2880429,-0.1144649,0.0770901,-0.1511763,-0.5115703,0.17682
 46,0.1335392,0.2205729,-0.2808769,-0.2879583,0.1144123,0.0770113,0.151
 1275,-0.5117395,-0.1767982,0.1334349,-0.2205633,-0.2807905,-0.7770385,
 0.000106,0.1068739,0.0000997,-0.1581252,-0.0000172,0.0425537,-0.000007
 4,-0.1650347,0.0545744,0.0000003,-0.0191301,-0.0000076,0.0843838,-0.00
 00009,-0.0278108,-0.0000008,0.0363054,0.0694757,-0.0329479,0.0052776,-
 0.0390856,0.0056562,0.0561341,-0.010861,0.0331445,0.0341894,0.0694985,
 0.0329292,0.0052537,0.0390651,0.0056149,-0.0561294,-0.0108783,-0.03313
 51,0.0342089,-0.1538988,0.0000058,-0.011367,0.0000076,-0.1040102,0.000
 0008,0.0125538,-0.0000028,-0.111686,1.3134095,-0.0000498,-0.2410081,-0
 .0000541,1.1897905,-0.0000282,-0.2725291,-0.000023,0.7336813,-0.287956
 3,0.1144162,0.0770078,0.1511404,-0.5117488,-0.17679,0.1334319,-0.22055
 51,-0.2807773,-0.2880544,-0.1144632,0.0770945,-0.1511652,-0.5115612,0.
 1768308,0.1335443,0.2205797,-0.280888,-0.7770385,0.0001071,0.1068709,0
 .0000995,-0.1581251,-0.0000168,0.0425502,-0.0000073,-0.1650339,0.05456
 08,0.0000019,-0.0191297,0.0000027,0.0843836,-0.000004,-0.0278121,-0.00
 00024,0.0363058,0.0694972,0.0329301,0.0052531,0.0390646,0.0056129,-0.0
 561284,-0.0108797,-0.0331341,0.0342115,0.0694759,-0.0329476,0.0052788,
 -0.0390861,0.0056584,0.0561346,-0.0108594,0.033145,0.034187\Polar=114.
 1171922,-0.0038434,96.2052678,-10.3463537,0.0000371,83.8101461\Quadrup
 ole=-3.8832827,0.398807,3.4844757,0.0000714,-4.502553,0.0010197\PG=C01
  [X(C4H6Cl6)]\NImag=0\\0.59843749,-0.00000276,0.61519214,-0.04685358,-
 0.00000408,0.51011393,-0.09487085,-0.00000193,-0.05599666,0.30303436,-
 0.00000220,-0.06834906,-0.00000472,0.00000129,0.27701697,-0.05479453,-
 0.00000494,-0.19053620,0.04764452,0.00000425,0.38498419,0.00429896,0.0
 0377654,-0.00314433,-0.03810754,-0.01861336,0.01444795,0.05130083,-0.0
 0497251,-0.01299808,0.01119901,-0.01299095,-0.08688203,0.04538757,0.03
 599338,0.14725057,0.00935662,0.03113463,-0.01958971,0.00643258,0.03244
 969,-0.06413765,-0.02471504,-0.06952074,0.08134542,0.00429919,-0.00378
 259,-0.00314691,-0.03809795,0.01860137,0.01442972,0.00574425,-0.001205
 64,-0.00167977,0.05127861,0.00496950,-0.01300768,-0.01119952,0.0129773
 1,-0.08690848,-0.04538685,0.00119026,-0.04312588,-0.00333739,-0.035969
 16,0.14730274,0.00934608,-0.03113891,-0.01958049,0.00641969,-0.0324465
 8,-0.06412031,-0.00167903,0.00334895,0.00726709,-0.02468577,0.06951380
 ,0.08131468,-0.03434732,0.00000571,-0.00029849,-0.12353155,0.00001287,
 -0.00963271,-0.02394700,-0.01766116,0.01215177,-0.02393451,0.01766948,
 0.01214552,0.20625542,0.00000295,0.00314221,-0.00000004,0.00001462,-0.
 03249430,0.00000111,-0.02311210,-0.00541219,0.00770304,0.02312139,-0.0
 0542812,-0.00770585,-0.00002695,0.03789742,-0.02562572,0.00000384,0.00
 232612,0.00634006,-0.00000133,-0.03601473,0.01652999,0.00788569,-0.001
 21164,0.01652250,-0.00788985,-0.00120824,-0.01077472,0.00000162,0.0375
 5137,-0.32842604,0.00004516,0.02419470,-0.01276662,0.00000224,0.001691
 51,0.00176896,-0.00055085,0.00083653,0.00177014,0.00055017,0.00083667,
 -0.00048320,0.00000008,-0.00197069,0.34548897,0.00004622,-0.04931833,-
 0.00000409,-0.00000167,-0.00174537,0.00000019,0.00046956,-0.00042278,0
 .00032204,-0.00047014,-0.00042279,-0.00032210,-0.00000029,0.00150994,-
 0.00000025,-0.00004783,0.04554956,0.02983659,-0.00000491,-0.05255892,-
 0.03012524,0.00000499,0.00125968,0.00021478,-0.00065167,0.00069537,0.0
 0021547,0.00065185,0.00069547,-0.00522557,0.00000028,-0.00320443,-0.02
 581820,0.00000477,0.05521364,-0.07452151,-0.06986711,0.04274211,0.0022
 5569,0.01152979,-0.00757900,0.00084051,0.00105885,-0.00281535,-0.00025
 502,0.00048017,0.00066442,0.00005140,0.00056073,-0.00036859,-0.0037784
 2,-0.02482674,0.01486646,0.07310033,-0.06727830,-0.23682407,0.11378795
 ,-0.00053646,-0.00106215,-0.00183825,0.00010683,0.00152363,0.00020246,
 0.00032410,0.00082801,-0.00105984,0.00043841,0.00052832,-0.00051661,0.
 00147839,0.00243772,-0.00232094,0.07333467,0.24756152,0.03926347,0.108
 67475,-0.11533071,0.00935118,0.02445148,-0.01541176,-0.00143165,0.0023
 6558,-0.00508455,-0.00019722,-0.00010894,0.00088655,0.00085746,-0.0008
 0840,0.00082380,-0.00031987,-0.00001892,-0.00072083,-0.04129580,-0.121
 44726,0.12477647,-0.07447957,0.06982674,0.04269213,0.00225229,-0.01153
 238,-0.00757591,-0.00025528,-0.00047972,0.00066485,0.00084018,-0.00105
 930,-0.00281521,0.00005110,-0.00056066,-0.00036831,-0.00377114,0.02483
 176,0.01486174,0.00246367,-0.00779864,-0.00613200,0.07305546,0.0672371
 8,-0.23691440,-0.11377466,0.00053743,-0.00106367,0.00183746,-0.0003238
 0,0.00082850,0.00105962,-0.00010692,0.00152341,-0.00020305,-0.00043807
 ,0.00052889,0.00051677,-0.00147652,0.00243108,0.00231571,0.00779196,-0
 .01501509,-0.01314946,-0.07329027,0.24765924,0.03921560,-0.10866042,-0
 .11528247,0.00934354,-0.02445744,-0.01540680,-0.00019711,0.00010901,0.
 00088628,-0.00143234,-0.00236660,-0.00508398,0.00085781,0.00080818,0.0
 0082350,-0.00031951,0.00001835,-0.00072134,-0.00612967,0.01315677,0.01
 001639,-0.04124272,0.12143329,0.12472376,0.00005645,0.00000003,-0.0000
 9436,-0.00040468,-0.00000017,0.00040598,-0.00012572,0.00021754,-0.0000
 3939,-0.00012603,-0.00021740,-0.00003918,0.00010199,0.00000003,-0.0000
 6319,0.00006674,-0.00000007,0.00013517,0.00002045,-0.00000112,-0.00002
 480,0.00002042,0.00000112,-0.00002478,0.59843820,0.,0.00041863,-0.0000
 0003,-0.00000028,-0.00198448,0.00000014,0.00089118,0.00038173,-0.00055
 726,-0.00089102,0.00038221,0.00055723,0.00000003,0.00034931,-0.0000000
 2,0.,-0.00050870,0.00000006,0.00010189,0.00001929,-0.00006476,-0.00010
 188,0.00001934,0.00006477,-0.00000388,0.61519214,-0.00009435,-0.000000
 03,0.00002833,-0.00007036,0.00000020,-0.00021515,0.00001133,-0.0001564
 6,0.00020933,0.00001157,0.00015643,0.00020918,0.00001670,-0.00000004,0
 .00005591,-0.00007886,0.00000010,0.00012710,0.00000748,-0.00000066,0.0
 0001188,0.00000751,0.00000066,0.00001187,-0.04685304,-0.00000757,0.510
 11345,-0.00040464,-0.00000019,-0.00007037,-0.00149277,0.00000075,-0.00
 017243,0.00045718,0.00006751,0.00000984,0.00045728,-0.00006809,0.00000
 971,0.00087367,-0.00000021,0.00008731,-0.00055338,0.00000061,0.0006531
 2,0.00024730,0.00002063,0.00003659,0.00024749,-0.00002072,0.00003655,-
 0.09487034,-0.00000372,-0.05599612,0.30303360,0.00000011,-0.00198447,0
 .00000022,0.00000099,0.00380882,-0.00000028,-0.00066229,-0.00152762,0.
 00051415,0.00066168,-0.00152779,-0.00051390,-0.00000021,-0.00054182,0.
 00000003,0.00000006,0.00338795,-0.00000055,-0.00076241,-0.00006333,0.0
 0013901,0.00076226,-0.00006359,-0.00013905,-0.00000363,-0.06834901,-0.
 00000851,0.00000205,0.27701700,0.00040593,0.00000014,-0.00021515,-0.00
 017247,-0.00000013,0.00187730,0.00043932,0.00007916,-0.00073594,0.0004
 3920,-0.00007916,-0.00073585,-0.00011664,0.00000003,-0.00043177,0.0006
 1157,-0.00000059,-0.00010146,-0.00011914,-0.00002441,-0.00013679,-0.00
 011933,0.00002444,-0.00013676,-0.05479398,-0.00000872,-0.19053687,0.04
 764415,0.00000848,0.38498480,-0.00012602,-0.00089094,0.00001156,0.0004
 5734,0.00066175,0.00043910,-0.00157331,-0.00010542,-0.00057160,0.00004
 264,-0.00016704,-0.00010249,-0.00031609,-0.00007385,-0.00011202,0.0002
 3700,0.00000109,0.00034083,-0.00039070,0.00000478,0.00000058,0.0000244
 1,0.00005696,-0.00003145,0.00429928,-0.00378242,-0.00314664,-0.0380983
 6,0.01860262,0.01442993,0.05127979,-0.00021748,0.00038225,0.00015641,-
 0.00006815,-0.00152790,-0.00007913,0.00010594,0.00067820,-0.00016700,-
 0.00016704,0.00059912,0.00032064,0.00006354,0.00022499,0.00000388,-0.0
 0030804,-0.00119227,-0.00020397,0.00012234,0.00005251,-0.00001483,-0.0
 0033967,0.00002163,0.00010756,0.00496978,-0.01300889,-0.01119967,0.012
 97829,-0.08691116,-0.04538650,-0.03597079,0.14730723,-0.00003921,0.000
 55720,0.00020916,0.00000967,-0.00051394,-0.00073578,-0.00057162,0.0001
 6699,-0.00007134,-0.00010249,0.00032064,0.00028090,0.00010165,0.000063
 22,0.00018410,0.00028922,-0.00058664,-0.00015442,0.00022596,0.00002816
 ,0.00004002,-0.00014526,-0.00002199,0.00007667,0.00934617,-0.03113907,
 -0.01957925,0.00641991,-0.03244620,-0.06411869,-0.02468553,0.06951195,
 0.08131118,-0.00012570,0.00089138,0.00001134,0.00045715,-0.00066228,0.
 00043945,0.00004275,0.00016722,-0.00010266,-0.00157360,0.00010592,-0.0
 0057184,-0.00031614,0.00007399,-0.00011209,0.00023916,-0.00000231,0.00
 034107,0.00002444,-0.00005699,-0.00003146,-0.00039086,-0.00000465,0.00
 000059,0.00429886,0.00377631,-0.00314434,-0.03810722,-0.01861243,0.014
 44803,0.00574426,0.00119033,-0.00167907,0.05129977,0.00021739,0.000381
 63,-0.00015648,0.00006745,-0.00152754,0.00007914,0.00016720,0.00059888
 ,-0.00032069,-0.00010536,0.00067812,0.00016699,-0.00006334,0.00022497,
 -0.00000385,0.00030718,-0.00119151,0.00020431,0.00033968,0.00002153,-0
 .00010754,-0.00012208,0.00005256,0.00001482,-0.00497231,-0.01299693,0.
 01119880,-0.01299047,-0.08687939,0.04538778,-0.00120553,-0.04312586,0.
 00335036,0.03599277,0.14724594,-0.00003933,-0.00055731,0.00020936,0.00
 000990,0.00051411,-0.00073601,-0.00010264,-0.00032070,0.00028107,-0.00
 057173,-0.00016696,-0.00007140,0.00010167,-0.00006327,0.00018415,0.000
 28924,0.00058705,-0.00015455,-0.00014534,0.00002205,0.00007669,0.00022
 601,-0.00002823,0.00004003,0.00935678,0.03113455,-0.01959089,0.0064326
 4,0.03244982,-0.06413903,-0.00167974,-0.00333595,0.00726707,-0.0247155
 6,-0.06952219,0.08134842,0.00010198,0.00000004,0.00001670,0.00087365,-
 0.00000017,-0.00011664,-0.00031611,-0.00006337,0.00010166,-0.00031610,
 0.00006350,0.00010165,-0.00050681,0.00000009,0.00000323,0.00009974,-0.
 00000015,-0.00007084,-0.00002532,-0.00003751,-0.00005842,-0.00002535,0
 .00003751,-0.00005842,-0.03434716,0.00000552,-0.00029870,-0.12353149,0
 .00001228,-0.00963329,-0.02393477,0.01766984,0.01214494,-0.02394707,-0
 .01766089,0.01215209,0.20625552,-0.00000003,0.00034930,-0.00000004,-0.
 00000025,-0.00054180,0.00000005,0.00007400,0.00022498,-0.00006326,-0.0
 0007384,0.00022496,0.00006321,0.00000009,0.00007018,0.,-0.00000001,-0.
 00062038,0.00000009,0.00012891,0.00001027,-0.00002144,-0.00012889,0.00
 001031,0.00002147,0.00000210,0.00314221,-0.00000010,0.00001451,-0.0324
 9434,0.00000100,0.02312183,-0.00542842,-0.00770556,-0.02311175,-0.0054
 1186,0.00770306,-0.00002669,0.03789743,-0.00006318,-0.00000003,0.00005
 591,0.00008732,-0.00000003,-0.00043177,-0.00011205,-0.00000385,0.00018
 412,-0.00011205,0.00000390,0.00018413,0.00000323,0.,0.00008858,-0.0000
 7808,0.00000011,-0.00004015,-0.00000488,0.00000996,0.00003672,-0.00000
 484,-0.00000996,0.00003671,-0.02562593,0.00000368,0.00232597,0.0063394
 7,-0.00000142,-0.03601475,0.01652176,-0.00788958,-0.00120762,0.0165305
 0,0.00788576,-0.00121192,-0.01077368,0.00000158,0.03755125,0.00006671,
 -0.00000009,-0.00007884,-0.00055330,0.00000062,0.00061147,0.00023781,0
 .00030761,0.00028929,0.00023727,-0.00030795,0.00028908,0.00009970,-0.0
 0000010,-0.00007806,0.00011970,-0.00000002,-0.00011579,-0.00000581,-0.
 00000102,-0.00002420,-0.00000581,0.00000102,-0.00002423,-0.32842641,0.
 00004395,0.02419310,-0.01276630,0.00000194,0.00169144,0.00176940,0.000
 55028,0.00083640,0.00176893,-0.00055076,0.00083651,-0.00048319,0.00000
 001,-0.00197068,0.34549106,-0.00000007,-0.00050869,0.00000008,0.000000
 68,0.00338791,-0.00000047,-0.00000169,-0.00119197,0.00058688,0.0000014
 2,-0.00119198,-0.00058677,-0.00000011,-0.00062038,0.00000007,-0.000000
 02,0.00014506,-0.00000004,0.00000055,-0.00001957,0.00011642,-0.0000005
 7,-0.00001960,-0.00011640,0.00004465,-0.04931836,-0.00000397,-0.000002
 50,-0.00174540,0.00000018,-0.00047014,-0.00042274,-0.00032203,0.000469
 53,-0.00042280,0.00032208,-0.00000039,0.00150994,-0.00000034,-0.000047
 20,0.04554977,0.00013517,0.00000005,0.00012710,0.00065311,-0.00000052,
 -0.00010147,0.00034098,0.00020417,-0.00015459,0.00034070,-0.00020407,-
 0.00015442,-0.00007085,0.00000008,-0.00004015,-0.00011578,-0.00000004,
 -0.00034800,-0.00005479,0.00000475,0.00000641,-0.00005479,-0.00000473,
 0.00000643,0.02983499,-0.00000479,-0.05255860,-0.03012530,0.00000482,0
 .00125951,0.00021524,0.00065188,0.00069535,0.00021478,-0.00065164,0.00
 069539,-0.00522555,0.00000014,-0.00320446,-0.02581606,0.00000509,0.055
 21352,0.00002042,-0.00010188,0.00000751,0.00024751,0.00076227,-0.00011
 932,-0.00039077,-0.00012214,0.00022599,0.00002438,-0.00033969,-0.00014
 526,-0.00002535,-0.00012889,-0.00000484,-0.00000580,-0.00000057,-0.000
 05479,-0.00000823,-0.00000224,0.00003196,-0.00001879,-0.00000446,-0.00
 002582,-0.07448100,0.06982971,0.04269128,0.00225238,-0.01153247,-0.007
 57553,0.00084019,-0.00105935,-0.00281514,-0.00025527,-0.00047970,0.000
 66485,0.00005109,-0.00056069,-0.00036831,-0.00377152,0.02483219,0.0148
 6104,0.07305703,0.00000111,0.00001934,0.00000066,-0.00002072,-0.000063
 58,0.00002443,-0.00000465,0.00005254,-0.00002823,0.00005697,0.00002163
 ,-0.00002199,0.00003750,0.00001030,-0.00000996,0.00000102,-0.00001960,
 -0.00000473,0.00000225,0.00000307,-0.00000077,-0.00000446,-0.00000167,
 0.00000492,0.06724006,-0.23691946,-0.11377053,0.00053771,-0.00106440,0
 .00183700,-0.00010697,0.00152334,-0.00020326,-0.00032382,0.00082854,0.
 00105963,-0.00043805,0.00052895,0.00051679,-0.00147661,0.00243132,0.00
 231572,-0.07329334,0.24766475,-0.00002479,0.00006477,0.00001187,0.0000
 3655,-0.00013903,-0.00013675,0.00000059,0.00001482,0.00004003,-0.00003
 145,0.00010756,0.00007667,-0.00005842,0.00002147,0.00003671,-0.0000242
 2,-0.00011641,0.00000643,0.00003196,0.00000076,-0.00000015,-0.00002582
 ,0.00000491,0.00000986,0.03921478,-0.10865630,-0.11527580,0.00934381,-
 0.02445786,-0.01540618,-0.00143231,-0.00236678,-0.00508392,-0.00019712
 ,0.00010903,0.00088627,0.00085782,0.00080820,0.00082347,-0.00031951,0.
 00001839,-0.00072133,-0.04124186,0.12142908,0.12471650,0.00002046,0.00
 010188,0.00000749,0.00024729,-0.00076239,-0.00011916,0.00002447,0.0003
 3965,-0.00014533,-0.00039074,0.00012232,0.00022597,-0.00002533,0.00012
 890,-0.00000487,-0.00000582,0.00000056,-0.00005479,-0.00001879,0.00000
 446,-0.00002583,-0.00000823,0.00000225,0.00003196,-0.07452105,-0.06986
 538,0.04274343,0.00225561,0.01152944,-0.00757919,-0.00025503,0.0004802
 0,0.00066441,0.00084055,0.00105875,-0.00281534,0.00005140,0.00056071,-
 0.00036859,-0.00377826,-0.02482632,0.01486713,0.00246374,0.00779199,-0
 .00613003,0.07309974,-0.00000112,0.00001929,-0.00000066,0.00002064,-0.
 00006333,-0.00002442,-0.00005698,0.00002152,0.00002205,0.00000478,0.00
 005251,0.00002816,-0.00003751,0.00001027,0.00000997,-0.00000102,-0.000
 01957,0.00000475,0.00000446,-0.00000168,-0.00000490,-0.00000224,0.0000
 0307,0.00000076,-0.06727672,-0.23681904,0.11379134,-0.00053616,-0.0010
 6144,-0.00183870,0.00032409,0.00082797,-0.00105982,0.00010679,0.001523
 71,0.00020225,0.00043844,0.00052827,-0.00051658,0.00147832,0.00243749,
 -0.00232091,-0.00779875,-0.01501509,0.01315737,0.07333299,0.24755603,-
 0.00002479,-0.00006476,0.00001189,0.00003660,0.00013900,-0.00013679,-0
 .00003146,-0.00010754,0.00007669,0.00000058,-0.00001482,0.00004003,-0.
 00005841,-0.00002144,0.00003672,-0.00002422,0.00011642,0.00000640,-0.0
 0002583,-0.00000490,0.00000986,0.00003196,-0.00000078,-0.00000014,0.03
 926477,0.10867808,-0.11533646,0.00935110,0.02445121,-0.01541236,-0.000
 19722,-0.00010892,0.00088657,-0.00143163,0.00236540,-0.00508465,0.0008
 5744,-0.00080838,0.00082382,-0.00031991,-0.00001917,-0.00072068,-0.006
 13173,-0.01314877,0.01001632,-0.04129725,-0.12145064,0.12478281\\-0.00
 000119,0.00000002,-0.00000054,0.00000027,0.00000005,-0.00000275,0.0000
 0038,-0.00000029,-0.00000089,0.00000042,0.00000027,-0.00000088,-0.0000
 0036,0.,-0.00000257,-0.00000113,-0.00000007,-0.00000065,-0.00000128,-0
 .00000015,-0.00000138,-0.00000132,0.00000011,-0.00000135,0.00000120,0.
 00000001,0.00000058,-0.00000031,0.,0.00000277,-0.00000034,-0.00000024,
 0.00000085,-0.00000046,0.00000035,0.00000092,0.00000038,-0.00000001,0.
 00000256,0.00000115,-0.00000006,0.00000059,0.00000131,-0.00000012,0.00
 000135,0.00000129,0.00000014,0.00000138\\\@


 ONE THORN OF EXPERIENCE IS WORTH A WHOLE WILDERNESS OF
 WARNING....  LOWELL - AMONG MY BOOKS
 Job cpu time:       0 days  0 hours  7 minutes 45.3 seconds.
 Elapsed time:       0 days  0 hours  1 minutes 57.7 seconds.
 File lengths (MBytes):  RWF=     82 Int=      0 D2E=      0 Chk=      3 Scr=      1
 Normal termination of Gaussian 16 at Tue Aug  9 16:19:42 2022.
real 913.02
user 3249.98
sys 39.31
