You are running Q-Chem version: 5.3.2

#
# job setting
#
local host:  c011.cluster
current dir: /scratch/user/peterchao1/peterchao1/7000850_1675661341000000370031217
input file:  qchem_test.inp
output file: 
nprocs     : 0
nthreads   : 8
#
# qchem installation setting
#
QC:          /sw/restricted/qchem/sw/5.3.2
QCAUX:       /sw/restricted/qchem/sw/5.3.2/qcaux
QCPROG:      /sw/restricted/qchem/sw/5.3.2/exe/qcprog.exe_s
QCPROG_S:    /sw/restricted/qchem/sw/5.3.2/exe/qcprog.exe_s
PARALLEL:    -DSERIAL
QCMPI:       seq
#
# qchem directory setting
#
qcrun:       qchem71883
QCSCRATCH:   /scratch/user/peterchao1/peterchao1/7000850_1675661341000000370031217
QCLOCALSCR:  
QCTMPDIR:    /scratch/user/peterchao1/peterchao1/7000850_1675661341000000370031217
QCFILEPREF:  /scratch/user/peterchao1/peterchao1/7000850_1675661341000000370031217/qchem71883
QCSAVEDIR:   
workdirs:    /scratch/user/peterchao1/peterchao1/7000850_1675661341000000370031217/qchem71883
workdir0:    /scratch/user/peterchao1/peterchao1/7000850_1675661341000000370031217/qchem71883
partmpdirs =  
#
# parallel setting
#
QCRSH:           ssh
QCMPI:           seq
QCMPIRUN:        
QCMACHINEFILE:   /scratch/user/peterchao1/peterchao1/7000850_1675661341000000370031217/qchem71883/hostfile

#
# env setting
#
exported envs:   QC QCAUX QCSCRATCH QCRUNNAME QCFILEPREF QCPROG QCPROG_S GUIFILE

Running Job 1 of 1 qchem_test.inp
qchem qchem_test.inp_71883.0 /scratch/user/peterchao1/peterchao1/7000850_1675661341000000370031217/qchem71883/ 0
/sw/restricted/qchem/sw/5.3.2/exe/qcprog.exe_s qchem_test.inp_71883.0 /scratch/user/peterchao1/peterchao1/7000850_1675661341000000370031217/qchem71883/
                  Welcome to Q-Chem
     A Quantum Leap Into The Future Of Chemistry


 Q-Chem 5.3, Q-Chem, Inc., Pleasanton, CA (2020)

 License issued to: MRG Daniel Tabor and Mike Hall, Texas A&M University

 Yihan Shao,  Zhengting Gan,  E. Epifanovsky,  A. T. B. Gilbert,  M. Wormit,  
 J. Kussmann,  A. W. Lange,  A. Behn,  Jia Deng,  Xintian Feng,  D. Ghosh,  
 M. Goldey,  P. R. Horn,  L. D. Jacobson,  I. Kaliman,  T. Kus,  A. Landau,  
 Jie Liu,  E. I. Proynov,  R. M. Richard,  R. P. Steele,  E. J. Sundstrom,  
 H. L. Woodcock III,  P. M. Zimmerman,  D. Zuev,  B. Alam,  B. Albrecht,  
 A. Aldossary,  E. Alguire,  S. A. Baeppler,  D. Barton,  Z. Benda,  
 Y. A. Bernard,  E. J. Berquist,  K. B. Bravaya,  H. Burton,  K. Carter-Fenk,  
 D. Casanova,  Chun-Min Chang,  Yunqing Chen,  A. Chien,  K. D. Closser,  
 M. P. Coons,  S. Coriani,  S. Dasgupta,  A. L. Dempwolff,  M. Diedenhofen,  
 Hainam Do,  R. G. Edgar,  Po-Tung Fang,  S. Faraji,  S. Fatehi,  
 Qingguo Feng,  J. Fosso-Tande,  J. Gayvert,  Qinghui Ge,  A. Ghysels,  
 G. Gidofalvi,  J. Gomes,  J. Gonthier,  S. Gulania,  A. Gunina,  D. Hait,  
 M. W. D. Hanson-Heine,  S. Hammes-Schiffer,  P. H. P. Harbach,  
 A. W. Hauser,  M. F. Herbst,  J. E. Herr,  E. G. Hohenstein,  Z. C. Holden,  
 S. Houck,  Kerwin Hui,  B. C. Huynh,  M. Ivanov,  T.-C. Jagau,  Hyunjun Ji,  
 B. Kaduk,  K. Khistyaev,  Jaehoon Kim,  P. Klunzinger,  K. Koh,  
 D. Kosenkov,  L. Koulias,  T. Kowalczyk,  C. M. Krauter,  A. Kunitsa,  
 Ka Un Lao,  A. Laurent,  K. V. Lawler,  Joonho Lee,  D. Lefrancois,  
 S. Lehtola,  D. S. Levine,  Yi-Pei Li,  You-Sheng Lin,  Fenglai Liu,  
 Kuan-Yu Liu,  E. Livshits,  M. Loipersberger,  A. Luenser,  A. Manjanath,  
 P. Manohar,  E. Mansoor,  S. F. Manzer,  Shan-Ping Mao,  Yuezhi Mao,  
 N. Mardirossian,  A. V. Marenich,  T. Markovich,  L. A. Martinez-Martinez,  
 S. A. Maurer,  N. J. Mayhall,  S. C. McKenzie,  J.-M. Mewes,  P. Morgante,  
 A. F. Morrison,  J. W. Mullinax,  K. Nanda,  T. S. Nguyen-Beck,  
 R. Olivares-Amaya,  K. J. Oosterbaan,  J. A. Parkhill,  S. K. Paul,  
 F. Pavosevic,  Zheng Pei,  T. M. Perrine,  F. Plasser,  P. Pokhilko,  
 S. Prager,  A. Prociuk,  E. Ramos,  B. Rana,  D. R. Rehn,  F. Rob,  
 E. Rossomme,  M. Scheurer,  M. Schneider,  N. Sergueev,  S. M. Sharada,  
 S. Sharma,  W. Skomorowski,  D. W. Small,  T. Stauch,  C. J. Stein,  
 T. Stein,  Yu-Chuan Su,  S. P. Veccham,  Zhen Tao,  A. J. W. Thom,  
 A. Tkatchenko,  T. Tsuchimochi,  N. M. Tubman,  L. Vogt,  M. L. Vidal,  
 O. Vydrov,  M. A. Watson,  J. Wenzel,  M. de Wergifosse,  T. A. Wesolowski,  
 A. White,  J. Witte,  A. Yamada,  Jun Yang,  K. Yao,  S. Yeganeh,  
 S. R. Yost,  Zhi-Qiang You,  A. Zech,  Igor Ying Zhang,  Xing Zhang,  
 Yan Zhao,  Ying Zhu,  B. R. Brooks,  G. K. L. Chan,  C. J. Cramer,  
 M. S. Gordon,  W. J. Hehre,  A. Klamt,  M. W. Schmidt,  C. D. Sherrill,  
 D. G. Truhlar,  A. Aspuru-Guzik,  R. Baer,  A. T. Bell,  N. A. Besley,  
 Jeng-Da Chai,  A. E. DePrince, III,  R. A. DiStasio Jr.,  A. Dreuw,  
 B. D. Dunietz,  T. R. Furlani,  Chao-Ping Hsu,  Yousung Jung,  Jing Kong,  
 D. S. Lambrecht,  WanZhen Liang,  C. Ochsenfeld,  V. A. Rassolov,  
 L. V. Slipchenko,  J. E. Subotnik,  T. Van Voorhis,  J. M. Herbert,  
 A. I. Krylov,  P. M. W. Gill,  M. Head-Gordon

 Contributors to earlier versions of Q-Chem not listed above: 
 R. D. Adamson,  B. Austin,  J. Baker,  G. J. O. Beran,  K. Brandhorst,  
 S. T. Brown,  E. F. C. Byrd,  A. K. Chakraborty,  C.-L. Cheng,  
 Siu Hung Chien,  D. M. Chipman,  D. L. Crittenden,  H. Dachsel,  
 R. J. Doerksen,  A. D. Dutoi,  L. Fusti-Molnar,  W. A. Goddard III,  
 A. Golubeva-Zadorozhnaya,  S. R. Gwaltney,  G. Hawkins,  A. Heyden,  
 S. Hirata,  G. Kedziora,  F. J. Keil,  C. Kelley,  Jihan Kim,  R. A. King,  
 R. Z. Khaliullin,  P. P. Korambath,  W. Kurlancheek,  A. M. Lee,  M. S. Lee,  
 S. V. Levchenko,  Ching Yeh Lin,  D. Liotard,  R. C. Lochan,  I. Lotan,  
 P. E. Maslen,  N. Nair,  D. P. O'Neill,  D. Neuhauser,  E. Neuscamman,  
 C. M. Oana,  R. Olson,  B. Peters,  R. Peverati,  P. A. Pieniazek,  
 Y. M. Rhee,  J. Ritchie,  M. A. Rohrdanz,  E. Rosta,  N. J. Russ,  
 H. F. Schaefer III,  N. E. Schultz,  N. Shenvi,  A. C. Simmonett,  A. Sodt,  
 D. Stuck,  K. S. Thanthiriwatte,  V. Vanovschi,  Tao Wang,  A. Warshel,  
 C. F. Williams,  Q. Wu,  X. Xu,  W. Zhang

 Please cite Q-Chem as follows:
 Y. Shao et al., Mol. Phys. 113, 184-215 (2015)
 DOI: 10.1080/00268976.2014.952696

 Q-Chem 5.3.2 for Intel X86 EM64T Linux

 Parts of Q-Chem use Armadillo 9.800.1 (Horizon Scraper).
 http://arma.sourceforge.net/

 Q-Chem begins on Sun Feb  5 23:29:02 2023  

Host: 
0

     Scratch files written to /scratch/user/peterchao1/peterchao1/7000850_1675661341000000370031217/qchem71883//
 Dec820 |scratch|qcdevops|jenkins|workspace|build_RNUM -1
Processing $rem in /sw/restricted/qchem/sw/5.3.2/config/preferences:
Processing $rem in /home/peterchao1/.qchemrc:

 Q-Chem warning in module libgen/rem_setup.C, line 2945:

 Neither GIA nor STOLL is specified by user. Use STOLL as the default


Checking the input file for inconsistencies... 	...done.

--------------------------------------------------------------
User input:
--------------------------------------------------------------
$molecule
0 1
--
0 1
C       -1.868464   -1.239233   -0.414159
C       -1.895098    0.284719   -0.504892
C       -1.900931    0.964659    0.861977
H       -1.851069   -1.703449   -1.415376
H       -2.757636   -1.621815    0.118825
H       -0.975923   -1.589979    0.134490
H       -2.785105    0.603622   -1.077522
H       -1.020627    0.634128   -1.083377
H       -2.792184    0.675378    1.447657
H       -1.902648    2.064273    0.766933
H       -1.010497    0.680185    1.451070
--
0 1
C        1.901014   -0.964654    0.861960
C        1.895125   -0.284720   -0.504912
C        1.868355    1.239229   -0.414182
H        1.902817   -2.064269    0.766921
H        1.010560   -0.680246    1.451056
H        2.792246   -0.675301    1.447637
H        1.020692   -0.634217   -1.083403
H        2.785165   -0.603544   -1.077535
H        2.757503    1.621889    0.118786
H        0.975794    1.589896    0.134484
H        1.850904    1.703444   -1.415399
$end

$rem
JOBTYPE           eda
EDA2              2
METHOD            wB97x-D
BASIS             def2-SV(P)
SCF_CONVERGENCE   8
THRESH            14
SYMMETRY          false
DISP_FREE_X       wB97X-D
DISP_FREE_C       none
EDA_BSSE          true
$end
--------------------------------------------------------------
 ----------------------------------------------------------------
             Standard Nuclear Orientation (Angstroms)
    I     Atom           X                Y                Z
 ----------------------------------------------------------------
    1      C       1.8684640040    -1.2392329118     0.4141587656
    2      C       1.8950979656     0.2847190763     0.5048919767
    3      C       1.9009309161     0.9646592664    -0.8619769290
    4      H       1.8510690393    -1.7034490513     1.4153757016
    5      H       2.7576360019    -1.6218148141    -0.1188253080
    6      H       0.9759230007    -1.5899788593    -0.1344902625
    7      H       2.7851049703     0.6036220204     1.0775220005
    8      H       1.0206269696     0.6341279728     1.0833770454
    9      H       2.7921839103     0.6753783714    -1.4476569897
   10      H       1.9026478891     2.0642732532    -0.7669327763
   11      H       1.0104969101     0.6801853245    -1.4510699480
   12      C      -1.9010140327    -0.9646538346    -0.8619601095
   13      C      -1.8951250193    -0.2847200243     0.5049119848
   14      C      -1.8683550618     1.2392289890     0.4141821959
   15      H      -1.9028170013    -2.0642688478    -0.7669212622
   16      H      -1.0105600538    -0.6802457291    -1.4510560905
   17      H      -2.7922460538    -0.6753007769    -1.4476370488
   18      H      -1.0206919967    -0.6342170814     1.0834029162
   19      H      -2.7851649976    -0.6035441275     1.0775349610
   20      H      -2.7575030843     1.6218890395    -0.1187857305
   21      H      -0.9757940838     1.5898960889    -0.1344837759
   22      H      -1.8509040511     1.7034438504     1.4153992600
 ----------------------------------------------------------------
 Molecular Point Group                 C1    NOp =  1
 Largest Abelian Subgroup              C1    NOp =  1
 Nuclear Repulsion Energy =         251.30588624 hartrees
 There are       26 alpha and       26 beta electrons
 Requested basis set is def2-SV(P)
 There are 68 shells and 116 basis functions

 Total QAlloc Memory Limit   7500 MB
 Mega-Array Size       188 MB
 MEM_STATIC part       192 MB
 A cutoff of  1.0D-14 yielded   2290 shell pairs
 There are      6750 function pairs (      7479 Cartesian)
 Smallest overlap matrix eigenvalue = 2.81E-03

 Scale SEOQF with 1.000000e-01/1.000000e-01/1.000000e+00

 Standard Electronic Orientation quadrupole field applied
 Nucleus-field energy     =    -0.0000000235 hartrees

 -----------------------------------------------------------------------
  General SCF calculation program by
  Eric Jon Sundstrom, Paul Horn, Yuezhi Mao, Dmitri Zuev, Alec White,
  David Stuck, Shaama M.S., Shane Yost, Joonho Lee, David Small,
  Daniel Levine, Susi Lehtola, Hugh Burton, Evgeny Epifanovsky,
  Bang C. Huynh
 -----------------------------------------------------------------------
================================================================
                 ALMO-EDA with the EDA2 driver                  
================================================================
 The second-generation ALMO-EDA (for DFT):                      
 P. R. Horn, Y. Mao and M. Head-Gordon, PCCP, 18, 23067 (2016)  
 Decomposition of the frozen energy:                            
 P. R. Horn, Y. Mao and M. Head-Gordon, JCP, 144, 114107 (2016) 
Using eda2 option set 2
Option set summary: Frozen orbital wavefunction, initial wavefunction decomposition, and traditional AO-based POL.
--------------------------------
Printing EDA Options
--------------------------------
eda_child_super_basis      0
fragmo_guess_mode          0
child_mp                   0
child_mp_orders            0
cls_elec                   1
cls_disp                   0
scfmi_mode                 1
scfmi_occs                 0
scfmi_virts                0
frz_relax                  0
frz_relax_method           0
dc_pen_start               0
dc_pen_conv                0
dc_pen_increment           0
dc_pen_steps               0
dc_pen_thresh_factor       0
dc_pen_pre_newton_thresh   0
frz_ortho_decomp           1
frz_ortho_decomp_conv      6
plot_mo_ortho_frz          0
frgm_method                2
scfmi_freeze_ss            0
separate_rehyb             0
plot_diff_den              0
eda_nocv                   0
eda_vct_relax              1
disp_free_x                -110
disp_free_c                0
eda_bsse                   1
eda_pct_a                  0
eda_covp                   0
--------------------------------
Attempting to make child job directory: /scratch/user/peterchao1/peterchao1/7000850_1675661341000000370031217/qchem71883//Frg1/
Attempting to make child job directory: /scratch/user/peterchao1/peterchao1/7000850_1675661341000000370031217/qchem71883//Frg2/
Creating input file /scratch/user/peterchao1/peterchao1/7000850_1675661341000000370031217/qchem71883/Frg1.input
using default PutDataFrgm: nothing
calling putenv with: QCSCRATCH=/scratch/user/peterchao1/peterchao1/7000850_1675661341000000370031217/qchem71883/ 
Spawning Job For Fragment 0
Done Job For Fragment 0
calling putenv with: QCSCRATCH=/scratch/user/peterchao1/peterchao1/7000850_1675661341000000370031217 
calling putenv with: QCTHREADS=8 
Creating input file /scratch/user/peterchao1/peterchao1/7000850_1675661341000000370031217/qchem71883/Frg2.input
using default PutDataFrgm: nothing
calling putenv with: QCSCRATCH=/scratch/user/peterchao1/peterchao1/7000850_1675661341000000370031217/qchem71883/ 
Spawning Job For Fragment 1
Done Job For Fragment 1
calling putenv with: QCSCRATCH=/scratch/user/peterchao1/peterchao1/7000850_1675661341000000370031217 
calling putenv with: QCTHREADS=8 
Doing General SCFMI
 Exchange:     0.2220 Hartree-Fock + 1.0000 wB97X-D + LR-HF
 Correlation:  1.0000 wB97X-D
 Using SG-2 standard quadrature grid
 Dispersion:   Grimme D
performing fock build before subrot guess so that all methods have access
Printing subrot_rss_gen Method Specification:
Occupied Subspace Method is 0
Virtual Subspace Method is 0
Energy of the unrelaxed supersystem initial determinant -238.005798108323
write pseudocanon occs and virts to disk
write pseudocanon orbital energies to disk
Tolerance of ortho_decomp_scf: 1.00e-06
GDM subspace size: 20
Beginning the Orthogonal Decomposition of the Initial Supersystem Wavefunction
    1    -237.9915308474      2.45e-02     ortho_decomp Preconditoned Steepest Descent
    2    -237.9921406700      4.99e-04     ortho_decomp BFGS Step
    3    -237.9921421002      4.23e-05     ortho_decomp BFGS Step
    4    -237.9921421046      1.68e-06     ortho_decomp BFGS Step
    5    -237.9921421046      4.33e-08     ortho_decomp 00000 Convergence criterion met
 Exchange:     0.2220 Hartree-Fock + 1.0000 wB97X-D + LR-HF
 Correlation:  1.0000 wB97X-D
 Using SG-2 standard quadrature grid
 Dispersion:   Grimme D
 Long-range K will be added via erf
 Coulomb attenuation parameter = 0.2 bohr**(-1)
 Exchange:     0.2220 Hartree-Fock + 1.0000 wB97X-D + LR-HF
 Correlation:  1.0000 wB97X-D
 Using SG-2 standard quadrature grid
 Dispersion:   Grimme D
 Long-range K will be added via erf
 Coulomb attenuation parameter = 0.2 bohr**(-1)
 Exchange:     0.2220 Hartree-Fock + 1.0000 wB97X-D + LR-HF
 Correlation:  1.0000 wB97X-D
 Using SG-2 standard quadrature grid
 Dispersion:   Grimme D
 Long-range K will be added via erf
 Coulomb attenuation parameter = 0.2 bohr**(-1)
Doing General SCFMI
 Exchange:     0.2220 Hartree-Fock + 1.0000 wB97X-D + LR-HF
 Correlation:  1.0000 wB97X-D
 Using SG-2 standard quadrature grid
 Dispersion:   Grimme D
performing fock build at end of subrot_r(subrot) constructor so that all methods have access
<S^2> of initial wavefunction before polarization iterations 0.0000000000
Beginning iterations for the determination of the polarized wavefunction
Energy prior to optimization (guess energy) = -238.005798108323
Begin Timing: Total SCF Calculation
begin iterations for algorithm: DIIS         
the SCF tolerance is set to 1.00e-08
    1    -238.0057981083      1.04e-04     00000 
    2    -238.0058573658      3.11e-05     00000 
    3    -238.0058611564      1.63e-05     00000 
    4    -238.0058622560      3.29e-06     00000 
    5    -238.0058623052      7.78e-07     00000 
    6    -238.0058623093      1.52e-07     00000 
    7    -238.0058623094      5.43e-08     00000 
    8    -238.0058623094      1.06e-08     00000 
    9    -238.0058623094      1.09e-09     00000 Convergence criterion met
write pseudocanon occs and virts to disk
write pseudocanon orbital energies to disk
Timing for Total SCF: 9.00s (wall), 60.13s (cpu)
<S^2> of polarized wavefunction after polarization iterations 0.0000000000
relaxing scfmi constraint to allow all rotations in the entire AO span
Doing General SCFMI
 Exchange:     0.2220 Hartree-Fock + 1.0000 wB97X-D + LR-HF
 Correlation:  1.0000 wB97X-D
 Using SG-2 standard quadrature grid
 Dispersion:   Grimme D
performing fock build at end of subrot_r(subrot) constructor so that all methods have access
<S^2> of polarized wavefunction before ct-allowed iterations 0.0000000000
Beginning iterations for the determination of the CT-Allowed wavefunction
Energy prior to optimization (guess energy) = -238.005862309394
Begin Timing: Total SCF Calculation
begin iterations for algorithm: DIIS         
the SCF tolerance is set to 1.00e-08
    1    -238.0058623094      4.38e-04     00000 
    2    -238.0075468803      5.61e-05     00000 
    3    -238.0076079382      8.30e-06     00000 
    4    -238.0076094674      1.91e-06     00000 
    5    -238.0076094982      8.03e-07     00000 
    6    -238.0076095038      1.36e-07     00000 
    7    -238.0076095040      1.98e-08     00000 
    8    -238.0076095040      4.22e-09     00000 Convergence criterion met
write pseudocanon occs and virts to disk
write pseudocanon orbital energies to disk
Timing for Total SCF: 7.00s (wall), 52.84s (cpu)
<S^2> of ct_allowed wavefunction after ct-allowed iterations 0.0000000000
Attempting to make child job directory: /scratch/user/peterchao1/peterchao1/7000850_1675661341000000370031217/qchem71883//FrgBSSE1/
Attempting to make child job directory: /scratch/user/peterchao1/peterchao1/7000850_1675661341000000370031217/qchem71883//FrgBSSE2/
Creating input file /scratch/user/peterchao1/peterchao1/7000850_1675661341000000370031217/qchem71883/FrgBSSE1.input
calling putenv with: QCSCRATCH=/scratch/user/peterchao1/peterchao1/7000850_1675661341000000370031217/qchem71883/ 
Spawning Job For Fragment 0
Done Job For Fragment 0
calling putenv with: QCSCRATCH=/scratch/user/peterchao1/peterchao1/7000850_1675661341000000370031217 
calling putenv with: QCTHREADS=8 
Creating input file /scratch/user/peterchao1/peterchao1/7000850_1675661341000000370031217/qchem71883/FrgBSSE2.input
calling putenv with: QCSCRATCH=/scratch/user/peterchao1/peterchao1/7000850_1675661341000000370031217/qchem71883/ 
Spawning Job For Fragment 1
Done Job For Fragment 1
calling putenv with: QCSCRATCH=/scratch/user/peterchao1/peterchao1/7000850_1675661341000000370031217 
calling putenv with: QCTHREADS=8 
====================================================================
   Evaluating the BSSE with fragment SCF in the supersystem basis
   Fragment contributions (kJ/mol) 
   Frgm 1: 1.2556
   Frgm 2: 1.2556
   BSSE (kJ/mol) = 2.5111
====================================================================

================================
        Results of EDA2         
================================
Basic EDA Quantities
--------------------
Fragment Energies (Ha):
1 -119.0016757789
2 -119.0016757613
--------------------
  E_prp (kJ/mol) = 0.0000
  E_frz (kJ/mol) = -6.4235
  E_pol (kJ/mol) = -0.1686
  E_vct (kJ/mol) = -2.0762 (CP-corrected)
  E_int (kJ/mol) = -8.6683 (CP-corrected)
--------------------


Decomposition of frozen interaction energy
--------------------
  --------------------
  Orthogonal Frozen Decomposition:
  --------------------
     E_elec   (ELEC)   (kJ/mol) = -12.1651
     E_pauli  (PAULI)  (kJ/mol) = 19.6553
     E_disp   (DISP)   (kJ/mol) = -13.9137
  --------------------
  Classical Frozen Decomposition:
  --------------------
     E_cls_elec  (CLS ELEC)  (kJ/mol) = -3.4868
     E_mod_pauli (MOD PAULI) (kJ/mol) = 10.9769 (FRZ - CLS ELEC - DISP)
     E_disp      (DISP)      (kJ/mol) = -13.9137
  --------------------
--------------------

Simplified EDA Summary (kJ/mol)
--------------------
 PREPARATION      0.0000
 FROZEN           -6.4235 (ELEC + PAULI + DISP)
[ELEC + PAULI = 7.4901, DISP = -13.9137]
 POLARIZATION    -0.1686
 CHARGE TRANSFER -2.0762     (counterpoise-corrected)
 TOTAL           -8.6683     (PRP + FRZ + POL + CT)
--------------------
 
 --------------------------------------------------------------
 
                    Orbital Energies (a.u.)
 --------------------------------------------------------------
 
 Alpha MOs
 -- Occupied --
-10.2870 -10.2870 -10.2793 -10.2793 -10.2785 -10.2785  -0.8740  -0.8689
 -0.7688  -0.7666  -0.6700  -0.6678  -0.5569  -0.5311  -0.5239  -0.5220
 -0.4840  -0.4815  -0.4676  -0.4598  -0.4198  -0.4197  -0.4194  -0.4148
 -0.4094  -0.4018
 -- Virtual --
  0.1226   0.1591   0.1658   0.1672   0.1858   0.1996   0.2082   0.2136
  0.2204   0.2261   0.2424   0.2443   0.2510   0.2514   0.2741   0.2922
  0.3005   0.3093   0.3366   0.3531   0.4818   0.4951   0.5030   0.5216
  0.5265   0.5416   0.5502   0.5685   0.6367   0.6643   0.7107   0.7130
  0.7240   0.7394   0.7412   0.7497   0.7500   0.7636   0.7771   0.7962
  0.7985   0.8056   0.8096   0.8139   0.8186   0.8214   0.8250   0.8251
  0.8371   0.8724   0.8734   0.9071   0.9222   0.9279   0.9504   0.9655
  1.1288   1.1394   1.1402   1.1982   1.5286   1.5331   1.5564   1.5619
  1.7994   1.8078   1.9250   1.9720   1.9857   1.9875   1.9907   2.0323
  2.0945   2.1073   2.1228   2.1254   2.2311   2.2395   2.2448   2.2483
  2.3387   2.3528   2.3983   2.4053   2.4490   2.4569   2.6241   2.6244
  2.7271   2.7278
 --------------------------------------------------------------
 
          Ground-State Mulliken Net Atomic Charges

     Atom                 Charge (a.u.)
  ----------------------------------------
      1 C                    -0.345245
      2 C                    -0.250196
      3 C                    -0.351586
      4 H                     0.120519
      5 H                     0.115141
      6 H                     0.123651
      7 H                     0.107437
      8 H                     0.114787
      9 H                     0.116242
     10 H                     0.121946
     11 H                     0.127305
     12 C                    -0.351585
     13 C                    -0.250194
     14 C                    -0.345250
     15 H                     0.121945
     16 H                     0.127305
     17 H                     0.116241
     18 H                     0.114786
     19 H                     0.107437
     20 H                     0.115141
     21 H                     0.123654
     22 H                     0.120520
  ----------------------------------------
  Sum of atomic charges =     0.000000

 -----------------------------------------------------------------
                    Cartesian Multipole Moments
 -----------------------------------------------------------------
    Charge (ESU x 10^10)
                 0.0000
    Dipole Moment (Debye)
         X      -0.0000      Y       0.0000      Z       0.0828
       Tot       0.0828
    Quadrupole Moments (Debye-Ang)
        XX     -42.5930     XY       0.1095     YY     -43.9706
        XZ      -0.0000     YZ      -0.0000     ZZ     -43.6290
    Octopole Moments (Debye-Ang^2)
       XXX       0.0000    XXY       0.0003    XYY      -0.0002
       YYY       0.0000    XXZ      -0.5446    XYZ       0.5948
       YYZ       0.6522    XZZ       0.0001    YZZ      -0.0000
       ZZZ       2.0288
    Hexadecapole Moments (Debye-Ang^3)
      XXXX    -995.8598   XXXY      -2.3162   XXYY    -227.0115
      XYYY       6.2617   YYYY    -335.8528   XXXZ      -0.0005
      XXYZ      -0.0002   XYYZ       0.0002   YYYZ      -0.0000
      XXZZ    -201.6508   XYZZ      -3.1239   YYZZ     -90.3635
      XZZZ       0.0001   YZZZ       0.0000   ZZZZ    -204.3662
 -----------------------------------------------------------------
Archival summary:
1\1\c011.cluster\SP\ProcedureUnspecified\BasisUnspecified\616\petercha\SunFeb523:30:202023SunFeb523:30:202023\0\\#,ProcedureUnspecified,BasisUnspecified,\\0,1\C\H,1,1.10518\H,1,1.10531,2,105.946\C,1,1.52666,2,109.321,3,-117.799,0\H,4,1.10372,1,111.508,2,56.8482,0\H,4,1.10491,1,111.076,2,-63.2624,0\H,4,1.10501,1,111.164,2,177.136,0\C,1,1.52688,2,109.442,3,117.898,0\H,8,1.10374,1,111.478,2,-57.135,0\H,8,1.10484,1,111.128,2,63.0321,0\H,8,1.10502,1,111.111,2,-177.32,0\H,2,2.40326,1,120.347,3,-147.189,0\C,12,1.10518,2,120.341,1,-105.324,0\H,13,1.10531,12,105.946,2,-147.187,0\C,13,1.52666,12,109.321,2,95.0143,0\H,15,1.10372,13,111.508,12,56.847,0\H,15,1.10491,13,111.076,12,-63.2638,0\H,15,1.10501,13,111.164,12,177.134,0\C,13,1.52688,12,109.442,2,-29.2895,0\H,19,1.10374,13,111.478,12,-57.1337,0\H,19,1.10484,13,111.128,12,63.0337,0\H,19,1.10502,13,111.111,12,-177.319,0\\\@

 Total job time:  77.81s(wall), 260.82s(cpu) 
 Sun Feb  5 23:30:20 2023

        *************************************************************
        *                                                           *
        *  Thank you very much for using Q-Chem.  Have a nice day.  *
        *                                                           *
        *************************************************************


remove work dirs /scratch/user/peterchao1/peterchao1/7000850_1675661341000000370031217/qchem71883.0 -- /scratch/user/peterchao1/peterchao1/7000850_1675661341000000370031217/qchem71883.-1
rm -rf /scratch/user/peterchao1/peterchao1/7000850_1675661341000000370031217/qchem71883
real 79.14
user 392.71
sys 46.65
