 Entering Gaussian System, Link 0=g16
 Input=gaussian_test.inp
 Output=gaussian_test.log
 Initial command:
 /sw/restricted/lms/sw/Gaussian/g16_B01/g16/l1.exe "/scratch/user/peterchao1/peterchao1/8625376_1689034735000000998081966/Gau-12406.inp" -scrdir="/scratch/user/peterchao1/peterchao1/8625376_1689034735000000998081966/"
 Entering Link 1 = /sw/restricted/lms/sw/Gaussian/g16_B01/g16/l1.exe PID=     12425.
  
 Copyright (c) 1988-2017, Gaussian, Inc.  All Rights Reserved.
  
 This is part of the Gaussian(R) 16 program.  It is based on
 the Gaussian(R) 09 system (copyright 2009, Gaussian, Inc.),
 the Gaussian(R) 03 system (copyright 2003, Gaussian, Inc.),
 the Gaussian(R) 98 system (copyright 1998, Gaussian, Inc.),
 the Gaussian(R) 94 system (copyright 1995, Gaussian, Inc.),
 the Gaussian 92(TM) system (copyright 1992, Gaussian, Inc.),
 the Gaussian 90(TM) system (copyright 1990, Gaussian, Inc.),
 the Gaussian 88(TM) system (copyright 1988, Gaussian, Inc.),
 the Gaussian 86(TM) system (copyright 1986, Carnegie Mellon
 University), and the Gaussian 82(TM) system (copyright 1983,
 Carnegie Mellon University). Gaussian is a federally registered
 trademark of Gaussian, Inc.
  
 This software contains proprietary and confidential information,
 including trade secrets, belonging to Gaussian, Inc.
  
 This software is provided under written license and may be
 used, copied, transmitted, or stored only in accord with that
 written license.
  
 The following legend is applicable only to US Government
 contracts under FAR:
  
                    RESTRICTED RIGHTS LEGEND
  
 Use, reproduction and disclosure by the US Government is
 subject to restrictions as set forth in subparagraphs (a)
 and (c) of the Commercial Computer Software - Restricted
 Rights clause in FAR 52.227-19.
  
 Gaussian, Inc.
 340 Quinnipiac St., Bldg. 40, Wallingford CT 06492
  
  
 ---------------------------------------------------------------
 Warning -- This program may not be used in any manner that
 competes with the business of Gaussian, Inc. or will provide
 assistance to any competitor of Gaussian, Inc.  The licensee
 of this program is prohibited from giving any competitor of
 Gaussian, Inc. access to this program.  By using this program,
 the user acknowledges that Gaussian, Inc. is engaged in the
 business of creating and licensing software in the field of
 computational chemistry and represents and warrants to the
 licensee that it is not a competitor of Gaussian, Inc. and that
 it will not use this program in any manner prohibited above.
 ---------------------------------------------------------------
  

 Cite this work as:
 Gaussian 16, Revision B.01,
 M. J. Frisch, G. W. Trucks, H. B. Schlegel, G. E. Scuseria, 
 M. A. Robb, J. R. Cheeseman, G. Scalmani, V. Barone, 
 G. A. Petersson, H. Nakatsuji, X. Li, M. Caricato, A. V. Marenich, 
 J. Bloino, B. G. Janesko, R. Gomperts, B. Mennucci, H. P. Hratchian, 
 J. V. Ortiz, A. F. Izmaylov, J. L. Sonnenberg, D. Williams-Young, 
 F. Ding, F. Lipparini, F. Egidi, J. Goings, B. Peng, A. Petrone, 
 T. Henderson, D. Ranasinghe, V. G. Zakrzewski, J. Gao, N. Rega, 
 G. Zheng, W. Liang, M. Hada, M. Ehara, K. Toyota, R. Fukuda, 
 J. Hasegawa, M. Ishida, T. Nakajima, Y. Honda, O. Kitao, H. Nakai, 
 T. Vreven, K. Throssell, J. A. Montgomery, Jr., J. E. Peralta, 
 F. Ogliaro, M. J. Bearpark, J. J. Heyd, E. N. Brothers, K. N. Kudin, 
 V. N. Staroverov, T. A. Keith, R. Kobayashi, J. Normand, 
 K. Raghavachari, A. P. Rendell, J. C. Burant, S. S. Iyengar, 
 J. Tomasi, M. Cossi, J. M. Millam, M. Klene, C. Adamo, R. Cammi, 
 J. W. Ochterski, R. L. Martin, K. Morokuma, O. Farkas, 
 J. B. Foresman, and D. J. Fox, Gaussian, Inc., Wallingford CT, 2016.
 
 ******************************************
 Gaussian 16:  ES64L-G16RevB.01 20-Dec-2017
                10-Jul-2023 
 ******************************************
 %nprocshared=4
 Will use up to    4 processors via shared memory.
 %mem=8000mb
 %chk=33.chk
 %mem=8000mb
 ----------------------------------------------------------------------
 #T wB97XD/def2svpp opt=tight freq int(grid=ultrafine) scf=(verytight,q
 c)
 ----------------------------------------------------------------------
 -------
 comment
 -------
 Symbolic Z-matrix:
 Charge =  1 Multiplicity = 2
 C                    -2.2479    0.38095  -0.03436 
 C                    -1.12801  -0.4081   -0.70491 
 C                     0.24537  -0.39294  -0.00392 
 C                     0.14206  -0.85665   1.45358 
 C                     1.218    -1.29533  -0.76895 
 S                     0.93273   1.32585   0.07362 
 H                    -2.52566  -0.0501    0.94259 
 H                    -3.1521    0.37364  -0.66641 
 H                    -1.94823   1.43013   0.12689 
 H                    -0.98901  -0.04009  -1.73859 
 H                    -1.43525  -1.46793  -0.80027 
 H                    -0.32229  -1.85868   1.49215 
 H                    -0.47148  -0.17228   2.06297 
 H                     1.14095  -0.92336   1.91767 
 H                     0.85348  -2.3395   -0.76426 
 H                     2.22135  -1.27416  -0.31227 
 H                     1.31355  -0.97752  -1.82225 
 H                     1.01388   1.51864  -1.26475 
 

 GradGradGradGradGradGradGradGradGradGradGradGradGradGradGradGradGradGrad
 Initialization pass.
                           ----------------------------
                           !    Initial Parameters    !
                           ! (Angstroms and Degrees)  !
 --------------------------                            --------------------------
 ! Name  Definition              Value          Derivative Info.                !
 --------------------------------------------------------------------------------
 ! R1    R(1,2)                  1.5252         estimate D2E/DX2                !
 ! R2    R(1,7)                  1.1034         estimate D2E/DX2                !
 ! R3    R(1,8)                  1.1032         estimate D2E/DX2                !
 ! R4    R(1,9)                  1.103          estimate D2E/DX2                !
 ! R5    R(2,3)                  1.542          estimate D2E/DX2                !
 ! R6    R(2,10)                 1.106          estimate D2E/DX2                !
 ! R7    R(2,11)                 1.1076         estimate D2E/DX2                !
 ! R8    R(3,4)                  1.533          estimate D2E/DX2                !
 ! R9    R(3,5)                  1.5315         estimate D2E/DX2                !
 ! R10   R(3,6)                  1.8528         estimate D2E/DX2                !
 ! R11   R(4,12)                 1.1051         estimate D2E/DX2                !
 ! R12   R(4,13)                 1.1028         estimate D2E/DX2                !
 ! R13   R(4,14)                 1.1035         estimate D2E/DX2                !
 ! R14   R(5,15)                 1.106          estimate D2E/DX2                !
 ! R15   R(5,16)                 1.1026         estimate D2E/DX2                !
 ! R16   R(5,17)                 1.1043         estimate D2E/DX2                !
 ! R17   R(6,18)                 1.3546         estimate D2E/DX2                !
 ! A1    A(2,1,7)              111.8389         estimate D2E/DX2                !
 ! A2    A(2,1,8)              110.2716         estimate D2E/DX2                !
 ! A3    A(2,1,9)              110.9089         estimate D2E/DX2                !
 ! A4    A(7,1,8)              107.359          estimate D2E/DX2                !
 ! A5    A(7,1,9)              108.093          estimate D2E/DX2                !
 ! A6    A(8,1,9)              108.2243         estimate D2E/DX2                !
 ! A7    A(1,2,3)              116.6794         estimate D2E/DX2                !
 ! A8    A(1,2,10)             109.3311         estimate D2E/DX2                !
 ! A9    A(1,2,11)             109.2203         estimate D2E/DX2                !
 ! A10   A(3,2,10)             108.039          estimate D2E/DX2                !
 ! A11   A(3,2,11)             107.1943         estimate D2E/DX2                !
 ! A12   A(10,2,11)            105.83           estimate D2E/DX2                !
 ! A13   A(2,3,4)              111.6671         estimate D2E/DX2                !
 ! A14   A(2,3,5)              109.4355         estimate D2E/DX2                !
 ! A15   A(2,3,6)              111.0123         estimate D2E/DX2                !
 ! A16   A(4,3,5)              109.846          estimate D2E/DX2                !
 ! A17   A(4,3,6)              105.4168         estimate D2E/DX2                !
 ! A18   A(5,3,6)              109.3845         estimate D2E/DX2                !
 ! A19   A(3,4,12)             109.6209         estimate D2E/DX2                !
 ! A20   A(3,4,13)             112.0337         estimate D2E/DX2                !
 ! A21   A(3,4,14)             110.9252         estimate D2E/DX2                !
 ! A22   A(12,4,13)            108.0387         estimate D2E/DX2                !
 ! A23   A(12,4,14)            108.1123         estimate D2E/DX2                !
 ! A24   A(13,4,14)            107.9833         estimate D2E/DX2                !
 ! A25   A(3,5,15)             110.173          estimate D2E/DX2                !
 ! A26   A(3,5,16)             111.0815         estimate D2E/DX2                !
 ! A27   A(3,5,17)             111.2118         estimate D2E/DX2                !
 ! A28   A(15,5,16)            108.4389         estimate D2E/DX2                !
 ! A29   A(15,5,17)            107.7138         estimate D2E/DX2                !
 ! A30   A(16,5,17)            108.1061         estimate D2E/DX2                !
 ! A31   A(3,6,18)              96.4829         estimate D2E/DX2                !
 ! D1    D(7,1,2,3)            -65.6866         estimate D2E/DX2                !
 ! D2    D(7,1,2,10)           171.3881         estimate D2E/DX2                !
 ! D3    D(7,1,2,11)            56.019          estimate D2E/DX2                !
 ! D4    D(8,1,2,3)            174.9289         estimate D2E/DX2                !
 ! D5    D(8,1,2,10)            52.0035         estimate D2E/DX2                !
 ! D6    D(8,1,2,11)           -63.3656         estimate D2E/DX2                !
 ! D7    D(9,1,2,3)             55.0614         estimate D2E/DX2                !
 ! D8    D(9,1,2,10)           -67.864          estimate D2E/DX2                !
 ! D9    D(9,1,2,11)           176.7669         estimate D2E/DX2                !
 ! D10   D(1,2,3,4)             54.9612         estimate D2E/DX2                !
 ! D11   D(1,2,3,5)            176.802          estimate D2E/DX2                !
 ! D12   D(1,2,3,6)            -62.3631         estimate D2E/DX2                !
 ! D13   D(10,2,3,4)           178.5529         estimate D2E/DX2                !
 ! D14   D(10,2,3,5)           -59.6064         estimate D2E/DX2                !
 ! D15   D(10,2,3,6)            61.2286         estimate D2E/DX2                !
 ! D16   D(11,2,3,4)           -67.8012         estimate D2E/DX2                !
 ! D17   D(11,2,3,5)            54.0396         estimate D2E/DX2                !
 ! D18   D(11,2,3,6)           174.8745         estimate D2E/DX2                !
 ! D19   D(2,3,4,12)            55.8603         estimate D2E/DX2                !
 ! D20   D(2,3,4,13)           -64.0688         estimate D2E/DX2                !
 ! D21   D(2,3,4,14)           175.1786         estimate D2E/DX2                !
 ! D22   D(5,3,4,12)           -65.7434         estimate D2E/DX2                !
 ! D23   D(5,3,4,13)           174.3274         estimate D2E/DX2                !
 ! D24   D(5,3,4,14)            53.5749         estimate D2E/DX2                !
 ! D25   D(6,3,4,12)           176.5099         estimate D2E/DX2                !
 ! D26   D(6,3,4,13)            56.5808         estimate D2E/DX2                !
 ! D27   D(6,3,4,14)           -64.1718         estimate D2E/DX2                !
 ! D28   D(2,3,5,15)           -61.9937         estimate D2E/DX2                !
 ! D29   D(2,3,5,16)           177.8234         estimate D2E/DX2                !
 ! D30   D(2,3,5,17)            57.3663         estimate D2E/DX2                !
 ! D31   D(4,3,5,15)            60.9354         estimate D2E/DX2                !
 ! D32   D(4,3,5,16)           -59.2476         estimate D2E/DX2                !
 ! D33   D(4,3,5,17)          -179.7047         estimate D2E/DX2                !
 ! D34   D(6,3,5,15)           176.1874         estimate D2E/DX2                !
 ! D35   D(6,3,5,16)            56.0044         estimate D2E/DX2                !
 ! D36   D(6,3,5,17)           -64.4527         estimate D2E/DX2                !
 ! D37   D(2,3,6,18)           -62.0403         estimate D2E/DX2                !
 ! D38   D(4,3,6,18)           176.8821         estimate D2E/DX2                !
 ! D39   D(5,3,6,18)            58.8248         estimate D2E/DX2                !
 --------------------------------------------------------------------------------
 Number of steps in this run=     97 maximum allowed number of steps=    108.
 GradGradGradGradGradGradGradGradGradGradGradGradGradGradGradGradGradGrad

                    Distance matrix (angstroms):
                    1          2          3          4          5
     1  C    0.000000
     2  C    1.525249   0.000000
     3  C    2.610788   1.542009   0.000000
     4  C    3.075306   2.544274   1.532972   0.000000
     5  C    3.919434   2.508988   1.531531   2.507930   0.000000
     6  S    3.319769   2.803446   1.852751   2.700512   2.768008
     7  H    1.103355   2.189941   2.948222   2.833430   4.300572
     8  H    1.103233   2.170144   3.545324   4.106022   4.679068
     9  H    1.102985   2.178014   2.855273   3.370280   4.272667
    10  H    2.160204   1.106008   2.158077   3.483682   2.717852
    11  H    2.159947   1.107578   2.148086   2.818046   2.659038
    12  H    3.324779   2.753259   2.169990   1.105060   2.793277
    13  H    2.803660   2.854431   2.198766   1.102790   3.483577
    14  H    4.122613   3.505935   2.185385   1.103458   2.713339
    15  H    4.189532   2.767698   2.176474   2.761117   1.105980
    16  H    4.773969   3.481727   2.185433   2.759707   1.102597
    17  H    4.210213   2.744795   2.188394   3.481097   1.104342
    18  H    3.667063   2.934860   2.415452   3.713675   2.864593
                    6          7          8          9         10
     6  S    0.000000
     7  H    3.822143   0.000000
     8  H    4.259128   1.777885   0.000000
     9  H    2.883341   1.786019   1.787403   0.000000
    10  H    2.973713   3.090330   2.449426   2.561580   0.000000
    11  H    3.765127   2.497359   2.521276   3.085697   1.765870
    12  H    3.705200   2.903070   4.201242   3.914575   3.766892
    13  H    2.858967   2.343035   3.864356   2.914945   3.838901
    14  H    2.915961   3.893246   5.175899   4.276549   4.322632
    15  H    3.760733   4.424170   4.838941   4.780574   3.103451
    16  H    2.927367   5.060342   5.631568   4.989133   3.723403
    17  H    3.007463   4.821199   4.806619   4.498351   2.487481
    18  H    1.354615   4.456634   4.361695   3.273927   2.581803
                   11         12         13         14         15
    11  H    0.000000
    12  H    2.578093   0.000000
    13  H    3.287201   1.786627   0.000000
    14  H    3.784250   1.788000   1.784703   0.000000
    15  H    2.449332   2.589400   3.800733   3.046443   0.000000
    16  H    3.694104   3.172959   3.755955   2.502586   1.791736
    17  H    2.973354   3.799687   4.350819   3.744287   1.784938
    18  H    3.890183   4.559834   4.017359   4.013390   3.893772
                   16         17         18
    16  H    0.000000
    17  H    1.786652   0.000000
    18  H    3.188246   2.575152   0.000000
 Framework group  C1[X(C5H12S)]
 Deg. of freedom    48
                         Standard orientation:                         
 ---------------------------------------------------------------------
 Center     Atomic      Atomic             Coordinates (Angstroms)
 Number     Number       Type             X           Y           Z
 ---------------------------------------------------------------------
      1          6           0       -2.247896    0.380954   -0.034361
      2          6           0       -1.128008   -0.408097   -0.704909
      3          6           0        0.245372   -0.392935   -0.003918
      4          6           0        0.142056   -0.856653    1.453578
      5          6           0        1.217997   -1.295330   -0.768949
      6         16           0        0.932730    1.325848    0.073618
      7          1           0       -2.525656   -0.050097    0.942592
      8          1           0       -3.152097    0.373635   -0.666413
      9          1           0       -1.948232    1.430132    0.126892
     10          1           0       -0.989009   -0.040088   -1.738593
     11          1           0       -1.435249   -1.467926   -0.800272
     12          1           0       -0.322287   -1.858679    1.492148
     13          1           0       -0.471478   -0.172279    2.062966
     14          1           0        1.140950   -0.923364    1.917668
     15          1           0        0.853481   -2.339503   -0.764258
     16          1           0        2.221349   -1.274158   -0.312269
     17          1           0        1.313551   -0.977520   -1.822247
     18          1           0        1.013878    1.518637   -1.264750
 ---------------------------------------------------------------------
 Rotational constants (GHZ):           3.0037699           2.3385682           1.9037555
   112 basis functions,   210 primitive gaussians,   118 cartesian basis functions
    29 alpha electrons       28 beta electrons
       nuclear repulsion energy       321.0315233688 Hartrees.
 NAtoms=   18 NActive=   18 NUniq=   18 SFac= 1.00D+00 NAtFMM=   60 NAOKFM=F Big=F
 Nuclear repulsion after empirical dispersion term =      321.0201610588 Hartrees.
   1 Symmetry operations used in ECPInt.
 ECPInt:  NShTT=    1953 NPrTT=    8125 LenC2=    1948 LenP2D=    6583.
 LDataN:  DoStor=T MaxTD1= 4 Len=   56
 ExpMin= 1.22D-01 ExpMax= 9.18D+03 ExpMxC= 1.38D+03 IAcc=3 IRadAn=         5 AccDes= 0.00D+00
 Harris functional with IExCor= 4639 and IRadAn=       5 diagonalized for initial guess.
 HarFok:  IExCor= 4639 AccDes= 0.00D+00 IRadAn=         5 IDoV= 1 UseB2=F ITyADJ=14
 ICtDFT=  3500011 ScaDFX=  1.000000  1.000000  1.000000  1.000000
 FoFCou: FMM=F IPFlag=           0 FMFlag=      100000 FMFlg1=           0
         NFxFlg=           0 DoJE=T BraDBF=F KetDBF=T FulRan=T
         wScrn=  0.000000 ICntrl=       500 IOpCl=  0 I1Cent=   200000004 NGrid=           0
         NMat0=    1 NMatS0=      1 NMatT0=    0 NMatD0=    1 NMtDS0=    0 NMtDT0=    0
 Petite list used in FoFCou.
 Initial guess <Sx>= 0.0000 <Sy>= 0.0000 <Sz>= 0.5000 <S**2>= 0.7500 S= 0.5000
     Minimum is close to point  4 DX=  5.12D-02 DF= -1.33D-03 DXR=  7.86D-02 DFR=  6.40D-03 which will be used.
     Minimum is close to point  3 DX=  3.06D-03 DF= -1.66D-07 DXR=  3.39D-03 DFR=  1.15D-05 which will be used.
     Accept linear search using points  1 and  2.
     Minimum is close to point  2 DX= -5.77D-02 DF= -6.77D-06 DXR=  7.77D-02 DFR=  3.78D-03 which will be used.
     Minimum is close to point  2 DX=  7.20D-03 DF= -3.93D-08 DXR=  8.92D-03 DFR=  7.96D-05 which will be used.
     Minimum is close to point  2 DX=  5.67D-02 DF= -7.78D-07 DXR=  6.62D-02 DFR=  4.40D-03 which will be used.
     Accept linear search using points  1 and  2.
     Minimum is close to point  2 DX= -5.60D-04 DF= -4.21D-11 DXR=  5.61D-04 DFR=  3.14D-07 which will be used.
     Accept linear search using points  1 and  2.
     Minimum is close to point  2 DX= -1.30D-05 DF=  0.00D+00 DXR=  1.30D-05 DFR=  0.00D+00 which will be used.
 SCF Done:  E(UwB97XD) =  -595.276475900     a.u. after    8 cycles
            Convg  =    0.4596D-07                    41 Fock formations.
              S**2 =  0.7538                  -V/T =  2.0054
 <Sx>= 0.0000 <Sy>= 0.0000 <Sz>= 0.5000 <S**2>= 0.7538 S= 0.5019
 <L.S>=  0.00000000000    
 Annihilation of the first spin contaminant:
 S**2 before annihilation     0.7538,   after     0.7500

 **********************************************************************

            Population analysis using the SCF Density.

 **********************************************************************

 Orbital symmetries:
 Alpha Orbitals:
       Occupied  (A) (A) (A) (A) (A) (A) (A) (A) (A) (A) (A) (A)
                 (A) (A) (A) (A) (A) (A) (A) (A) (A) (A) (A) (A)
                 (A) (A) (A) (A) (A)
       Virtual   (A) (A) (A) (A) (A) (A) (A) (A) (A) (A) (A) (A)
                 (A) (A) (A) (A) (A) (A) (A) (A) (A) (A) (A) (A)
                 (A) (A) (A) (A) (A) (A) (A) (A) (A) (A) (A) (A)
                 (A) (A) (A) (A) (A) (A) (A) (A) (A) (A) (A) (A)
                 (A) (A) (A) (A) (A) (A) (A) (A) (A) (A) (A) (A)
                 (A) (A) (A) (A) (A) (A) (A) (A) (A) (A) (A) (A)
                 (A) (A) (A) (A) (A) (A) (A) (A) (A) (A) (A)
 Beta  Orbitals:
       Occupied  (A) (A) (A) (A) (A) (A) (A) (A) (A) (A) (A) (A)
                 (A) (A) (A) (A) (A) (A) (A) (A) (A) (A) (A) (A)
                 (A) (A) (A) (A)
       Virtual   (A) (A) (A) (A) (A) (A) (A) (A) (A) (A) (A) (A)
                 (A) (A) (A) (A) (A) (A) (A) (A) (A) (A) (A) (A)
                 (A) (A) (A) (A) (A) (A) (A) (A) (A) (A) (A) (A)
                 (A) (A) (A) (A) (A) (A) (A) (A) (A) (A) (A) (A)
                 (A) (A) (A) (A) (A) (A) (A) (A) (A) (A) (A) (A)
                 (A) (A) (A) (A) (A) (A) (A) (A) (A) (A) (A) (A)
                 (A) (A) (A) (A) (A) (A) (A) (A) (A) (A) (A) (A)
 The electronic state is 2-A.
 Alpha  occ. eigenvalues --  -89.32886 -10.55858 -10.48071 -10.47694 -10.46558
 Alpha  occ. eigenvalues --  -10.44180  -8.37928  -6.33754  -6.32909  -6.32490
 Alpha  occ. eigenvalues --   -1.17319  -1.06702  -1.00777  -0.96789  -0.89376
 Alpha  occ. eigenvalues --   -0.83437  -0.76058  -0.74327  -0.74000  -0.69452
 Alpha  occ. eigenvalues --   -0.68790  -0.65267  -0.63835  -0.63633  -0.62661
 Alpha  occ. eigenvalues --   -0.62493  -0.59839  -0.59289  -0.58472
 Alpha virt. eigenvalues --   -0.13848  -0.09371  -0.01715   0.01887   0.02184
 Alpha virt. eigenvalues --    0.03363   0.03885   0.04751   0.06317   0.07501
 Alpha virt. eigenvalues --    0.08300   0.08672   0.09474   0.10750   0.11629
 Alpha virt. eigenvalues --    0.12314   0.15673   0.20819   0.26373   0.28924
 Alpha virt. eigenvalues --    0.30649   0.32047   0.33178   0.38050   0.39141
 Alpha virt. eigenvalues --    0.40989   0.42869   0.46673   0.48158   0.50026
 Alpha virt. eigenvalues --    0.52320   0.53679   0.55053   0.56335   0.58418
 Alpha virt. eigenvalues --    0.58916   0.59396   0.61767   0.62807   0.64150
 Alpha virt. eigenvalues --    0.64626   0.65010   0.66165   0.66446   0.67411
 Alpha virt. eigenvalues --    0.67697   0.68093   0.70344   0.72278   0.76898
 Alpha virt. eigenvalues --    0.78147   0.80533   0.86871   0.92923   0.98296
 Alpha virt. eigenvalues --    1.03161   1.05541   1.09203   1.29796   1.32624
 Alpha virt. eigenvalues --    1.50539   1.62831   1.70765   1.72575   1.76358
 Alpha virt. eigenvalues --    1.78735   1.81117   1.86129   1.87407   1.92869
 Alpha virt. eigenvalues --    1.96656   2.00451   2.04997   2.05697   2.09618
 Alpha virt. eigenvalues --    2.15802   2.18788   2.26455   2.33361   2.34302
 Alpha virt. eigenvalues --    2.50368   2.58650   2.60578
  Beta  occ. eigenvalues --  -89.32342 -10.55854 -10.48002 -10.47614 -10.46560
  Beta  occ. eigenvalues --  -10.44165  -8.37399  -6.32536  -6.32122  -6.31997
  Beta  occ. eigenvalues --   -1.15492  -1.04529  -1.00465  -0.96666  -0.89108
  Beta  occ. eigenvalues --   -0.83015  -0.75410  -0.73679  -0.72755  -0.68674
  Beta  occ. eigenvalues --   -0.68413  -0.64824  -0.63717  -0.62669  -0.62409
  Beta  occ. eigenvalues --   -0.59822  -0.59130  -0.58465
  Beta virt. eigenvalues --   -0.34725  -0.13249  -0.07906  -0.01596   0.02041
  Beta virt. eigenvalues --    0.02233   0.03407   0.03967   0.04821   0.06614
  Beta virt. eigenvalues --    0.07619   0.08427   0.08968   0.09596   0.10834
  Beta virt. eigenvalues --    0.11803   0.12402   0.15770   0.21808   0.26754
  Beta virt. eigenvalues --    0.30309   0.30979   0.32680   0.33570   0.38671
  Beta virt. eigenvalues --    0.40375   0.42035   0.44882   0.47919   0.49157
  Beta virt. eigenvalues --    0.51312   0.53277   0.54432   0.55354   0.57077
  Beta virt. eigenvalues --    0.58905   0.59184   0.60154   0.62106   0.62922
  Beta virt. eigenvalues --    0.64334   0.64711   0.65202   0.66470   0.66654
  Beta virt. eigenvalues --    0.67568   0.67932   0.68378   0.70824   0.72921
  Beta virt. eigenvalues --    0.77783   0.78674   0.81564   0.87728   0.93270
  Beta virt. eigenvalues --    0.98506   1.03434   1.06211   1.09712   1.30107
  Beta virt. eigenvalues --    1.32737   1.50686   1.62973   1.70922   1.72774
  Beta virt. eigenvalues --    1.76555   1.78898   1.81171   1.86277   1.87507
  Beta virt. eigenvalues --    1.92969   1.96730   2.00566   2.05107   2.05790
  Beta virt. eigenvalues --    2.09738   2.15888   2.18876   2.26558   2.33508
  Beta virt. eigenvalues --    2.34426   2.50441   2.58820   2.60755
          Condensed to atoms (all electrons):
          Atomic-Atomic Spin Densities.
 Mulliken charges and spin densities:
               1          2
     1  C   -0.329087   0.014637
     2  C   -0.186843   0.034008
     3  C   -0.494700  -0.025731
     4  C   -0.277827   0.000570
     5  C   -0.254373   0.032264
     6  S    0.402419   0.964862
     7  H    0.167256   0.000437
     8  H    0.184767  -0.000623
     9  H    0.120594  -0.004229
    10  H    0.143916  -0.000953
    11  H    0.178190   0.002078
    12  H    0.190869  -0.001704
    13  H    0.178386   0.000012
    14  H    0.172822   0.000203
    15  H    0.201370   0.011155
    16  H    0.175942  -0.000643
    17  H    0.164303  -0.001000
    18  H    0.261996  -0.025343
 Sum of Mulliken charges =   1.00000   1.00000
 Mulliken charges and spin densities with hydrogens summed into heavy atoms:
               1          2
     1  C    0.143529   0.010223
     2  C    0.135263   0.035133
     3  C   -0.494700  -0.025731
     4  C    0.264251  -0.000919
     5  C    0.287241   0.041776
     6  S    0.664414   0.939519
 Electronic spatial extent (au):  <R**2>=            792.8044
 Charge=              1.0000 electrons
 Dipole moment (field-independent basis, Debye):
    X=              1.7652    Y=              1.2687    Z=             -1.1489  Tot=              2.4588
                          Isotropic Fermi Contact Couplings
        Atom                 a.u.       MegaHertz       Gauss      10(-4) cm-1
     1  C(13)              0.00155       1.73786       0.62011       0.57969
     2  C(13)              0.02304      25.90033       9.24188       8.63942
     3  C(13)             -0.01182     -13.28906      -4.74187      -4.43275
     4  C(13)             -0.00113      -1.26669      -0.45199      -0.42252
     5  C(13)              0.03338      37.52530      13.38996      12.51709
     6  S(33)              0.17672      60.69718      21.65826      20.24640
     7  H(1)               0.00024       1.06633       0.38049       0.35569
     8  H(1)              -0.00009      -0.38607      -0.13776      -0.12878
     9  H(1)               0.00085       3.79109       1.35276       1.26457
    10  H(1)              -0.00062      -2.78282      -0.99298      -0.92825
    11  H(1)               0.00100       4.44881       1.58745       1.48396
    12  H(1)              -0.00065      -2.90696      -1.03727      -0.96966
    13  H(1)              -0.00011      -0.47329      -0.16888      -0.15787
    14  H(1)              -0.00010      -0.44248      -0.15789      -0.14759
    15  H(1)               0.00466      20.85050       7.43998       6.95498
    16  H(1)              -0.00064      -2.85830      -1.01991      -0.95343
    17  H(1)              -0.00045      -2.02745      -0.72345      -0.67629
    18  H(1)              -0.00858     -38.34667     -13.68305     -12.79107
 --------------------------------------------------------
       Center         ----  Spin Dipole Couplings  ----
                      3XX-RR        3YY-RR        3ZZ-RR
 --------------------------------------------------------
     1   Atom       -0.001656      0.014095     -0.012440
     2   Atom        0.042291     -0.021863     -0.020428
     3   Atom        0.048267     -0.018370     -0.029896
     4   Atom       -0.003116      0.003083      0.000032
     5   Atom       -0.024564      0.041414     -0.016850
     6   Atom        3.102585     -1.044737     -2.057848
     7   Atom        0.002693     -0.001858     -0.000835
     8   Atom        0.004129     -0.001697     -0.002432
     9   Atom        0.013097     -0.004123     -0.008974
    10   Atom       -0.001301     -0.003148      0.004449
    11   Atom       -0.000511      0.005703     -0.005192
    12   Atom       -0.001746      0.002341     -0.000596
    13   Atom       -0.002114     -0.000707      0.002821
    14   Atom       -0.004915      0.002881      0.002034
    15   Atom       -0.002953      0.008129     -0.005176
    16   Atom        0.001744      0.006621     -0.008365
    17   Atom       -0.006547      0.000671      0.005876
    18   Atom       -0.009897     -0.031853      0.041750
 --------------------------------------------------------
                        XY            XZ            YZ
 --------------------------------------------------------
     1   Atom        0.002794      0.000537      0.000872
     2   Atom        0.023148      0.030365      0.009370
     3   Atom       -0.034920      0.000008      0.003036
     4   Atom        0.003291     -0.002556     -0.005226
     5   Atom       -0.024124     -0.011558      0.036137
     6   Atom       -2.191855     -0.051294     -0.026786
     7   Atom        0.002486     -0.002699     -0.000676
     8   Atom        0.001360      0.001990      0.000814
     9   Atom        0.002581     -0.000086      0.001303
    10   Atom        0.003642      0.006121      0.002393
    11   Atom        0.003720      0.001534      0.001870
    12   Atom        0.001829     -0.001334     -0.003264
    13   Atom        0.003220     -0.004294     -0.005764
    14   Atom        0.000068     -0.000024     -0.007035
    15   Atom        0.003167     -0.000723      0.000954
    16   Atom       -0.006841      0.001005      0.002469
    17   Atom       -0.000714     -0.002547      0.006358
    18   Atom       -0.011582     -0.004494     -0.011753
 --------------------------------------------------------


 ---------------------------------------------------------------------------------
              Anisotropic Spin Dipole Couplings in Principal Axis System
 ---------------------------------------------------------------------------------

       Atom             a.u.   MegaHertz   Gauss  10(-4) cm-1        Axes

              Baa    -0.0125    -1.676    -0.598    -0.559 -0.0422 -0.0283  0.9987
     1 C(13)  Bbb    -0.0021    -0.285    -0.102    -0.095  0.9845 -0.1716  0.0368
              Bcc     0.0146     1.961     0.700     0.654  0.1703  0.9848  0.0351
 
              Baa    -0.0327    -4.391    -1.567    -1.465 -0.3753  0.0002  0.9269
     2 C(13)  Bbb    -0.0293    -3.931    -1.403    -1.311 -0.2644  0.9584 -0.1072
              Bcc     0.0620     8.322     2.970     2.776  0.8884  0.2853  0.3596
 
              Baa    -0.0349    -4.681    -1.670    -1.562  0.3376  0.8039 -0.4896
     3 C(13)  Bbb    -0.0283    -3.803    -1.357    -1.269  0.2031  0.4457  0.8718
              Bcc     0.0632     8.485     3.028     2.830  0.9191 -0.3938 -0.0128
 
              Baa    -0.0046    -0.619    -0.221    -0.207  0.9374 -0.2144  0.2744
     4 C(13)  Bbb    -0.0039    -0.521    -0.186    -0.174 -0.0849  0.6234  0.7772
              Bcc     0.0085     1.140     0.407     0.380  0.3377  0.7519 -0.5662
 
              Baa    -0.0341    -4.581    -1.635    -1.528  0.0090 -0.4291  0.9032
     5 C(13)  Bbb    -0.0324    -4.350    -1.552    -1.451  0.9595  0.2581  0.1131
              Bcc     0.0666     8.931     3.187     2.979 -0.2817  0.8656  0.4141
 
              Baa    -2.0801   -85.280   -30.430   -28.446  0.1789  0.4019  0.8980
     6 S(33)  Bbb    -1.9664   -80.622   -28.768   -26.892  0.3527  0.8259 -0.4399
              Bcc     4.0465   165.902    59.198    55.339  0.9185 -0.3954 -0.0060
 
              Baa    -0.0031    -1.672    -0.597    -0.558 -0.5016  0.7879 -0.3573
     7 H(1)   Bbb    -0.0019    -1.032    -0.368    -0.344  0.2108  0.5119  0.8328
              Bcc     0.0051     2.704     0.965     0.902  0.8390  0.3424 -0.4228
 
              Baa    -0.0031    -1.676    -0.598    -0.559 -0.1881 -0.3420  0.9207
     8 H(1)   Bbb    -0.0019    -1.010    -0.360    -0.337 -0.2982  0.9131  0.2783
              Bcc     0.0050     2.686     0.958     0.896  0.9358  0.2222  0.2737
 
              Baa    -0.0093    -4.976    -1.776    -1.660  0.0334 -0.2584  0.9655
     9 H(1)   Bbb    -0.0042    -2.214    -0.790    -0.739 -0.1416  0.9550  0.2605
              Bcc     0.0135     7.190     2.566     2.398  0.9894  0.1454  0.0046
 
              Baa    -0.0066    -3.498    -1.248    -1.167  0.7481 -0.5988 -0.2859
    10 H(1)   Bbb    -0.0030    -1.623    -0.579    -0.541  0.3833  0.7418 -0.5503
              Bcc     0.0096     5.120     1.827     1.708  0.5416  0.3021  0.7845
 
              Baa    -0.0057    -3.048    -1.088    -1.017 -0.2250 -0.0856  0.9706
    11 H(1)   Bbb    -0.0022    -1.148    -0.410    -0.383  0.8761 -0.4537  0.1631
              Bcc     0.0079     4.196     1.497     1.400  0.4264  0.8870  0.1771
 
              Baa    -0.0028    -1.472    -0.525    -0.491  0.3815  0.3974  0.8346
    12 H(1)   Bbb    -0.0024    -1.296    -0.463    -0.432  0.8709 -0.4572 -0.1803
              Bcc     0.0052     2.769     0.988     0.923  0.3100  0.7956 -0.5205
 
              Baa    -0.0050    -2.654    -0.947    -0.885 -0.0728  0.8206  0.5668
    13 H(1)   Bbb    -0.0046    -2.444    -0.872    -0.815  0.9056 -0.1837  0.3823
              Bcc     0.0096     5.097     1.819     1.700 -0.4179 -0.5411  0.7298
 
              Baa    -0.0049    -2.624    -0.936    -0.875  0.9959 -0.0652 -0.0626
    14 H(1)   Bbb    -0.0046    -2.448    -0.873    -0.817  0.0903  0.6824  0.7254
              Bcc     0.0095     5.072     1.810     1.692  0.0046  0.7280 -0.6855
 
              Baa    -0.0057    -3.033    -1.082    -1.012  0.4196 -0.1579  0.8939
    15 H(1)   Bbb    -0.0033    -1.774    -0.633    -0.592  0.8718 -0.2040 -0.4453
              Bcc     0.0090     4.806     1.715     1.603  0.2527  0.9662  0.0521
 
              Baa    -0.0093    -4.950    -1.766    -1.651 -0.2401 -0.2490  0.9383
    16 H(1)   Bbb    -0.0023    -1.213    -0.433    -0.405  0.7890  0.5130  0.3381
              Bcc     0.0116     6.163     2.199     2.056 -0.5655  0.8215  0.0733
 
              Baa    -0.0071    -3.792    -1.353    -1.265  0.9638 -0.1101  0.2430
    17 H(1)   Bbb    -0.0034    -1.818    -0.649    -0.606  0.2232  0.8317 -0.5084
              Bcc     0.0105     5.610     2.002     1.871 -0.1461  0.5442  0.8261
 
              Baa    -0.0388   -20.699    -7.386    -6.905  0.3881  0.9086  0.1542
    18 H(1)   Bbb    -0.0049    -2.627    -0.937    -0.876  0.9202 -0.3914 -0.0100
              Bcc     0.0437    23.326     8.323     7.781 -0.0513 -0.1458  0.9880
 

 ---------------------------------------------------------------------------------

   1 Symmetry operations used in ECPInt.
 ECPInt:  NShTT=    1953 NPrTT=    8125 LenC2=    1948 LenP2D=    6583.
 LDataN:  DoStor=T MaxTD1= 5 Len=  102
 Calling FoFJK, ICntrl=      2127 FMM=F ISym2X=0 I1Cent= 0 IOpClX= 1 NMat=1 NMatS=1 NMatT=0.

 GradGradGradGradGradGradGradGradGradGradGradGradGradGradGradGradGradGrad
 FormGI is forming the generalized inverse of G from B-inverse, IUseBI=4.
 Internal  Forces:  Max     0.008525984 RMS     0.002785045
 Step number   1 out of a maximum of   97
 All quantities printed in internal units (Hartrees-Bohrs-Radians)
 Mixed Optimization -- RFO/linear search
 Second derivative matrix not updated -- first step.
 ITU=  0
     Eigenvalues ---    0.00230   0.00230   0.00330   0.00349   0.00432
     Eigenvalues ---    0.03133   0.04475   0.04718   0.05406   0.05487
     Eigenvalues ---    0.05490   0.05601   0.05639   0.05641   0.05665
     Eigenvalues ---    0.06408   0.09004   0.12678   0.15792   0.16000
     Eigenvalues ---    0.16000   0.16000   0.16000   0.16000   0.16000
     Eigenvalues ---    0.16000   0.16000   0.16000   0.16000   0.16440
     Eigenvalues ---    0.21969   0.22366   0.25287   0.28342   0.29151
     Eigenvalues ---    0.29282   0.29867   0.32858   0.33026   0.33029
     Eigenvalues ---    0.33129   0.33207   0.33303   0.33314   0.33327
     Eigenvalues ---    0.33354   0.33375   0.33397
 Linear search not attempted -- first point.
 Iteration  1 RMS(Cart)=  0.04471205 RMS(Int)=  0.00108803
 Iteration  2 RMS(Cart)=  0.00162847 RMS(Int)=  0.00061804
 Iteration  3 RMS(Cart)=  0.00000080 RMS(Int)=  0.00061804
 Variable       Old X    -DE/DX   Delta X   Delta X   Delta X     New X
                                 (Linear)    (Quad)   (Total)
    R1        2.88230   0.00227   0.00000   0.00744   0.00744   2.88974
    R2        2.08504  -0.00101   0.00000  -0.00297  -0.00297   2.08207
    R3        2.08481  -0.00166   0.00000  -0.00487  -0.00487   2.07994
    R4        2.08434   0.00255   0.00000   0.00750   0.00750   2.09184
    R5        2.91397   0.00386   0.00000   0.01331   0.01331   2.92728
    R6        2.09005   0.00031   0.00000   0.00092   0.00092   2.09097
    R7        2.09302  -0.00250   0.00000  -0.00746  -0.00746   2.08555
    R8        2.89690   0.00316   0.00000   0.01061   0.01061   2.90751
    R9        2.89417   0.00650   0.00000   0.02171   0.02171   2.91589
   R10        3.50119  -0.00784   0.00000  -0.03404  -0.03404   3.46715
   R11        2.08826  -0.00214   0.00000  -0.00634  -0.00634   2.08192
   R12        2.08397  -0.00011   0.00000  -0.00031  -0.00031   2.08366
   R13        2.08523  -0.00003   0.00000  -0.00008  -0.00008   2.08516
   R14        2.09000  -0.00263   0.00000  -0.00782  -0.00782   2.08218
   R15        2.08361   0.00035   0.00000   0.00102   0.00102   2.08463
   R16        2.08690   0.00009   0.00000   0.00025   0.00025   2.08716
   R17        2.55985   0.00545   0.00000   0.02100   0.02100   2.58085
    A1        1.95196   0.00089   0.00000   0.00771   0.00757   1.95953
    A2        1.92460  -0.00167   0.00000  -0.01378  -0.01370   1.91090
    A3        1.93572   0.00371   0.00000   0.02369   0.02361   1.95933
    A4        1.87377   0.00010   0.00000  -0.00206  -0.00204   1.87173
    A5        1.88658  -0.00161   0.00000  -0.00266  -0.00292   1.88366
    A6        1.88887  -0.00162   0.00000  -0.01425  -0.01414   1.87473
    A7        2.03644  -0.00114   0.00000  -0.00493  -0.00512   2.03132
    A8        1.90819  -0.00015   0.00000   0.01382   0.01355   1.92174
    A9        1.90625   0.00388   0.00000   0.02071   0.02018   1.92644
   A10        1.88564   0.00216   0.00000   0.02236   0.02236   1.90800
   A11        1.87089  -0.00435   0.00000  -0.04966  -0.04952   1.82138
   A12        1.84708  -0.00042   0.00000  -0.00331  -0.00327   1.84382
   A13        1.94896   0.00144   0.00000   0.03970   0.03795   1.98691
   A14        1.91001   0.00265   0.00000   0.02519   0.02153   1.93154
   A15        1.93753  -0.00410   0.00000  -0.06123  -0.06122   1.87631
   A16        1.91717   0.00144   0.00000   0.04329   0.04165   1.95883
   A17        1.83987   0.00189   0.00000   0.00542   0.00704   1.84691
   A18        1.90912  -0.00348   0.00000  -0.05465  -0.05474   1.85438
   A19        1.91325  -0.00366   0.00000  -0.02925  -0.02915   1.88409
   A20        1.95536   0.00229   0.00000   0.01728   0.01703   1.97239
   A21        1.93601   0.00237   0.00000   0.01813   0.01788   1.95389
   A22        1.88563  -0.00008   0.00000  -0.00757  -0.00748   1.87815
   A23        1.88692  -0.00015   0.00000  -0.00764  -0.00753   1.87938
   A24        1.88466  -0.00087   0.00000   0.00812   0.00761   1.89227
   A25        1.92288  -0.00853   0.00000  -0.06323  -0.06297   1.85991
   A26        1.93874   0.00428   0.00000   0.03053   0.02980   1.96854
   A27        1.94101   0.00350   0.00000   0.02831   0.02762   1.96863
   A28        1.89262   0.00055   0.00000  -0.01052  -0.01031   1.88230
   A29        1.87996   0.00152   0.00000  -0.00004   0.00024   1.88020
   A30        1.88681  -0.00133   0.00000   0.01455   0.01315   1.89996
   A31        1.68394   0.00687   0.00000   0.04125   0.04125   1.72519
    D1       -1.14645   0.00143   0.00000   0.03501   0.03505  -1.11140
    D2        2.99129  -0.00049   0.00000  -0.00279  -0.00280   2.98849
    D3        0.97772  -0.00205   0.00000  -0.01793  -0.01817   0.95954
    D4        3.05308   0.00185   0.00000   0.04180   0.04188   3.09497
    D5        0.90763  -0.00008   0.00000   0.00400   0.00403   0.91167
    D6       -1.10594  -0.00164   0.00000  -0.01115  -0.01134  -1.11728
    D7        0.96100   0.00256   0.00000   0.05332   0.05352   1.01452
    D8       -1.18445   0.00063   0.00000   0.01551   0.01567  -1.16878
    D9        3.08516  -0.00092   0.00000   0.00037   0.00029   3.08546
   D10        0.95925  -0.00099   0.00000  -0.01869  -0.01894   0.94031
   D11        3.08578   0.00360   0.00000   0.07958   0.07993  -3.11748
   D12       -1.08844  -0.00162   0.00000  -0.01125  -0.01093  -1.09937
   D13        3.11634  -0.00025   0.00000   0.01450   0.01423   3.13057
   D14       -1.04033   0.00434   0.00000   0.11278   0.11310  -0.92723
   D15        1.06864  -0.00088   0.00000   0.02195   0.02224   1.09088
   D16       -1.18335  -0.00184   0.00000  -0.00297  -0.00361  -1.18696
   D17        0.94317   0.00275   0.00000   0.09531   0.09526   1.03843
   D18        3.05214  -0.00247   0.00000   0.00448   0.00440   3.05654
   D19        0.97495   0.00273   0.00000   0.04347   0.04379   1.01873
   D20       -1.11821   0.00381   0.00000   0.06152   0.06197  -1.05624
   D21        3.05744   0.00169   0.00000   0.02663   0.02678   3.08422
   D22       -1.14744  -0.00258   0.00000  -0.04476  -0.04504  -1.19248
   D23        3.04259  -0.00149   0.00000  -0.02672  -0.02686   3.01573
   D24        0.93506  -0.00362   0.00000  -0.06161  -0.06205   0.87301
   D25        3.08068  -0.00025   0.00000  -0.00523  -0.00525   3.07543
   D26        0.98752   0.00083   0.00000   0.01281   0.01294   1.00046
   D27       -1.12001  -0.00129   0.00000  -0.02208  -0.02225  -1.14226
   D28       -1.08199  -0.00366   0.00000  -0.07269  -0.07295  -1.15494
   D29        3.10360  -0.00150   0.00000  -0.03762  -0.03750   3.06610
   D30        1.00123  -0.00508   0.00000  -0.09585  -0.09656   0.90467
   D31        1.06352   0.00082   0.00000   0.02177   0.02224   1.08577
   D32       -1.03407   0.00298   0.00000   0.05683   0.05769  -0.97637
   D33       -3.13644  -0.00060   0.00000  -0.00140  -0.00136  -3.13780
   D34        3.07505   0.00193   0.00000   0.02161   0.02145   3.09650
   D35        0.97746   0.00409   0.00000   0.05668   0.05690   1.03437
   D36       -1.12491   0.00051   0.00000  -0.00155  -0.00215  -1.12706
   D37       -1.08281   0.00118   0.00000   0.06979   0.06848  -1.01433
   D38        3.08717   0.00056   0.00000   0.05249   0.05242   3.13960
   D39        1.02669  -0.00042   0.00000   0.02611   0.02750   1.05418
         Item               Value     Threshold  Converged?
 Maximum Force            0.008526     0.000015     NO 
 RMS     Force            0.002785     0.000010     NO 
 Maximum Displacement     0.196670     0.000060     NO 
 RMS     Displacement     0.044722     0.000040     NO 
 GradGradGradGradGradGradGradGradGradGradGradGradGradGradGradGradGradGrad

                    Distance matrix (angstroms):
                    1          2          3          4          5
     1  C    0.000000
     2  C    1.529184   0.000000
     3  C    2.615996   1.549052   0.000000
     4  C    3.116041   2.587193   1.538587   0.000000
     5  C    3.950468   2.543192   1.543021   2.558262   0.000000
     6  S    3.239181   2.734140   1.834736   2.696782   2.707653
     7  H    1.101785   2.197612   2.941903   2.866428   4.347641
     8  H    1.100655   2.161655   3.543995   4.136733   4.704062
     9  H    1.106956   2.201427   2.903001   3.446508   4.310811
    10  H    2.173965   1.106496   2.181296   3.527912   2.723219
    11  H    2.175234   1.103628   2.113147   2.823629   2.695333
    12  H    3.384299   2.796384   2.150775   1.101705   2.844982
    13  H    2.841467   2.891355   2.215690   1.102623   3.530755
    14  H    4.158455   3.548541   2.203171   1.103417   2.763071
    15  H    4.217341   2.785345   2.136448   2.773338   1.101843
    16  H    4.811740   3.522822   2.217311   2.820532   1.103138
    17  H    4.224658   2.766274   2.218399   3.533208   1.104475
    18  H    3.558200   2.863759   2.449931   3.752336   2.858980
                    6          7          8          9         10
     6  S    0.000000
     7  H    3.741242   0.000000
     8  H    4.179978   1.773214   0.000000
     9  H    2.838224   1.786071   1.779340   0.000000
    10  H    2.924195   3.103052   2.453414   2.592305   0.000000
    11  H    3.683944   2.516538   2.531310   3.110980   1.760931
    12  H    3.682797   2.973257   4.247781   4.000684   3.799710
    13  H    2.882924   2.356209   3.890559   3.005075   3.889740
    14  H    2.944574   3.922306   5.204091   4.347291   4.367809
    15  H    3.681605   4.472181   4.862889   4.813824   3.090650
    16  H    2.911104   5.114102   5.661958   5.038643   3.739378
    17  H    2.961604   4.849659   4.814193   4.517738   2.482442
    18  H    1.365729   4.361177   4.241349   3.173206   2.510481
                   11         12         13         14         15
    11  H    0.000000
    12  H    2.589032   0.000000
    13  H    3.280077   1.778920   0.000000
    14  H    3.792952   1.780362   1.789457   0.000000
    15  H    2.476885   2.611988   3.810681   3.056350   0.000000
    16  H    3.728949   3.228713   3.818062   2.572662   1.782148
    17  H    3.001512   3.844724   4.402036   3.803177   1.781861
    18  H    3.825566   4.576520   4.058757   4.090499   3.868098
                   16         17         18
    16  H    0.000000
    17  H    1.795681   0.000000
    18  H    3.235462   2.572682   0.000000
 Framework group  C1[X(C5H12S)]
 Deg. of freedom    48
                         Standard orientation:                         
 ---------------------------------------------------------------------
 Center     Atomic      Atomic             Coordinates (Angstroms)
 Number     Number       Type             X           Y           Z
 ---------------------------------------------------------------------
      1          6           0       -2.258842    0.216595   -0.036094
      2          6           0       -1.077827   -0.451083   -0.741653
      3          6           0        0.283069   -0.400702   -0.003421
      4          6           0        0.230771   -0.944123    1.435054
      5          6           0        1.384314   -1.079685   -0.844347
      6         16           0        0.765126    1.363297    0.145516
      7          1           0       -2.508175   -0.275728    0.917520
      8          1           0       -3.151338    0.156516   -0.677407
      9          1           0       -2.071964    1.287622    0.172064
     10          1           0       -0.957768   -0.034257   -1.759580
     11          1           0       -1.273179   -1.528145   -0.882258
     12          1           0       -0.123087   -1.986546    1.391558
     13          1           0       -0.463088   -0.383058    2.082777
     14          1           0        1.226236   -0.947723    1.911041
     15          1           0        1.124544   -2.149153   -0.897428
     16          1           0        2.384198   -0.996974   -0.385759
     17          1           0        1.432573   -0.693619   -1.878024
     18          1           0        0.770120    1.692296   -1.179985
 ---------------------------------------------------------------------
 Rotational constants (GHZ):           3.0094249           2.3477789           1.9432275
   112 basis functions,   210 primitive gaussians,   118 cartesian basis functions
    29 alpha electrons       28 beta electrons
       nuclear repulsion energy       321.7289213670 Hartrees.
 NAtoms=   18 NActive=   18 NUniq=   18 SFac= 1.00D+00 NAtFMM=   60 NAOKFM=F Big=F
 Nuclear repulsion after empirical dispersion term =      321.7176216817 Hartrees.
   1 Symmetry operations used in ECPInt.
 ECPInt:  NShTT=    1953 NPrTT=    8125 LenC2=    1948 LenP2D=    6576.
 LDataN:  DoStor=T MaxTD1= 4 Len=   56
 Initial guess from the checkpoint file:  "33.chk"
 B after Tr=     0.000000    0.000000    0.000000
         Rot=    0.998322   -0.030971    0.003536   -0.048800 Ang=  -6.64 deg.
 Initial guess <Sx>= 0.0000 <Sy>= 0.0000 <Sz>= 0.5000 <S**2>= 0.7538 S= 0.5019
 ExpMin= 1.22D-01 ExpMax= 9.18D+03 ExpMxC= 1.38D+03 IAcc=3 IRadAn=         5 AccDes= 0.00D+00
 Harris functional with IExCor= 4639 and IRadAn=       5 diagonalized for initial guess.
 HarFok:  IExCor= 4639 AccDes= 0.00D+00 IRadAn=         5 IDoV= 1 UseB2=F ITyADJ=14
 ICtDFT=  3500011 ScaDFX=  1.000000  1.000000  1.000000  1.000000
 FoFCou: FMM=F IPFlag=           0 FMFlag=      100000 FMFlg1=           0
         NFxFlg=           0 DoJE=T BraDBF=F KetDBF=T FulRan=T
         wScrn=  0.000000 ICntrl=       500 IOpCl=  0 I1Cent=   200000004 NGrid=           0
         NMat0=    1 NMatS0=      1 NMatT0=    0 NMatD0=    1 NMtDS0=    0 NMtDT0=    0
 Petite list used in FoFCou.
     Accept linear search using points  3 and  4.
     Accept linear search using points  2 and  3.
     Accept linear search using points  1 and  2.
     Accept linear search using points  1 and  2.
     Minimum is close to point  2 DX= -6.04D-04 DF= -5.02D-11 DXR=  6.04D-04 DFR=  3.66D-07 which will be used.
     Accept linear search using points  1 and  2.
     Minimum is close to point  2 DX= -7.48D-06 DF=  0.00D+00 DXR=  7.48D-06 DFR=  0.00D+00 which will be used.
 SCF Done:  E(UwB97XD) =  -595.279626904     a.u. after    7 cycles
            Convg  =    0.1057D-06                    39 Fock formations.
              S**2 =  0.7538                  -V/T =  2.0055
 <Sx>= 0.0000 <Sy>= 0.0000 <Sz>= 0.5000 <S**2>= 0.7538 S= 0.5019
 <L.S>=  0.00000000000    
 Annihilation of the first spin contaminant:
 S**2 before annihilation     0.7538,   after     0.7500
   1 Symmetry operations used in ECPInt.
 ECPInt:  NShTT=    1953 NPrTT=    8125 LenC2=    1948 LenP2D=    6576.
 LDataN:  DoStor=T MaxTD1= 5 Len=  102
 Calling FoFJK, ICntrl=      2127 FMM=F ISym2X=0 I1Cent= 0 IOpClX= 1 NMat=1 NMatS=1 NMatT=0.

 GradGradGradGradGradGradGradGradGradGradGradGradGradGradGradGradGradGrad
 Using GEDIIS/GDIIS optimizer.
 FormGI is forming the generalized inverse of G from B-inverse, IUseBI=4.
 Internal  Forces:  Max     0.004534080 RMS     0.000745187
 Step number   2 out of a maximum of   97
 All quantities printed in internal units (Hartrees-Bohrs-Radians)
 Mixed Optimization -- En-DIIS/RFO-DIIS
 Trust test= 8.44D-01 RLast= 3.29D-01 DXMaxT set to 5.05D-01
 ITU=  1  0
 Use linear search instead of GDIIS.
     Eigenvalues ---    0.00229   0.00231   0.00330   0.00349   0.00431
     Eigenvalues ---    0.03138   0.04373   0.04716   0.05080   0.05204
     Eigenvalues ---    0.05320   0.05676   0.05777   0.05920   0.06097
     Eigenvalues ---    0.06729   0.08955   0.12839   0.15638   0.16000
     Eigenvalues ---    0.16000   0.16000   0.16000   0.16000   0.16000
     Eigenvalues ---    0.16000   0.16000   0.16265   0.16647   0.16751
     Eigenvalues ---    0.21914   0.22679   0.25262   0.28222   0.29068
     Eigenvalues ---    0.29697   0.30368   0.32891   0.33022   0.33097
     Eigenvalues ---    0.33179   0.33276   0.33295   0.33315   0.33339
     Eigenvalues ---    0.33361   0.33391   0.33736
 Quartic linear search produced a step of -0.04169.
 Iteration  1 RMS(Cart)=  0.05388465 RMS(Int)=  0.00262959
 Iteration  2 RMS(Cart)=  0.00257907 RMS(Int)=  0.00002732
 Iteration  3 RMS(Cart)=  0.00000375 RMS(Int)=  0.00002720
 Iteration  4 RMS(Cart)=  0.00000000 RMS(Int)=  0.00002720
 Variable       Old X    -DE/DX   Delta X   Delta X   Delta X     New X
                                 (Linear)    (Quad)   (Total)
    R1        2.88974  -0.00149  -0.00031  -0.00422  -0.00453   2.88521
    R2        2.08207  -0.00010   0.00012  -0.00049  -0.00037   2.08170
    R3        2.07994   0.00030   0.00020   0.00051   0.00071   2.08065
    R4        2.09184   0.00003  -0.00031   0.00062   0.00031   2.09215
    R5        2.92728   0.00062  -0.00055   0.00304   0.00249   2.92977
    R6        2.09097  -0.00087  -0.00004  -0.00245  -0.00249   2.08848
    R7        2.08555   0.00110   0.00031   0.00266   0.00297   2.08852
    R8        2.90751  -0.00453  -0.00044  -0.01409  -0.01454   2.89297
    R9        2.91589   0.00013  -0.00091   0.00196   0.00105   2.91694
   R10        3.46715   0.00178   0.00142   0.00520   0.00662   3.47377
   R11        2.08192   0.00090   0.00026   0.00214   0.00241   2.08433
   R12        2.08366  -0.00056   0.00001  -0.00163  -0.00161   2.08204
   R13        2.08516  -0.00045   0.00000  -0.00128  -0.00128   2.08388
   R14        2.08218   0.00171   0.00033   0.00438   0.00470   2.08688
   R15        2.08463  -0.00045  -0.00004  -0.00121  -0.00125   2.08338
   R16        2.08716  -0.00099  -0.00001  -0.00283  -0.00285   2.08431
   R17        2.58085  -0.00039  -0.00088  -0.00000  -0.00088   2.57997
    A1        1.95953  -0.00015  -0.00032   0.00068   0.00036   1.95990
    A2        1.91090   0.00013   0.00057  -0.00086  -0.00029   1.91061
    A3        1.95933   0.00018  -0.00098   0.00237   0.00138   1.96071
    A4        1.87173   0.00010   0.00008   0.00123   0.00131   1.87304
    A5        1.88366   0.00011   0.00012   0.00160   0.00173   1.88539
    A6        1.87473  -0.00039   0.00059  -0.00531  -0.00473   1.87000
    A7        2.03132  -0.00061   0.00021  -0.00321  -0.00299   2.02833
    A8        1.92174   0.00087  -0.00056   0.00729   0.00673   1.92847
    A9        1.92644  -0.00043  -0.00084  -0.00275  -0.00356   1.92287
   A10        1.90800  -0.00044  -0.00093  -0.00221  -0.00313   1.90486
   A11        1.82138   0.00074   0.00206   0.00064   0.00269   1.82407
   A12        1.84382  -0.00011   0.00014   0.00007   0.00021   1.84402
   A13        1.98691  -0.00033  -0.00158   0.00072  -0.00080   1.98611
   A14        1.93154   0.00052  -0.00090   0.00382   0.00307   1.93461
   A15        1.87631   0.00045   0.00255   0.00362   0.00618   1.88248
   A16        1.95883  -0.00050  -0.00174  -0.00408  -0.00575   1.95307
   A17        1.84691   0.00028  -0.00029   0.00248   0.00210   1.84900
   A18        1.85438  -0.00040   0.00228  -0.00686  -0.00458   1.84979
   A19        1.88409  -0.00012   0.00122  -0.00367  -0.00246   1.88163
   A20        1.97239  -0.00096  -0.00071  -0.00402  -0.00472   1.96767
   A21        1.95389  -0.00075  -0.00075  -0.00277  -0.00350   1.95039
   A22        1.87815   0.00046   0.00031   0.00144   0.00174   1.87989
   A23        1.87938   0.00033   0.00031   0.00053   0.00083   1.88022
   A24        1.89227   0.00113  -0.00032   0.00870   0.00840   1.90067
   A25        1.85991  -0.00003   0.00263  -0.00715  -0.00455   1.85536
   A26        1.96854  -0.00047  -0.00124   0.00028  -0.00094   1.96760
   A27        1.96863  -0.00099  -0.00115  -0.00229  -0.00343   1.96521
   A28        1.88230  -0.00009   0.00043  -0.00436  -0.00396   1.87835
   A29        1.88020   0.00033  -0.00001   0.00034   0.00030   1.88050
   A30        1.89996   0.00128  -0.00055   0.01247   0.01198   1.91194
   A31        1.72519  -0.00109  -0.00172  -0.00354  -0.00526   1.71993
    D1       -1.11140  -0.00008  -0.00146   0.02524   0.02377  -1.08763
    D2        2.98849   0.00026   0.00012   0.02453   0.02464   3.01313
    D3        0.95954   0.00013   0.00076   0.02173   0.02250   0.98205
    D4        3.09497  -0.00020  -0.00175   0.02384   0.02209   3.11705
    D5        0.91167   0.00014  -0.00017   0.02313   0.02296   0.93463
    D6       -1.11728   0.00001   0.00047   0.02034   0.02083  -1.09646
    D7        1.01452   0.00008  -0.00223   0.02957   0.02732   1.04184
    D8       -1.16878   0.00042  -0.00065   0.02886   0.02820  -1.14058
    D9        3.08546   0.00029  -0.00001   0.02607   0.02606   3.11152
   D10        0.94031   0.00024   0.00079   0.05933   0.06012   1.00043
   D11       -3.11748  -0.00026  -0.00333   0.05757   0.05422  -3.06326
   D12       -1.09937  -0.00020   0.00046   0.05348   0.05392  -1.04545
   D13        3.13057   0.00057  -0.00059   0.06485   0.06427  -3.08835
   D14       -0.92723   0.00007  -0.00472   0.06310   0.05837  -0.86886
   D15        1.09088   0.00012  -0.00093   0.05900   0.05807   1.14895
   D16       -1.18696   0.00062   0.00015   0.06430   0.06448  -1.12248
   D17        1.03843   0.00011  -0.00397   0.06255   0.05858   1.09701
   D18        3.05654   0.00017  -0.00018   0.05846   0.05828   3.11482
   D19        1.01873  -0.00015  -0.00183   0.00222   0.00039   1.01912
   D20       -1.05624  -0.00006  -0.00258   0.00529   0.00269  -1.05355
   D21        3.08422  -0.00026  -0.00112  -0.00106  -0.00218   3.08204
   D22       -1.19248  -0.00017   0.00188  -0.00015   0.00174  -1.19074
   D23        3.01573  -0.00008   0.00112   0.00293   0.00404   3.01978
   D24        0.87301  -0.00028   0.00259  -0.00343  -0.00083   0.87218
   D25        3.07543   0.00039   0.00022   0.00867   0.00889   3.08432
   D26        1.00046   0.00048  -0.00054   0.01174   0.01119   1.01165
   D27       -1.14226   0.00028   0.00093   0.00538   0.00632  -1.13594
   D28       -1.15494   0.00023   0.00304  -0.00757  -0.00452  -1.15947
   D29        3.06610   0.00062   0.00156   0.00215   0.00370   3.06980
   D30        0.90467   0.00006   0.00403  -0.01298  -0.00892   0.89575
   D31        1.08577  -0.00018  -0.00093  -0.00676  -0.00772   1.07805
   D32       -0.97637   0.00021  -0.00241   0.00296   0.00050  -0.97587
   D33       -3.13780  -0.00036   0.00006  -0.01217  -0.01212   3.13327
   D34        3.09650  -0.00034  -0.00089  -0.00994  -0.01081   3.08569
   D35        1.03437   0.00005  -0.00237  -0.00022  -0.00259   1.03177
   D36       -1.12706  -0.00051   0.00009  -0.01534  -0.01522  -1.14228
   D37       -1.01433   0.00017  -0.00285   0.13651   0.13372  -0.88061
   D38        3.13960   0.00016  -0.00219   0.13238   0.13019  -3.01340
   D39        1.05418   0.00079  -0.00115   0.13922   0.13801   1.19220
         Item               Value     Threshold  Converged?
 Maximum Force            0.004534     0.000015     NO 
 RMS     Force            0.000745     0.000010     NO 
 Maximum Displacement     0.314167     0.000060     NO 
 RMS     Displacement     0.054253     0.000040     NO 
 GradGradGradGradGradGradGradGradGradGradGradGradGradGradGradGradGradGrad

                    Distance matrix (angstroms):
                    1          2          3          4          5
     1  C    0.000000
     2  C    1.526786   0.000000
     3  C    2.612655   1.550367   0.000000
     4  C    3.137852   2.581191   1.530896   0.000000
     5  C    3.948713   2.547428   1.543577   2.547404   0.000000
     6  S    3.210855   2.744215   1.838238   2.696012   2.706395
     7  H    1.101590   2.195597   2.927570   2.877887   4.353950
     8  H    1.101030   2.159618   3.542364   4.144197   4.705130
     9  H    1.107118   2.200413   2.911293   3.510131   4.298814
    10  H    2.175773   1.105178   2.179148   3.517970   2.699537
    11  H    2.171710   1.105198   2.117495   2.790262   2.732278
    12  H    3.426012   2.787924   2.143150   1.102979   2.830437
    13  H    2.858319   2.878818   2.204873   1.101770   3.519445
    14  H    4.172193   3.541417   2.193344   1.102740   2.745920
    15  H    4.231901   2.789276   2.135245   2.756021   1.104331
    16  H    4.806391   3.525512   2.216628   2.808530   1.102475
    17  H    4.203799   2.763687   2.215310   3.520078   1.102969
    18  H    3.375744   2.792208   2.447217   3.740454   2.936971
                    6          7          8          9         10
     6  S    0.000000
     7  H    3.672995   0.000000
     8  H    4.173010   1.774216   0.000000
     9  H    2.811849   1.787169   1.776680   0.000000
    10  H    2.964521   3.104815   2.464533   2.585753   0.000000
    11  H    3.696732   2.519935   2.518964   3.109908   1.761270
    12  H    3.683037   3.035912   4.264891   4.077390   3.771878
    13  H    2.882846   2.337328   3.891602   3.091115   3.889204
    14  H    2.936459   3.924063   5.207929   4.399894   4.354920
    15  H    3.681759   4.508498   4.872853   4.819849   3.053880
    16  H    2.905530   5.109895   5.660296   5.028185   3.722575
    17  H    2.963649   4.839486   4.802109   4.471589   2.451006
    18  H    1.365264   4.168995   4.077631   2.933331   2.476355
                   11         12         13         14         15
    11  H    0.000000
    12  H    2.544618   0.000000
    13  H    3.225655   1.780390   0.000000
    14  H    3.767280   1.781386   1.793615   0.000000
    15  H    2.513509   2.586650   3.792532   3.033184   0.000000
    16  H    3.757204   3.213917   3.806363   2.552372   1.781048
    17  H    3.045324   3.824942   4.388239   3.786646   1.782849
    18  H    3.798699   4.561878   4.008270   4.112510   3.930136
                   16         17         18
    16  H    0.000000
    17  H    1.801568   0.000000
    18  H    3.350308   2.668323   0.000000
 Framework group  C1[X(C5H12S)]
 Deg. of freedom    48
                         Standard orientation:                         
 ---------------------------------------------------------------------
 Center     Atomic      Atomic             Coordinates (Angstroms)
 Number     Number       Type             X           Y           Z
 ---------------------------------------------------------------------
      1          6           0       -2.252766    0.170161   -0.020787
      2          6           0       -1.075498   -0.510087   -0.715321
      3          6           0        0.297432   -0.397442   -0.003975
      4          6           0        0.298939   -0.944252    1.425933
      5          6           0        1.414368   -1.027986   -0.862751
      6         16           0        0.714226    1.387315    0.137597
      7          1           0       -2.459777   -0.262620    0.970852
      8          1           0       -3.161222    0.043443   -0.629817
      9          1           0       -2.094499    1.258472    0.106662
     10          1           0       -0.976317   -0.146215   -1.754157
     11          1           0       -1.257119   -1.597256   -0.796189
     12          1           0       -0.006651   -2.003162    1.382491
     13          1           0       -0.410426   -0.417439    2.084087
     14          1           0        1.303869   -0.903049    1.878099
     15          1           0        1.201077   -2.110799   -0.902364
     16          1           0        2.415744   -0.901078   -0.419363
     17          1           0        1.418432   -0.648066   -1.898215
     18          1           0        0.504412    1.748358   -1.162238
 ---------------------------------------------------------------------
 Rotational constants (GHZ):           3.0014926           2.3687956           1.9440178
   112 basis functions,   210 primitive gaussians,   118 cartesian basis functions
    29 alpha electrons       28 beta electrons
       nuclear repulsion energy       321.9769808682 Hartrees.
 NAtoms=   18 NActive=   18 NUniq=   18 SFac= 1.00D+00 NAtFMM=   60 NAOKFM=F Big=F
 Nuclear repulsion after empirical dispersion term =      321.9656543975 Hartrees.
   1 Symmetry operations used in ECPInt.
 ECPInt:  NShTT=    1953 NPrTT=    8125 LenC2=    1948 LenP2D=    6580.
 LDataN:  DoStor=T MaxTD1= 4 Len=   56
 Initial guess from the checkpoint file:  "33.chk"
 B after Tr=     0.000000    0.000000   -0.000000
         Rot=    0.999812    0.001503   -0.007796   -0.017694 Ang=   2.22 deg.
 Initial guess <Sx>= 0.0000 <Sy>= 0.0000 <Sz>= 0.5000 <S**2>= 0.7538 S= 0.5019
 ExpMin= 1.22D-01 ExpMax= 9.18D+03 ExpMxC= 1.38D+03 IAcc=3 IRadAn=         5 AccDes= 0.00D+00
 Harris functional with IExCor= 4639 and IRadAn=       5 diagonalized for initial guess.
 HarFok:  IExCor= 4639 AccDes= 0.00D+00 IRadAn=         5 IDoV= 1 UseB2=F ITyADJ=14
 ICtDFT=  3500011 ScaDFX=  1.000000  1.000000  1.000000  1.000000
 FoFCou: FMM=F IPFlag=           0 FMFlag=      100000 FMFlg1=           0
         NFxFlg=           0 DoJE=T BraDBF=F KetDBF=T FulRan=T
         wScrn=  0.000000 ICntrl=       500 IOpCl=  0 I1Cent=   200000004 NGrid=           0
         NMat0=    1 NMatS0=      1 NMatT0=    0 NMatD0=    1 NMtDS0=    0 NMtDT0=    0
 Petite list used in FoFCou.
     Accept linear search using points  2 and  3.
     Minimum is close to point  2 DX=  4.84D-02 DF= -3.74D-07 DXR=  3.59D-02 DFR=  1.29D-03 which will be used.
     Accept linear search using points  1 and  2.
     Minimum is close to point  2 DX= -1.04D-01 DF= -2.00D-06 DXR=  9.48D-02 DFR=  1.18D-02 which will be used.
     Accept linear search using points  1 and  2.
     Accept linear search using points  1 and  2.
     Minimum is close to point  2 DX= -3.88D-03 DF= -4.81D-09 DXR=  3.89D-03 DFR=  1.52D-05 which will be used.
     Minimum is close to point  2 DX=  6.84D-05 DF=  0.00D+00 DXR=  6.84D-05 DFR=  0.00D+00 which will be used.
 SCF Done:  E(UwB97XD) =  -595.279873656     a.u. after    9 cycles
            Convg  =    0.1220D-06                    46 Fock formations.
              S**2 =  0.7538                  -V/T =  2.0055
 <Sx>= 0.0000 <Sy>= 0.0000 <Sz>= 0.5000 <S**2>= 0.7538 S= 0.5019
 <L.S>=  0.00000000000    
 Annihilation of the first spin contaminant:
 S**2 before annihilation     0.7538,   after     0.7500
   1 Symmetry operations used in ECPInt.
 ECPInt:  NShTT=    1953 NPrTT=    8125 LenC2=    1948 LenP2D=    6580.
 LDataN:  DoStor=T MaxTD1= 5 Len=  102
 Calling FoFJK, ICntrl=      2127 FMM=F ISym2X=0 I1Cent= 0 IOpClX= 1 NMat=1 NMatS=1 NMatT=0.

 GradGradGradGradGradGradGradGradGradGradGradGradGradGradGradGradGradGrad
 Using GEDIIS/GDIIS optimizer.
 FormGI is forming the generalized inverse of G from B-inverse, IUseBI=4.
 Internal  Forces:  Max     0.001544804 RMS     0.000397982
 Step number   3 out of a maximum of   97
 All quantities printed in internal units (Hartrees-Bohrs-Radians)
 Mixed Optimization -- En-DIIS/RFO-DIIS
 Swapping is turned off.
 Trust test= 9.46D-01 RLast= 3.04D-01 DXMaxT set to 8.49D-01
 ITU=  1  1  0
     Eigenvalues ---    0.00213   0.00287   0.00339   0.00393   0.00411
     Eigenvalues ---    0.03220   0.04240   0.04460   0.04743   0.05225
     Eigenvalues ---    0.05306   0.05672   0.05817   0.05960   0.06154
     Eigenvalues ---    0.06745   0.09008   0.12655   0.15088   0.15994
     Eigenvalues ---    0.16000   0.16000   0.16000   0.16000   0.16000
     Eigenvalues ---    0.16000   0.16090   0.16325   0.16539   0.16993
     Eigenvalues ---    0.21725   0.22440   0.25299   0.28184   0.28895
     Eigenvalues ---    0.29836   0.31444   0.32889   0.32976   0.33033
     Eigenvalues ---    0.33131   0.33188   0.33296   0.33314   0.33330
     Eigenvalues ---    0.33363   0.33393   0.34069
 En-DIIS/RFO-DIIS/Sim-DIIS IScMMF=       -3 using points:     3    2
 RFO step:  Lambda=-1.80758752D-04.
 DidBck=F Rises=F RFO-DIIS coefs:    1.14954   -0.14954
 Iteration  1 RMS(Cart)=  0.02390768 RMS(Int)=  0.00031664
 Iteration  2 RMS(Cart)=  0.00036571 RMS(Int)=  0.00001541
 Iteration  3 RMS(Cart)=  0.00000005 RMS(Int)=  0.00001541
 Variable       Old X    -DE/DX   Delta X   Delta X   Delta X     New X
                                 (Linear)    (Quad)   (Total)
    R1        2.88521  -0.00035  -0.00068  -0.00215  -0.00283   2.88238
    R2        2.08170   0.00003  -0.00006  -0.00012  -0.00017   2.08153
    R3        2.08065   0.00009   0.00011   0.00030   0.00041   2.08105
    R4        2.09215   0.00049   0.00005   0.00182   0.00187   2.09402
    R5        2.92977  -0.00154   0.00037  -0.00429  -0.00392   2.92585
    R6        2.08848  -0.00004  -0.00037  -0.00077  -0.00114   2.08734
    R7        2.08852  -0.00003   0.00044   0.00044   0.00088   2.08940
    R8        2.89297   0.00026  -0.00217  -0.00268  -0.00485   2.88812
    R9        2.91694   0.00078   0.00016   0.00372   0.00387   2.92081
   R10        3.47377   0.00124   0.00099   0.00610   0.00709   3.48086
   R11        2.08433   0.00005   0.00036   0.00059   0.00095   2.08528
   R12        2.08204  -0.00011  -0.00024  -0.00076  -0.00100   2.08104
   R13        2.08388   0.00005  -0.00019  -0.00019  -0.00038   2.08350
   R14        2.08688   0.00032   0.00070   0.00198   0.00268   2.08956
   R15        2.08338  -0.00007  -0.00019  -0.00052  -0.00070   2.08267
   R16        2.08431  -0.00022  -0.00043  -0.00143  -0.00185   2.08246
   R17        2.57997  -0.00018  -0.00013  -0.00021  -0.00034   2.57963
    A1        1.95990   0.00008   0.00005   0.00139   0.00144   1.96134
    A2        1.91061   0.00055  -0.00004   0.00300   0.00296   1.91356
    A3        1.96071  -0.00017   0.00021  -0.00053  -0.00032   1.96040
    A4        1.87304  -0.00018   0.00020   0.00048   0.00067   1.87371
    A5        1.88539   0.00002   0.00026   0.00016   0.00042   1.88581
    A6        1.87000  -0.00032  -0.00071  -0.00479  -0.00550   1.86451
    A7        2.02833  -0.00071  -0.00045  -0.00476  -0.00521   2.02311
    A8        1.92847   0.00046   0.00101   0.00256   0.00355   1.93202
    A9        1.92287  -0.00025  -0.00053  -0.00119  -0.00171   1.92116
   A10        1.90486  -0.00019  -0.00047  -0.00439  -0.00486   1.90000
   A11        1.82407   0.00080   0.00040   0.00682   0.00723   1.83129
   A12        1.84402  -0.00005   0.00003   0.00169   0.00173   1.84575
   A13        1.98611  -0.00030  -0.00012   0.00378   0.00363   1.98974
   A14        1.93461   0.00042   0.00046   0.00350   0.00398   1.93859
   A15        1.88248   0.00059   0.00092   0.00685   0.00776   1.89024
   A16        1.95307  -0.00003  -0.00086  -0.00267  -0.00355   1.94952
   A17        1.84900   0.00041   0.00031   0.00410   0.00432   1.85332
   A18        1.84979  -0.00113  -0.00069  -0.01674  -0.01742   1.83238
   A19        1.88163   0.00012  -0.00037  -0.00129  -0.00166   1.87997
   A20        1.96767   0.00011  -0.00071   0.00025  -0.00046   1.96721
   A21        1.95039   0.00026  -0.00052   0.00137   0.00084   1.95123
   A22        1.87989  -0.00013   0.00026  -0.00077  -0.00051   1.87937
   A23        1.88022  -0.00024   0.00012  -0.00205  -0.00193   1.87829
   A24        1.90067  -0.00015   0.00126   0.00223   0.00348   1.90416
   A25        1.85536  -0.00040  -0.00068  -0.00680  -0.00750   1.84786
   A26        1.96760  -0.00007  -0.00014   0.00060   0.00044   1.96804
   A27        1.96521  -0.00004  -0.00051   0.00041  -0.00011   1.96509
   A28        1.87835   0.00011  -0.00059  -0.00200  -0.00261   1.87573
   A29        1.88050   0.00020   0.00004   0.00090   0.00094   1.88144
   A30        1.91194   0.00021   0.00179   0.00632   0.00810   1.92004
   A31        1.71993   0.00001  -0.00079   0.00007  -0.00072   1.71922
    D1       -1.08763  -0.00014   0.00355   0.01610   0.01965  -1.06798
    D2        3.01313   0.00030   0.00369   0.02374   0.02743   3.04056
    D3        0.98205   0.00024   0.00337   0.02086   0.02423   1.00627
    D4        3.11705  -0.00032   0.00330   0.01262   0.01592   3.13297
    D5        0.93463   0.00011   0.00343   0.02026   0.02370   0.95833
    D6       -1.09646   0.00005   0.00311   0.01738   0.02050  -1.07596
    D7        1.04184  -0.00018   0.00409   0.01696   0.02104   1.06288
    D8       -1.14058   0.00026   0.00422   0.02459   0.02881  -1.11177
    D9        3.11152   0.00020   0.00390   0.02171   0.02561   3.13713
   D10        1.00043   0.00021   0.00899   0.02495   0.03392   1.03436
   D11       -3.06326   0.00028   0.00811   0.02732   0.03542  -3.02784
   D12       -1.04545  -0.00051   0.00806   0.01311   0.02116  -1.02429
   D13       -3.08835   0.00011   0.00961   0.02095   0.03057  -3.05778
   D14       -0.86886   0.00018   0.00873   0.02333   0.03207  -0.83679
   D15        1.14895  -0.00061   0.00868   0.00911   0.01781   1.16676
   D16       -1.12248   0.00036   0.00964   0.02431   0.03395  -1.08853
   D17        1.09701   0.00043   0.00876   0.02669   0.03545   1.13246
   D18        3.11482  -0.00036   0.00872   0.01247   0.02119   3.13601
   D19        1.01912  -0.00009   0.00006   0.01798   0.01803   1.03715
   D20       -1.05355  -0.00007   0.00040   0.01962   0.02002  -1.03353
   D21        3.08204  -0.00016  -0.00033   0.01546   0.01512   3.09717
   D22       -1.19074  -0.00039   0.00026   0.01231   0.01257  -1.17818
   D23        3.01978  -0.00038   0.00060   0.01396   0.01455   3.03433
   D24        0.87218  -0.00046  -0.00012   0.00979   0.00966   0.88184
   D25        3.08432   0.00074   0.00133   0.03120   0.03254   3.11686
   D26        1.01165   0.00075   0.00167   0.03284   0.03453   1.04618
   D27       -1.13594   0.00067   0.00095   0.02868   0.02964  -1.10630
   D28       -1.15947   0.00013  -0.00068   0.00850   0.00782  -1.15165
   D29        3.06980   0.00028   0.00055   0.01487   0.01542   3.08522
   D30        0.89575   0.00009  -0.00133   0.00557   0.00424   0.89999
   D31        1.07805   0.00004  -0.00115   0.01427   0.01309   1.09114
   D32       -0.97587   0.00020   0.00008   0.02064   0.02068  -0.95519
   D33        3.13327   0.00001  -0.00181   0.01134   0.00951  -3.14041
   D34        3.08569  -0.00014  -0.00162   0.00813   0.00654   3.09223
   D35        1.03177   0.00001  -0.00039   0.01450   0.01414   1.04591
   D36       -1.14228  -0.00018  -0.00228   0.00521   0.00296  -1.13932
   D37       -0.88061  -0.00018   0.02000  -0.03470  -0.01467  -0.89528
   D38       -3.01340  -0.00038   0.01947  -0.04516  -0.02571  -3.03911
   D39        1.19220   0.00001   0.02064  -0.03596  -0.01533   1.17687
         Item               Value     Threshold  Converged?
 Maximum Force            0.001545     0.000015     NO 
 RMS     Force            0.000398     0.000010     NO 
 Maximum Displacement     0.092992     0.000060     NO 
 RMS     Displacement     0.023907     0.000040     NO 
 GradGradGradGradGradGradGradGradGradGradGradGradGradGradGradGradGradGrad

                    Distance matrix (angstroms):
                    1          2          3          4          5
     1  C    0.000000
     2  C    1.525291   0.000000
     3  C    2.605380   1.548293   0.000000
     4  C    3.149619   2.580351   1.528328   0.000000
     5  C    3.945951   2.550899   1.545626   2.543924   0.000000
     6  S    3.201517   2.753434   1.841991   2.701546   2.693402
     7  H    1.101500   2.195225   2.912204   2.881930   4.354809
     8  H    1.101245   2.160635   3.538274   4.147990   4.708569
     9  H    1.108106   2.199621   2.912195   3.547198   4.287835
    10  H    2.176576   1.104575   2.173266   3.512344   2.685186
    11  H    2.169500   1.105664   2.121683   2.780837   2.760429
    12  H    3.464759   2.795100   2.140039   1.103483   2.818534
    13  H    2.862759   2.869771   2.201866   1.101240   3.517227
    14  H    4.174880   3.540325   2.191521   1.102538   2.745398
    15  H    4.232836   2.784016   2.132279   2.752649   1.105750
    16  H    4.800915   3.527943   2.218479   2.796321   1.102103
    17  H    4.195489   2.770198   2.216301   3.516045   1.101990
    18  H    3.377213   2.811214   2.449500   3.744303   2.911282
                    6          7          8          9         10
     6  S    0.000000
     7  H    3.638037   0.000000
     8  H    4.176072   1.774750   0.000000
     9  H    2.806433   1.788170   1.774036   0.000000
    10  H    2.980461   3.106699   2.477107   2.576683   0.000000
    11  H    3.708347   2.526989   2.511271   3.109184   1.762314
    12  H    3.688490   3.089537   4.291095   4.134879   3.764746
    13  H    2.906429   2.315590   3.882747   3.143529   3.885969
    14  H    2.926316   3.916792   5.206766   4.422559   4.347747
    15  H    3.671584   4.524850   4.874002   4.814409   3.022896
    16  H    2.894992   5.100381   5.661260   5.020425   3.714846
    17  H    2.943897   4.835947   4.806344   4.442249   2.440427
    18  H    1.365083   4.150967   4.099175   2.921133   2.505384
                   11         12         13         14         15
    11  H    0.000000
    12  H    2.540534   0.000000
    13  H    3.193118   1.780036   0.000000
    14  H    3.767136   1.780376   1.795248   0.000000
    15  H    2.533539   2.571726   3.784598   3.041403   0.000000
    16  H    3.777124   3.185923   3.800948   2.541319   1.780189
    17  H    3.084622   3.816229   4.385582   3.782353   1.783814
    18  H    3.823137   4.565488   4.031662   4.099428   3.906444
                   16         17         18
    16  H    0.000000
    17  H    1.805598   0.000000
    18  H    3.328288   2.631309   0.000000
 Framework group  C1[X(C5H12S)]
 Deg. of freedom    48
                         Standard orientation:                         
 ---------------------------------------------------------------------
 Center     Atomic      Atomic             Coordinates (Angstroms)
 Number     Number       Type             X           Y           Z
 ---------------------------------------------------------------------
      1          6           0       -2.249832    0.179266   -0.018248
      2          6           0       -1.083158   -0.517597   -0.710899
      3          6           0        0.290124   -0.400792   -0.005444
      4          6           0        0.310267   -0.967667    1.413722
      5          6           0        1.415698   -1.002517   -0.877207
      6         16           0        0.710896    1.385813    0.149217
      7          1           0       -2.441533   -0.224503    0.988490
      8          1           0       -3.168491    0.038593   -0.609023
      9          1           0       -2.092238    1.272184    0.074449
     10          1           0       -0.980620   -0.164954   -1.752635
     11          1           0       -1.276618   -1.604046   -0.779420
     12          1           0        0.035496   -2.034668    1.353004
     13          1           0       -0.414238   -0.473093    2.079469
     14          1           0        1.314532   -0.906830    1.864657
     15          1           0        1.205593   -2.086500   -0.936529
     16          1           0        2.414228   -0.883203   -0.426284
     17          1           0        1.415451   -0.602664   -1.904095
     18          1           0        0.515509    1.752517   -1.151093
 ---------------------------------------------------------------------
 Rotational constants (GHZ):           3.0049979           2.3710492           1.9438512
   112 basis functions,   210 primitive gaussians,   118 cartesian basis functions
    29 alpha electrons       28 beta electrons
       nuclear repulsion energy       322.0198236641 Hartrees.
 NAtoms=   18 NActive=   18 NUniq=   18 SFac= 1.00D+00 NAtFMM=   60 NAOKFM=F Big=F
 Nuclear repulsion after empirical dispersion term =      322.0085011462 Hartrees.
   1 Symmetry operations used in ECPInt.
 ECPInt:  NShTT=    1953 NPrTT=    8125 LenC2=    1948 LenP2D=    6579.
 LDataN:  DoStor=T MaxTD1= 4 Len=   56
 Initial guess from the checkpoint file:  "33.chk"
 B after Tr=    -0.000000   -0.000000   -0.000000
         Rot=    0.999986   -0.004928   -0.001637   -0.000978 Ang=  -0.61 deg.
 Initial guess <Sx>= 0.0000 <Sy>= 0.0000 <Sz>= 0.5000 <S**2>= 0.7538 S= 0.5019
[...]
 3,0.337195,0.0948129,0.0240232,0.0044289,-0.0018945,0.0447091,0.044868
 2,0.046218,0.0230153,-0.0388528,0.0034853,0.0211148,-0.0323598,0.01053
 17,0.1094607,-0.0211051,-0.0584937,-0.0128996,0.0585998,-0.0635867,-0.
 1126366,0.0171164,-0.1060048,-0.0594547,-0.0115504,0.0289506,-0.006810
 4,0.0678167,-0.0099512,0.0059186,0.068915,0.0086654,0.0587991,0.062384
 ,0.0273022,0.0176735,-0.0628885,0.0278137,-0.0121521,-0.0098806,0.0170
 878,-0.027822,-0.0036715,-0.0097563,0.0013898,0.0924524,0.10494,-0.043
 3433,-0.003203,-0.037923,0.0291897,-0.0049407,-0.0086314,-0.0223667,0.
 0551396,0.0582192,0.0450213,0.0424509,0.0609176,0.0419964,-0.0366395,0
 .0362515,0.0150145,0.0532903,-0.0224376,0.0062008,-0.0493744,-0.016650
 5,0.1077287,-0.0025901,-0.0013751,0.0176686,0.0640795,0.0714266,0.0568
 822,0.0423316,-0.045384,0.0802595,0.0125984,0.0351733,-0.0558442,0.103
 1058,0.0146351,0.0282888,-0.0189085,-0.0241886,0.1046609,-0.0298344,-0
 .0506905,-0.0164,0.0471303,0.0749818,0.031259,-0.0101382,0.0144,0.0715
 196,0.0790299,0.0170874,0.0225085,-0.0104795,0.143306,-0.0140775,-0.04
 52672,-0.0282702,0.1189609,-0.0593588,-0.0188988,-0.0430623,0.1276491\
 Polar=67.0999129,1.1637857,72.5605024,-0.2125068,-0.7389392,61.80785\Q
 uadrupole=0.2755078,1.3018268,-1.5773346,0.8992036,-0.6842219,-1.72099
 48\PG=C01 [X(C5H12S1)]\NImag=0\\0.54436050,0.03475423,0.54181086,0.025
 47079,-0.02199946,0.58491167,-0.14110371,0.05701352,0.03908427,0.46186
 216,0.05212728,-0.13490212,-0.03354459,0.02363843,0.57813449,0.0397867
 9,-0.03199711,-0.11114555,-0.04011308,-0.02611345,0.56589278,-0.025820
 37,-0.00406652,-0.00955208,-0.13376242,-0.01016100,-0.03309322,0.37942
 422,0.01715477,-0.00215724,0.00941814,0.01303425,-0.06072920,0.0167395
 4,-0.02991033,0.26737230,0.01026457,-0.00044942,0.00832866,-0.03115289
 ,0.00538515,-0.09760812,0.00604318,-0.04233954,0.46566717,0.00022694,-
 0.00060612,-0.00077022,0.00272770,0.00964193,-0.02964043,-0.08347795,0
 .00098274,0.00295146,0.60656681,-0.00083899,-0.00015782,0.00051893,0.0
 0237792,-0.00012936,0.00127817,-0.00202315,-0.07512159,0.03560503,-0.0
 0810914,0.57611802,-0.00015687,-0.00040400,0.00111545,-0.00515337,0.00
 455543,-0.01758931,0.00421776,0.02706675,-0.18622615,0.00533883,0.0460
 6127,0.50161993,-0.00358928,-0.00219286,-0.00417654,-0.02899671,0.0257
 8200,0.01548173,-0.10058766,0.00826344,0.01965227,-0.00320591,0.005170
 98,0.00525140,0.52878649,-0.00106642,0.00043346,0.00032809,0.00161524,
 0.00392711,-0.00617936,0.06058022,-0.07404656,-0.02019308,-0.00467643,
 0.00736996,0.00474199,0.04737058,0.49738293,-0.00343363,0.00046788,-0.
 00147086,-0.00946120,0.00590970,0.00395283,0.03069191,-0.00164866,-0.0
 9433966,0.02341035,-0.02001340,-0.02382434,0.05851498,-0.05586047,0.56
 350251,-0.00083271,-0.00315609,-0.00022842,-0.01832239,-0.02427735,-0.
 00823052,-0.00673987,-0.00889258,-0.01216763,-0.00194986,-0.00349515,0
 .00382711,-0.00298360,-0.00754873,-0.00154170,0.04718410,0.00244803,0.
 00436828,0.00158140,-0.01637497,-0.02570480,-0.00758234,-0.03139705,-0
 .01997078,-0.00378054,-0.00582063,-0.02344483,0.00838254,0.01068735,-0
 .03199618,-0.01453995,0.03834278,0.12507492,0.00052350,0.00010693,0.00
 000463,-0.00490283,-0.01511424,-0.00140668,-0.01447610,0.00476654,-0.0
 4081762,0.01193393,0.02832021,-0.00080785,0.00190098,-0.00851360,-0.00
 329796,0.05749928,-0.03828156,0.29147157,-0.06351181,-0.01904734,0.059
 57673,-0.00555333,-0.00781578,0.02158547,0.00048401,-0.00044264,0.0012
 6035,-0.00060317,0.00035511,-0.00003538,0.00017508,0.00010545,-0.00033
 599,0.00018924,-0.00033931,0.00021668,0.06546716,-0.02002856,-0.073771
 23,0.07741377,0.00422572,0.00726278,-0.02095874,-0.00084270,0.00051623
 ,0.00049759,0.00039771,0.00015702,0.00030832,0.00029979,0.00021793,-0.
 00011582,0.00084834,-0.00054597,0.00037833,0.01762888,0.07451379,0.060
 37504,0.07587215,-0.28656574,0.00170678,0.00288262,-0.00969897,-0.0005
 0044,0.00015490,0.00011282,-0.00054046,-0.00006766,-0.00061605,0.00024
 311,0.00007520,-0.00003054,0.00034005,-0.00025975,-0.00010385,-0.06572
 229,-0.08025187,0.30424612,-0.24138087,-0.00922378,-0.12928038,-0.0174
 4342,-0.00168054,-0.01199639,-0.00154024,0.00261448,0.00295116,0.00024
 917,-0.00010352,0.00039493,-0.00093065,-0.00020573,-0.00079388,0.00022
 951,0.00054921,0.00020082,0.00894214,0.00060762,0.00577938,0.25662662,
 -0.01071067,-0.04787766,-0.00687847,0.01486963,0.00075107,0.01106682,0
 .00368479,0.00022344,-0.00002215,0.00001393,0.00017246,-0.00016272,0.0
 0146024,-0.00037710,-0.00045965,0.00054225,-0.00139249,-0.00021027,0.0
 0875267,0.00016118,0.00494197,0.00710023,0.04775247,-0.13208523,-0.005
 70979,-0.13596173,0.01452936,0.00111261,0.00854519,0.00273688,-0.00218
 609,-0.00145986,-0.00012576,-0.00010941,-0.00044892,0.00073805,0.00007
 250,0.00057082,-0.00003519,-0.00031232,-0.00021656,-0.02425174,-0.0025
 1517,-0.01296321,0.13686192,0.00817573,0.13998938,-0.07060310,-0.07003
 653,-0.00147457,0.00524466,0.02714561,-0.00010490,0.00482920,-0.000853
 08,0.00000305,0.00013441,0.00012486,0.00011335,-0.00029418,0.00058062,
 0.00056812,-0.00151853,-0.00090679,0.00008509,-0.00297791,-0.00630968,
 -0.00192075,-0.00556892,-0.02540663,0.00186647,0.07269522,-0.07459669,
 -0.28054251,-0.00667638,-0.00744149,-0.01479916,-0.00061318,-0.0003310
 0,0.00140864,0.00208222,0.00051991,0.00005552,0.00027250,0.00135054,0.
 00028738,-0.00109801,0.00332714,-0.00140393,0.00025795,-0.00217697,-0.
 00705646,-0.00201676,0.00085178,-0.00020828,0.00059885,0.07529565,0.30
 300722,-0.00088365,-0.00552276,-0.04912887,-0.00487283,-0.01330145,-0.
 00070888,-0.00141783,0.00079073,0.00058764,0.00007281,-0.00018408,-0.0
 0003844,0.00038774,0.00009321,-0.00025421,0.00056391,0.00002397,0.0004
 8857,0.00867564,0.02747882,0.00431136,-0.00367576,-0.01705387,0.000226
 16,-0.00073390,0.00934250,0.04490456,-0.00482895,-0.00636901,0.0231596
 1,-0.05334704,-0.01206051,0.03950794,-0.00004858,0.00852452,-0.0291741
 9,-0.00549870,-0.00057753,-0.00154134,0.00133789,-0.00054416,-0.001664
 77,0.00023791,0.00130797,-0.00125129,-0.00279258,0.00363724,0.00147841
 ,0.00031636,-0.00042511,0.00021877,0.00073306,0.00004533,-0.00081722,0
 .06509310,0.00394264,0.00603351,-0.02041457,-0.00965146,-0.06783514,0.
 06569065,-0.00188145,-0.00270876,-0.00259989,0.00040409,0.00057058,0.0
 0028582,-0.00009107,-0.00051008,0.00066076,-0.00038182,0.00106236,-0.0
 0152455,0.00298435,-0.00196693,-0.00160836,-0.00059143,0.00082169,0.00
 053055,-0.00103882,0.00058545,-0.00004406,0.00835890,0.06879051,0.0026
 4047,0.00350757,-0.01027264,0.03738290,0.06592364,-0.28837518,0.001104
 43,0.00446131,-0.01562965,-0.00317667,-0.00087072,0.00028426,0.0015054
 0,-0.00059694,0.00099223,0.00033338,0.00038602,0.00006066,0.00135705,-
 0.00202536,0.00042314,-0.00005146,0.00012946,0.00072099,-0.00060874,-0
 .00032515,0.00007307,-0.03936713,-0.06889546,0.30969185,0.00829345,0.0
 2279306,-0.00014269,-0.07297940,-0.08289798,0.00006566,-0.01739377,-0.
 02523568,-0.00093501,0.00091072,-0.00032802,0.00087398,0.00251230,0.00
 093420,-0.00001403,-0.00234644,-0.00301644,-0.00272656,0.00092279,-0.0
 0048960,0.00004101,0.00075095,0.00011556,-0.00056688,-0.00247196,0.003
 91949,0.00254636,-0.00101901,-0.00271480,-0.00023940,0.08406004,-0.004
 93005,-0.01541718,0.00007407,-0.08154253,-0.28779392,0.00007007,0.0002
 6438,-0.00257496,-0.00035631,0.00061457,0.00050545,0.00056177,0.000374
 93,0.00030280,0.00012495,0.00015804,0.00137214,0.00032980,-0.00030704,
 0.00074786,-0.00018735,-0.00007553,0.00025264,0.00030021,0.00236072,-0
 .00109391,-0.00165177,-0.00192345,-0.00557500,-0.00091511,0.08441526,0
 .30843415,-0.00392165,-0.01463127,-0.00015972,0.00120568,0.00077839,-0
 .04782526,-0.00943241,-0.01380115,-0.00152797,0.00027100,-0.00086566,0
 .00029337,0.00157110,0.00029640,-0.00010280,-0.00182952,-0.00195622,-0
 .00112568,-0.00078393,-0.00020816,0.00028911,-0.00025382,0.00082967,0.
 00041665,0.00246046,-0.00146245,-0.00034590,0.01000922,0.02809044,0.00
 165153,0.00116998,0.00193036,0.04859446,-0.00000301,-0.00002217,-0.000
 06232,0.00014254,0.00079721,-0.00049834,-0.00142072,-0.00131019,-0.000
 00288,-0.08431180,-0.09498788,0.00009361,-0.00014565,0.00000297,-0.000
 06319,0.00021359,0.00077612,-0.00010378,-0.00001742,0.00006729,0.00012
 027,-0.00003206,-0.00003603,0.00000540,-0.00001318,-0.00013482,0.00011
 853,-0.00004145,-0.00000499,0.00007461,0.00009057,0.00011793,-0.000490
 54,0.08431678,0.00021143,-0.00013124,0.00013487,-0.00050087,0.00044240
 ,-0.00106102,-0.00311421,-0.00983431,0.00134001,-0.09490456,-0.2872026
 3,-0.00091112,0.00063956,0.00067052,-0.00092611,0.00045276,0.00028119,
 0.00109833,0.00003385,-0.00018704,0.00002887,0.00001260,0.00000049,-0.
 00000709,0.00000423,0.00016381,-0.00008336,0.00004624,0.00034948,-0.00
 006297,0.00040899,0.00031971,0.00038105,0.10200778,0.30338658,-0.00004
 635,0.00008084,-0.00001608,0.00057064,0.00072909,0.00139982,0.01197197
 ,0.02800268,-0.00219746,-0.00096779,-0.00322369,-0.04621819,-0.0007026
 3,0.00015299,0.00168628,0.00007076,0.00256830,-0.00615499,-0.00003143,
 -0.00006460,0.00000866,-0.00002354,0.00002405,0.00003756,0.00001428,-0
 .00012485,-0.00008081,0.00023365,-0.00032050,0.00023038,-0.00052398,-0
 .00020443,-0.00057001,-0.00001836,-0.00128070,0.05148822,-0.00055870,0
 .00029661,-0.00080274,0.00004163,-0.00044125,0.00006935,-0.00050223,-0
 .00274864,-0.00015632,-0.15202079,0.09838518,0.09243809,0.00006774,-0.
 00023799,0.00051492,-0.00019511,0.00062402,0.00113318,-0.00113933,0.00
 028073,-0.00105715,-0.00003771,0.00002054,0.00004074,-0.00006097,-0.00
 005167,0.00006590,-0.00004243,0.00006366,0.00011694,-0.00006818,-0.000
 02342,-0.00009595,0.00866804,-0.00723227,-0.00828309,0.15790517,0.0006
 4912,0.00033535,-0.00004541,0.00009006,-0.00020596,-0.00080840,-0.0108
 1390,0.00661785,0.00876079,0.09844798,-0.14199626,-0.08996935,0.000411
 76,-0.00089093,0.00223639,-0.00048365,0.00108895,0.00067253,0.00018807
 ,0.00025811,0.00046524,-0.00004483,-0.00012528,0.00013467,-0.00014967,
 -0.00027996,0.00010302,-0.00014357,-0.00003363,-0.00004439,0.00006785,
 -0.00000408,-0.00010771,0.01895941,-0.01264205,-0.01527479,-0.10502454
 ,0.14632492,0.00005705,0.00037260,-0.00028485,0.00089632,-0.00062312,0
 .00042137,0.01679812,-0.01677295,-0.01380751,0.09072623,-0.08680050,-0
 .13286961,0.00034584,0.00313526,-0.00557594,0.00130412,-0.00113627,-0.
 00049708,-0.00106582,0.00004592,0.00026678,-0.00012422,-0.00004669,0.0
 0039927,-0.00011452,-0.00009025,-0.00007136,-0.00003453,0.00011305,0.0
 0016358,-0.00006340,0.00005275,-0.00012936,-0.00126343,0.00132975,0.00
 069209,-0.10004791,0.09176467,0.14197310,-0.00014646,-0.00009304,0.000
 08832,-0.00001220,-0.00000454,0.00112799,0.00529386,-0.00001300,0.0040
 0060,-0.27786465,0.00603370,-0.10534340,0.00102962,-0.00048611,0.00073
 571,-0.00018150,0.00045475,-0.00061588,0.00022095,-0.00001810,-0.00018
 378,0.00004240,0.00000729,-0.00011285,0.00004595,0.00002645,-0.0000360
 2,0.00048871,0.00012983,0.00010445,0.00011291,0.00006713,0.00018236,-0
 .00756792,0.00229882,-0.00325721,-0.01285650,-0.00191930,-0.00784447,0
 .29107205,0.00005148,0.00027698,0.00003407,-0.00122375,-0.00023718,0.0
 0127206,0.01136372,-0.00291385,0.00590396,0.00585064,-0.04840056,0.001
 33157,-0.00041959,-0.00046964,-0.00077740,0.00086358,0.00013335,0.0010
 2003,-0.00012023,-0.00013478,0.00007618,-0.00002421,-0.00004981,0.0000
 8356,-0.00008367,-0.00005972,-0.00003949,0.00057749,0.00043782,0.00028
 244,0.00025463,0.00026010,0.00024472,-0.02631727,0.00392877,-0.0127957
 3,0.01583942,0.00033562,0.00944113,-0.00653317,0.04658202,0.00058653,-
 0.00012447,-0.00012287,0.00258444,0.00227601,-0.00541673,-0.02803362,-
 0.00082944,-0.01316559,-0.10139761,0.00224365,-0.09661394,-0.00151387,
 0.00013976,0.00111335,-0.00087209,0.00083925,0.00008613,-0.00024361,0.
 00003166,0.00027401,-0.00010106,-0.00001432,0.00021174,-0.00006397,0.0
 0002675,0.00004338,-0.00163835,0.00013995,-0.00068325,0.00032531,-0.00
 001730,0.00017648,0.00148931,-0.00002627,0.00008472,0.01641360,0.00139
 938,0.00930925,0.11134550,-0.00557702,0.10501092,-0.00004007,0.0007144
 7,0.00021674,0.00102792,-0.00074264,-0.00035141,-0.00043947,0.02654983
 ,0.00543403,0.00061394,-0.00068182,-0.00086959,-0.06965865,-0.08708620
 ,-0.00258991,0.00061228,-0.00038533,-0.00001521,-0.00001426,-0.0001446
 1,-0.00006219,0.00004513,-0.00030414,-0.00004575,-0.00017921,-0.000711
 70,-0.00014989,-0.00007777,0.00006977,-0.00010937,-0.00115132,0.000066
 45,0.00004733,-0.00001086,-0.00022494,0.00051817,-0.00001266,0.0000403
 5,-0.00050341,-0.00007235,-0.00009646,-0.00000907,0.07780774,0.0001644
 2,0.00037965,-0.00028762,-0.00112352,0.00127010,0.00095433,-0.00315005
 ,-0.02025488,-0.00292154,-0.00076553,0.00127688,0.00095756,-0.08784726
 ,-0.28529272,0.00268240,0.00183087,-0.00197223,-0.00141618,0.00002491,
 0.00001112,0.00003232,-0.00000325,0.00008504,-0.00001268,-0.00033618,0
 .00010843,0.00010600,0.00011760,-0.00005734,-0.00004430,0.00075733,0.0
 0016732,0.00018238,0.00002183,0.00037463,-0.00041691,0.00013612,0.0003
 2331,0.00023356,0.00009721,-0.00003131,-0.00003974,0.08988659,0.306369
 35,-0.00021536,0.00000165,-0.00018139,-0.00125374,0.00157520,-0.000294
 42,0.00189479,-0.01995477,-0.00226014,-0.00073207,0.00017326,0.0004832
 0,-0.00322527,0.00134145,-0.04275505,-0.00083259,0.00011682,-0.0010488
 8,0.00007133,-0.00000081,-0.00001880,-0.00003217,0.00008631,0.00002782
 ,-0.00002934,0.00016445,0.00003885,0.00002559,0.00015712,-0.00008779,0
 .00038793,0.00008127,0.00053960,0.00067557,0.00003930,-0.00066415,-0.0
 0010448,0.00028211,0.00033081,-0.00012005,-0.00016140,-0.00015916,-0.0
 0264327,0.00133306,0.04396692,-0.00056631,-0.00012395,-0.00067956,-0.0
 0205212,0.00273182,0.00151605,-0.01211401,0.00031637,-0.00552953,0.000
 56106,-0.00024150,-0.00099626,-0.27335735,-0.00642422,-0.10802688,-0.0
 0185034,0.00027543,-0.00025393,-0.00005747,0.00000940,0.00004070,-0.00
 020492,-0.00000455,0.00020218,0.00012172,-0.00006755,-0.00001126,0.000
 09041,-0.00003140,0.00001548,0.00051980,-0.00001356,0.00011501,-0.0000
 9576,0.00004136,0.00005812,0.00037698,0.00004965,0.00006533,0.00007371
 ,-0.00004229,0.00079590,-0.00711446,0.00208626,-0.00420589,0.28946097,
 0.00118067,0.00064461,0.00045914,0.00181414,-0.00210282,-0.00158438,0.
 01478435,-0.00377914,0.00682243,-0.00071114,-0.00011609,0.00091482,-0.
 00543552,-0.04512927,-0.00123919,0.00371795,-0.00039555,0.00036112,0.0
 0004623,-0.00004737,-0.00004809,0.00023955,-0.00006500,-0.00018260,-0.
 00027391,0.00007014,0.00004815,-0.00013431,-0.00010717,-0.00027730,0.0
 0017358,0.00025655,-0.00005677,-0.00019716,0.00001466,-0.00003849,-0.0
 0006264,-0.00018947,0.00010653,-0.00018830,0.00039474,-0.00012851,-0.0
 2614384,0.00254373,-0.01279765,0.00183390,0.04848274,0.00096688,0.0000
 1991,0.00114114,0.00140018,-0.00218609,-0.00245399,0.01610849,0.002625
 68,0.00783542,0.00095952,-0.00020620,0.00141146,-0.10994406,-0.0015979
 9,-0.10518715,0.00062494,-0.00027549,0.00053757,-0.00012763,0.00009764
 ,0.00000329,0.00025140,-0.00023700,-0.00016536,-0.00004111,-0.00001539
 ,-0.00000653,0.00013394,-0.00025320,0.00033339,-0.00009387,-0.00000572
 ,-0.00019704,0.00005081,0.00005288,-0.00007026,-0.00017994,-0.00000342
 ,-0.00000680,-0.00003829,-0.00021754,-0.00052584,0.00151074,0.00046673
 ,0.00022789,0.11461963,0.00418360,0.10526111,0.00005958,0.00009757,-0.
 00035902,0.00098293,-0.00043062,0.00164633,-0.00212849,-0.00873138,0.0
 1794102,-0.00267868,0.00302166,0.00146219,-0.05227770,-0.00449744,0.01
 389481,0.00000519,-0.00026318,0.00012168,0.00016367,-0.00010415,-0.000
 04869,-0.00000469,0.00003514,-0.00000499,-0.00001561,-0.00002594,0.000
 01183,-0.00076490,0.00062307,-0.00037086,-0.00011797,-0.00006033,0.000
 04774,0.00002034,0.00014965,-0.00031555,0.00032238,-0.00035060,0.00120
 588,0.00015459,0.00004775,0.00022496,-0.00056646,-0.00195067,0.0101116
 0,0.00623806,0.00934238,-0.02603652,0.05029255,-0.00020085,0.00006185,
 -0.00002555,-0.00096179,-0.00007376,-0.00050502,0.00087234,0.00258722,
 -0.01810435,0.00234530,-0.00180825,-0.00154160,-0.00552509,-0.07290985
 ,0.08403237,0.00124469,0.00049233,-0.00271001,-0.00004189,-0.00003645,
 -0.00002061,-0.00003452,-0.00001432,0.00004031,-0.00001416,-0.00013786
 ,-0.00005362,0.00004273,0.00016714,0.00026370,-0.00010009,0.00001635,0
 .00016566,0.00023500,0.00014991,-0.00010348,0.00023100,0.00087315,-0.0
 0087944,0.00004051,-0.00017593,0.00006535,-0.00067694,-0.00548334,0.02
 754373,-0.00037461,-0.00031791,-0.00230084,0.00280788,0.07694907,-0.00
 001703,-0.00012160,0.00029240,-0.00151260,0.00030334,0.00069748,0.0010
 8050,0.00240000,-0.01220771,0.00195321,-0.00244487,-0.00085044,0.01589
 587,0.08374752,-0.29637419,0.00063953,0.00041299,-0.00120322,-0.000144
 42,0.00003971,0.00007508,-0.00000225,-0.00001170,0.00000955,-0.0000406
 5,-0.00003671,-0.00003823,0.00038301,-0.00001135,0.00062935,0.00000169
 ,-0.00008233,-0.00001242,-0.00009391,0.00001563,0.00022063,-0.00000055
 ,0.00052253,-0.00052040,0.00003472,0.00001485,0.00032238,-0.00093883,-
 0.00173416,0.00201630,0.00219702,0.00338341,-0.00801978,-0.01944412,-0
 .08586865,0.31482769,0.00004486,-0.00073205,-0.00006793,0.00154319,-0.
 00135206,0.00324099,-0.00405550,0.00069712,0.00861676,-0.00037924,-0.0
 0408269,0.00008495,0.00211823,0.00158414,-0.00040563,-0.01175148,0.003
 03803,-0.04926956,0.00010225,-0.00006531,-0.00008901,-0.00005882,0.000
 28485,0.00002861,-0.00010066,0.00020154,0.00015563,0.00016397,-0.00018
 907,-0.00071148,-0.00062548,0.00043651,-0.00027205,0.00020796,-0.00033
 044,0.00073234,0.00011267,0.00002583,-0.00033717,0.00016686,0.00001194
 ,0.00010770,-0.00076949,0.00005333,0.00022742,-0.00002997,0.00001409,-
 0.00016511,0.00031521,0.00011049,0.00000883,0.01299546,-0.00031185,0.0
 0061246,-0.00009044,0.00014148,0.00272547,0.00033136,0.00614156,-0.004
 63440,0.02436966,-0.00362523,-0.00784852,-0.00245154,-0.00029978,0.001
 03022,0.00056419,-0.00309302,-0.02704678,0.03045865,0.00017168,-0.0000
 9979,-0.00006899,0.00001188,-0.00011053,-0.00001383,-0.00010257,-0.000
 10482,-0.00005192,-0.00048035,-0.00002449,-0.00089645,0.00094265,-0.00
 017603,0.00019033,0.00002496,-0.00008486,0.00229023,-0.00005486,0.0002
 1034,-0.00024601,0.00009984,0.00012338,-0.00040470,-0.00012884,0.00018
 227,0.00001891,-0.00002055,-0.00015737,-0.00014757,0.00028922,-0.00033
 936,-0.00052862,0.00029376,0.03574281,0.00008814,0.00053034,-0.0004836
 7,-0.00093803,-0.00054824,0.00161362,0.00385767,0.00110633,-0.00128427
 ,-0.00026632,0.00058567,0.00089555,-0.00192612,-0.00118294,0.00139468,
 -0.03946544,0.05381316,-0.23596876,-0.00000102,-0.00015123,-0.00001320
 ,-0.00010469,-0.00015716,0.00006051,0.00002165,-0.00028609,-0.00000037
 ,0.00033868,0.00000359,-0.00020592,-0.00010610,-0.00010493,0.00003499,
 -0.00003138,-0.00006204,0.00012361,-0.00006458,-0.00008784,0.00020667,
 -0.00006769,-0.00013598,0.00005500,0.00056091,-0.00007519,-0.00016160,
 0.00007789,0.00007378,-0.00011850,-0.00008829,0.00000204,0.00013552,0.
 03811472,-0.05332326,0.23371614\\0.00000055,-0.00000080,-0.00000064,-0
 .00000028,0.00000033,0.00000006,-0.00000050,-0.00000216,0.00000043,-0.
 00000014,0.00000004,-0.00000110,-0.00000088,0.00000013,0.00000006,0.00
 000063,0.00000166,-0.00000023,-0.00000016,0.00000015,0.00000013,-0.000
 00027,0.00000030,0.00000029,0.00000006,0.00000022,-0.00000004,-0.00000
 004,0.00000002,-0.00000006,0.00000018,0.00000016,-0.00000003,-0.000000
 07,0.00000013,0.00000020,0.00000013,0.00000011,0.00000036,0.00000003,0
 .00000011,0.00000022,0.00000040,0.,0.00000023,0.00000031,-0.00000029,0
 .00000001,0.00000004,0.00000008,0.00000005,0.,-0.00000016,0.00000005\\
 \@


 ERROR IS THE FORCE THAT WELDS MEN TOGETHER....
 TRUTH IS COMMUNICATED TO MEN ONLY BY DEEDS OF TRUTH.
           TOLSTOI,MY RELIGION
 Job cpu time:       0 days  0 hours  7 minutes 23.2 seconds.
 Elapsed time:       0 days  0 hours  1 minutes 51.7 seconds.
 File lengths (MBytes):  RWF=     62 Int=      0 D2E=      0 Chk=      3 Scr=      1
 Normal termination of Gaussian 16 at Mon Jul 10 19:29:43 2023.
real 647.34
user 2476.74
sys 12.52
