 Entering Gaussian System, Link 0=g16
 Input=gaussian_test.inp
 Output=gaussian_test.log
 Initial command:
 /sw/restricted/lms/sw/Gaussian/g16_B01/g16/l1.exe "/scratch/user/peterchao1/peterchao1/8626449_1689049195000000889641762/Gau-41596.inp" -scrdir="/scratch/user/peterchao1/peterchao1/8626449_1689049195000000889641762/"
 Entering Link 1 = /sw/restricted/lms/sw/Gaussian/g16_B01/g16/l1.exe PID=     41597.
  
 Copyright (c) 1988-2017, Gaussian, Inc.  All Rights Reserved.
  
 This is part of the Gaussian(R) 16 program.  It is based on
 the Gaussian(R) 09 system (copyright 2009, Gaussian, Inc.),
 the Gaussian(R) 03 system (copyright 2003, Gaussian, Inc.),
 the Gaussian(R) 98 system (copyright 1998, Gaussian, Inc.),
 the Gaussian(R) 94 system (copyright 1995, Gaussian, Inc.),
 the Gaussian 92(TM) system (copyright 1992, Gaussian, Inc.),
 the Gaussian 90(TM) system (copyright 1990, Gaussian, Inc.),
 the Gaussian 88(TM) system (copyright 1988, Gaussian, Inc.),
 the Gaussian 86(TM) system (copyright 1986, Carnegie Mellon
 University), and the Gaussian 82(TM) system (copyright 1983,
 Carnegie Mellon University). Gaussian is a federally registered
 trademark of Gaussian, Inc.
  
 This software contains proprietary and confidential information,
 including trade secrets, belonging to Gaussian, Inc.
  
 This software is provided under written license and may be
 used, copied, transmitted, or stored only in accord with that
 written license.
  
 The following legend is applicable only to US Government
 contracts under FAR:
  
                    RESTRICTED RIGHTS LEGEND
  
 Use, reproduction and disclosure by the US Government is
 subject to restrictions as set forth in subparagraphs (a)
 and (c) of the Commercial Computer Software - Restricted
 Rights clause in FAR 52.227-19.
  
 Gaussian, Inc.
 340 Quinnipiac St., Bldg. 40, Wallingford CT 06492
  
  
 ---------------------------------------------------------------
 Warning -- This program may not be used in any manner that
 competes with the business of Gaussian, Inc. or will provide
 assistance to any competitor of Gaussian, Inc.  The licensee
 of this program is prohibited from giving any competitor of
 Gaussian, Inc. access to this program.  By using this program,
 the user acknowledges that Gaussian, Inc. is engaged in the
 business of creating and licensing software in the field of
 computational chemistry and represents and warrants to the
 licensee that it is not a competitor of Gaussian, Inc. and that
 it will not use this program in any manner prohibited above.
 ---------------------------------------------------------------
  

 Cite this work as:
 Gaussian 16, Revision B.01,
 M. J. Frisch, G. W. Trucks, H. B. Schlegel, G. E. Scuseria, 
 M. A. Robb, J. R. Cheeseman, G. Scalmani, V. Barone, 
 G. A. Petersson, H. Nakatsuji, X. Li, M. Caricato, A. V. Marenich, 
 J. Bloino, B. G. Janesko, R. Gomperts, B. Mennucci, H. P. Hratchian, 
 J. V. Ortiz, A. F. Izmaylov, J. L. Sonnenberg, D. Williams-Young, 
 F. Ding, F. Lipparini, F. Egidi, J. Goings, B. Peng, A. Petrone, 
 T. Henderson, D. Ranasinghe, V. G. Zakrzewski, J. Gao, N. Rega, 
 G. Zheng, W. Liang, M. Hada, M. Ehara, K. Toyota, R. Fukuda, 
 J. Hasegawa, M. Ishida, T. Nakajima, Y. Honda, O. Kitao, H. Nakai, 
 T. Vreven, K. Throssell, J. A. Montgomery, Jr., J. E. Peralta, 
 F. Ogliaro, M. J. Bearpark, J. J. Heyd, E. N. Brothers, K. N. Kudin, 
 V. N. Staroverov, T. A. Keith, R. Kobayashi, J. Normand, 
 K. Raghavachari, A. P. Rendell, J. C. Burant, S. S. Iyengar, 
 J. Tomasi, M. Cossi, J. M. Millam, M. Klene, C. Adamo, R. Cammi, 
 J. W. Ochterski, R. L. Martin, K. Morokuma, O. Farkas, 
 J. B. Foresman, and D. J. Fox, Gaussian, Inc., Wallingford CT, 2016.
 
 ******************************************
 Gaussian 16:  ES64L-G16RevB.01 20-Dec-2017
                10-Jul-2023 
 ******************************************
 %chk=43.chk
 %nprocshared=4
 Will use up to    4 processors via shared memory.
 %mem=8000mb
 ----------------------------------------------------------------------
 #T wB97XD/def2svpp opt=(calcall,tight) int(grid=ultrafine) scf=(veryti
 ght,qc)
 ----------------------------------------------------------------------
 --------------
 Comment gs min
 --------------
 Symbolic Z-matrix:
 Charge =  1 Multiplicity = 2
 C                    -0.00034   0.00026   1.91053 
 C                    -0.00006   0.00003   0.40932 
 N                     1.05949   0.93732  -0.16483 
 O                     2.12981   0.88673   0.38161 
 O                     0.73843   1.61694  -1.10096 
 N                     0.28205  -1.3862   -0.16469 
 O                     1.03198  -1.44815  -1.10012 
 O                    -0.29775  -2.28769   0.38114 
 N                    -1.34143   0.44879  -0.16516 
 O                    -1.83329   1.40061   0.38153 
 O                    -1.76881  -0.1687   -1.10182 
 H                     0.98067  -0.34129   2.2712 
 H                    -0.78681  -0.67852   2.27085 
 H                    -0.19524   1.0208    2.2706 
 

 GradGradGradGradGradGradGradGradGradGradGradGradGradGradGradGradGradGrad
 Initialization pass.
                           ----------------------------
                           !    Initial Parameters    !
                           ! (Angstroms and Degrees)  !
 --------------------------                            --------------------------
 ! Name  Definition              Value          Derivative Info.                !
 --------------------------------------------------------------------------------
 ! R1    R(1,2)                  1.5012         calculate D2E/DX2 analytically  !
 ! R2    R(1,12)                 1.0996         calculate D2E/DX2 analytically  !
 ! R3    R(1,13)                 1.0996         calculate D2E/DX2 analytically  !
 ! R4    R(1,14)                 1.0996         calculate D2E/DX2 analytically  !
 ! R5    R(2,3)                  1.5267         calculate D2E/DX2 analytically  !
 ! R6    R(2,6)                  1.5267         calculate D2E/DX2 analytically  !
 ! R7    R(2,9)                  1.5267         calculate D2E/DX2 analytically  !
 ! R8    R(3,4)                  1.2028         calculate D2E/DX2 analytically  !
 ! R9    R(3,5)                  1.2005         calculate D2E/DX2 analytically  !
 ! R10   R(6,7)                  1.2005         calculate D2E/DX2 analytically  !
 ! R11   R(6,8)                  1.2028         calculate D2E/DX2 analytically  !
 ! R12   R(9,10)                 1.2028         calculate D2E/DX2 analytically  !
 ! R13   R(9,11)                 1.2005         calculate D2E/DX2 analytically  !
 ! A1    A(2,1,12)             109.1347         calculate D2E/DX2 analytically  !
 ! A2    A(2,1,13)             109.1309         calculate D2E/DX2 analytically  !
 ! A3    A(2,1,14)             109.1248         calculate D2E/DX2 analytically  !
 ! A4    A(12,1,13)            109.8088         calculate D2E/DX2 analytically  !
 ! A5    A(12,1,14)            109.8155         calculate D2E/DX2 analytically  !
 ! A6    A(13,1,14)            109.8061         calculate D2E/DX2 analytically  !
 ! A7    A(1,2,3)              112.0931         calculate D2E/DX2 analytically  !
 ! A8    A(1,2,6)              112.0959         calculate D2E/DX2 analytically  !
 ! A9    A(1,2,9)              112.0916         calculate D2E/DX2 analytically  !
 ! A10   A(3,2,6)              106.7273         calculate D2E/DX2 analytically  !
 ! A11   A(3,2,9)              106.7263         calculate D2E/DX2 analytically  !
 ! A12   A(6,2,9)              106.7254         calculate D2E/DX2 analytically  !
 ! A13   A(2,3,4)              114.8914         calculate D2E/DX2 analytically  !
 ! A14   A(2,3,5)              117.0775         calculate D2E/DX2 analytically  !
 ! A15   A(4,3,5)              128.0261         calculate D2E/DX2 analytically  !
 ! A16   A(2,6,7)              117.0807         calculate D2E/DX2 analytically  !
 ! A17   A(2,6,8)              114.8881         calculate D2E/DX2 analytically  !
 ! A18   A(7,6,8)              128.0262         calculate D2E/DX2 analytically  !
 ! A19   A(2,9,10)             114.8899         calculate D2E/DX2 analytically  !
 ! A20   A(2,9,11)             117.0769         calculate D2E/DX2 analytically  !
 ! A21   A(10,9,11)            128.0282         calculate D2E/DX2 analytically  !
 ! D1    D(12,1,2,3)           -60.6993         calculate D2E/DX2 analytically  !
 ! D2    D(12,1,2,6)            59.3033         calculate D2E/DX2 analytically  !
 ! D3    D(12,1,2,9)           179.3023         calculate D2E/DX2 analytically  !
 ! D4    D(13,1,2,3)           179.2991         calculate D2E/DX2 analytically  !
 ! D5    D(13,1,2,6)           -60.6983         calculate D2E/DX2 analytically  !
 ! D6    D(13,1,2,9)            59.3008         calculate D2E/DX2 analytically  !
 ! D7    D(14,1,2,3)            59.3068         calculate D2E/DX2 analytically  !
 ! D8    D(14,1,2,6)           179.3093         calculate D2E/DX2 analytically  !
 ! D9    D(14,1,2,9)           -60.6916         calculate D2E/DX2 analytically  !
 ! D10   D(1,2,3,4)             43.2264         calculate D2E/DX2 analytically  !
 ! D11   D(1,2,3,5)           -137.5155         calculate D2E/DX2 analytically  !
 ! D12   D(6,2,3,4)            -79.8595         calculate D2E/DX2 analytically  !
 ! D13   D(6,2,3,5)             99.3986         calculate D2E/DX2 analytically  !
 ! D14   D(9,2,3,4)            166.3063         calculate D2E/DX2 analytically  !
 ! D15   D(9,2,3,5)            -14.4356         calculate D2E/DX2 analytically  !
 ! D16   D(1,2,6,7)           -137.4828         calculate D2E/DX2 analytically  !
 ! D17   D(1,2,6,8)             43.2628         calculate D2E/DX2 analytically  !
 ! D18   D(3,2,6,7)            -14.3987         calculate D2E/DX2 analytically  !
 ! D19   D(3,2,6,8)            166.3469         calculate D2E/DX2 analytically  !
 ! D20   D(9,2,6,7)             99.4362         calculate D2E/DX2 analytically  !
 ! D21   D(9,2,6,8)            -79.8183         calculate D2E/DX2 analytically  !
 ! D22   D(1,2,9,10)            43.1722         calculate D2E/DX2 analytically  !
 ! D23   D(1,2,9,11)          -137.577          calculate D2E/DX2 analytically  !
 ! D24   D(3,2,9,10)           -79.9087         calculate D2E/DX2 analytically  !
 ! D25   D(3,2,9,11)            99.3422         calculate D2E/DX2 analytically  !
 ! D26   D(6,2,9,10)           166.2559         calculate D2E/DX2 analytically  !
 ! D27   D(6,2,9,11)           -14.4933         calculate D2E/DX2 analytically  !
 --------------------------------------------------------------------------------
 Number of steps in this run=     71 maximum allowed number of steps=    100.
 GradGradGradGradGradGradGradGradGradGradGradGradGradGradGradGradGradGrad

                    Distance matrix (angstroms):
                    1          2          3          4          5
     1  C    0.000000
     2  C    1.501210   0.000000
     3  N    2.511658   1.526690   0.000000
     4  O    2.767846   2.307236   1.202808   0.000000
     5  O    3.496923   2.332526   1.200536   2.160352   0.000000
     6  N    2.511678   1.526664   2.450130   2.979745   3.178634
     7  O    3.496792   2.332534   2.562412   2.975301   3.079107
     8  O    2.768064   2.307178   3.541300   3.996243   4.303064
     9  N    2.511608   1.526656   2.450108   3.541217   2.562438
    10  O    2.767404   2.307191   2.980151   3.996277   2.976293
    11  O    3.497179   2.332485   3.178124   4.302757   3.078111
    12  H    1.099594   2.131882   2.752323   2.529648   3.907012
    13  H    1.099589   2.131829   3.457202   3.811284   4.354827
    14  H    1.099611   2.131768   2.740916   2.998684   3.548873
                    6          7          8          9         10
     6  N    0.000000
     7  O    1.200527   0.000000
     8  O    1.202816   2.160350   0.000000
     9  N    2.450072   3.178922   2.979265   0.000000
    10  O    3.541089   4.303538   3.995175   1.202813   0.000000
    11  O    2.562524   3.079184   2.975448   1.200533   2.160373
    12  H    2.741070   3.548744   2.999193   3.457192   3.810957
    13  H    2.752291   3.906883   2.529748   2.740904   2.997900
    14  H    3.457177   4.354711   3.811387   2.752067   2.529044
                   11         12         13         14
    11  O    0.000000
    12  H    4.355072   0.000000
    13  H    3.549523   1.799357   0.000000
    14  H    3.906949   1.799450   1.799342   0.000000
 Framework group  C1[X(C2H3N3O6)]
 Deg. of freedom    36
                         Standard orientation:                         
 ---------------------------------------------------------------------
 Center     Atomic      Atomic             Coordinates (Angstroms)
 Number     Number       Type             X           Y           Z
 ---------------------------------------------------------------------
      1          6           0        0.000339   -0.000257    1.910528
      2          6           0        0.000057   -0.000031    0.409318
      3          7           0       -1.059318   -0.937506   -0.164831
      4          8           0       -2.129651   -0.887113    0.381607
      5          8           0       -0.738143   -1.617069   -1.100955
      6          7           0       -0.282296    1.386149   -0.164688
      7          8           0       -1.032234    1.447961   -1.100122
      8          8           0        0.297335    2.287741    0.381137
      9          7           0        1.341505   -0.448550   -0.165160
     10          8           0        1.833541   -1.400280    0.381530
     11          8           0        1.768779    0.169018   -1.101818
     12          1           0       -0.980727    0.341109    2.271200
     13          1           0        0.786685    0.678657    2.270848
     14          1           0        0.195418   -1.020765    2.270600
 ---------------------------------------------------------------------
 Rotational constants (GHZ):           1.3492710           1.3490973           1.0223437
   160 basis functions,   287 primitive gaussians,   171 cartesian basis functions
    42 alpha electrons       41 beta electrons
       nuclear repulsion energy       706.1132221042 Hartrees.
 NAtoms=   14 NActive=   14 NUniq=   14 SFac= 1.00D+00 NAtFMM=   60 NAOKFM=F Big=F
 Nuclear repulsion after empirical dispersion term =      706.1057901219 Hartrees.
   1 Symmetry operations used in ECPInt.
 ECPInt:  NShTT=    2628 NPrTT=   10592 LenC2=    2581 LenP2D=    7847.
 LDataN:  DoStor=T MaxTD1= 4 Len=   56
 ExpMin= 1.22D-01 ExpMax= 2.27D+03 ExpMxC= 3.41D+02 IAcc=3 IRadAn=         5 AccDes= 0.00D+00
 Harris functional with IExCor= 4639 and IRadAn=       5 diagonalized for initial guess.
 HarFok:  IExCor= 4639 AccDes= 0.00D+00 IRadAn=         5 IDoV= 1 UseB2=F ITyADJ=14
 ICtDFT=  3500011 ScaDFX=  1.000000  1.000000  1.000000  1.000000
 FoFCou: FMM=F IPFlag=           0 FMFlag=      100000 FMFlg1=           0
         NFxFlg=           0 DoJE=T BraDBF=F KetDBF=T FulRan=T
         wScrn=  0.000000 ICntrl=       500 IOpCl=  0 I1Cent=   200000004 NGrid=           0
         NMat0=    1 NMatS0=      1 NMatT0=    0 NMatD0=    1 NMtDS0=    0 NMtDT0=    0
 Petite list used in FoFCou.
 Initial guess <Sx>= 0.0000 <Sy>= 0.0000 <Sz>= 0.5000 <S**2>= 0.7500 S= 0.5000
     Minimum is close to point  2 DX=  4.37D-02 DF= -3.96D-05 DXR=  8.04D-02 DFR=  6.50D-03 which will be used.
     Accept linear search using points  1 and  2.
     Accept linear search using points  1 and  2.
     Accept linear search using points  1 and  2.
     Minimum is close to point  2 DX=  7.51D-03 DF= -7.73D-10 DXR=  7.46D-03 DFR=  5.56D-05 which will be used.
     Minimum is close to point  2 DX=  2.24D-03 DF= -1.02D-12 DXR=  2.24D-03 DFR=  4.70D-06 which will be used.
 SCF Done:  E(UwB97XD) =  -692.095254864     a.u. after   13 cycles
            Convg  =    0.2731D-06                   145 Fock formations.
              S**2 =  0.7653                  -V/T =  2.0060
 <Sx>= 0.0000 <Sy>= 0.0000 <Sz>= 0.5000 <S**2>= 0.7653 S= 0.5076
 <L.S>=  0.00000000000    
 Annihilation of the first spin contaminant:
 S**2 before annihilation     0.7653,   after     0.7502
 DoSCS=F DFT=T ScalE2(SS,OS)=  1.000000  1.000000
 NROrb=    160 NOA=    42 NOB=    41 NVA=   118 NVB=   119

 **** Warning!!: The largest alpha MO coefficient is  0.10379505D+02


 **** Warning!!: The largest beta MO coefficient is  0.10300970D+02

   1 Symmetry operations used in ECPInt.
 ECPInt:  NShTT=    2628 NPrTT=   10592 LenC2=    2581 LenP2D=    7847.
 LDataN:  DoStor=T MaxTD1= 5 Len=  102
 Symmetrizing basis deriv contribution to polar:
 IMax=3 JMax=2 DiffMx= 0.00D+00
 Calling FoFCou, ICntrl=  3107 FMM=F I1Cent=   0 AccDes= 0.00D+00.
 End of G2Drv F.D. properties file   721 does not exist.
 End of G2Drv F.D. properties file   722 does not exist.
 End of G2Drv F.D. properties file   788 does not exist.
          IDoAtm=11111111111111
 End of Minotr F.D. properties file   721 does not exist.
 End of Minotr F.D. properties file   722 does not exist.
 End of Minotr F.D. properties file   788 does not exist.

 **********************************************************************

            Population analysis using the SCF Density.

 **********************************************************************

 Orbital symmetries:
 Alpha Orbitals:
       Occupied  (A) (A) (A) (A) (A) (A) (A) (A) (A) (A) (A) (A)
                 (A) (A) (A) (A) (A) (A) (A) (A) (A) (A) (A) (A)
                 (A) (A) (A) (A) (A) (A) (A) (A) (A) (A) (A) (A)
                 (A) (A) (A) (A) (A) (A)
       Virtual   (A) (A) (A) (A) (A) (A) (A) (A) (A) (A) (A) (A)
                 (A) (A) (A) (A) (A) (A) (A) (A) (A) (A) (A) (A)
                 (A) (A) (A) (A) (A) (A) (A) (A) (A) (A) (A) (A)
                 (A) (A) (A) (A) (A) (A) (A) (A) (A) (A) (A) (A)
                 (A) (A) (A) (A) (A) (A) (A) (A) (A) (A) (A) (A)
                 (A) (A) (A) (A) (A) (A) (A) (A) (A) (A) (A) (A)
                 (A) (A) (A) (A) (A) (A) (A) (A) (A) (A) (A) (A)
                 (A) (A) (A) (A) (A) (A) (A) (A) (A) (A) (A) (A)
                 (A) (A) (A) (A) (A) (A) (A) (A) (A) (A) (A) (A)
                 (A) (A) (A) (A) (A) (A) (A) (A) (A) (A)
 Beta  Orbitals:
       Occupied  (A) (A) (A) (A) (A) (A) (A) (A) (A) (A) (A) (A)
                 (A) (A) (A) (A) (A) (A) (A) (A) (A) (A) (A) (A)
                 (A) (A) (A) (A) (A) (A) (A) (A) (A) (A) (A) (A)
                 (A) (A) (A) (A) (A)
       Virtual   (A) (A) (A) (A) (A) (A) (A) (A) (A) (A) (A) (A)
                 (A) (A) (A) (A) (A) (A) (A) (A) (A) (A) (A) (A)
                 (A) (A) (A) (A) (A) (A) (A) (A) (A) (A) (A) (A)
                 (A) (A) (A) (A) (A) (A) (A) (A) (A) (A) (A) (A)
                 (A) (A) (A) (A) (A) (A) (A) (A) (A) (A) (A) (A)
                 (A) (A) (A) (A) (A) (A) (A) (A) (A) (A) (A) (A)
                 (A) (A) (A) (A) (A) (A) (A) (A) (A) (A) (A) (A)
                 (A) (A) (A) (A) (A) (A) (A) (A) (A) (A) (A) (A)
                 (A) (A) (A) (A) (A) (A) (A) (A) (A) (A) (A) (A)
                 (A) (A) (A) (A) (A) (A) (A) (A) (A) (A) (A)
 The electronic state is 2-A.
 Alpha  occ. eigenvalues --  -19.62695 -19.58332 -19.58276 -19.57155 -19.57022
 Alpha  occ. eigenvalues --  -19.56447 -14.97796 -14.95978 -14.95418 -10.72103
 Alpha  occ. eigenvalues --  -10.54070  -1.65002  -1.62232  -1.61030  -1.47342
 Alpha  occ. eigenvalues --   -1.44767  -1.44414  -1.26659  -1.08528  -1.06856
 Alpha  occ. eigenvalues --   -1.06310  -0.95225  -0.93704  -0.92788  -0.90188
 Alpha  occ. eigenvalues --   -0.89471  -0.88922  -0.88797  -0.86448  -0.86094
 Alpha  occ. eigenvalues --   -0.79293  -0.74690  -0.74361  -0.72284  -0.69439
 Alpha  occ. eigenvalues --   -0.67870  -0.67399  -0.66956  -0.66342  -0.65896
 Alpha  occ. eigenvalues --   -0.65637  -0.64643
 Alpha virt. eigenvalues --   -0.27762  -0.26134  -0.25247  -0.08352  -0.07993
 Alpha virt. eigenvalues --   -0.03672  -0.02109   0.02734   0.03025   0.03831
 Alpha virt. eigenvalues --    0.09514   0.11693   0.12025   0.21381   0.22578
 Alpha virt. eigenvalues --    0.24509   0.27588   0.30393   0.31191   0.34495
 Alpha virt. eigenvalues --    0.35312   0.35605   0.44932   0.45747   0.46354
 Alpha virt. eigenvalues --    0.54944   0.55399   0.55592   0.57326   0.57393
 Alpha virt. eigenvalues --    0.57641   0.58557   0.68054   0.69349   0.69779
 Alpha virt. eigenvalues --    0.73777   0.75778   0.76286   0.76563   0.77705
 Alpha virt. eigenvalues --    0.78026   0.78817   0.83246   0.84263   0.85329
 Alpha virt. eigenvalues --    0.87297   0.88595   0.91007   0.91835   0.92542
 Alpha virt. eigenvalues --    0.96974   0.98124   0.99354   0.99776   1.05999
 Alpha virt. eigenvalues --    1.06481   1.15066   1.19364   1.20082   1.28158
 Alpha virt. eigenvalues --    1.28368   1.29148   1.49180   1.49389   1.52780
 Alpha virt. eigenvalues --    1.57886   1.58273   1.58591   1.59895   1.61116
 Alpha virt. eigenvalues --    1.68784   1.83092   1.83365   1.93271   1.95691
 Alpha virt. eigenvalues --    1.96135   2.10938   2.12283   2.12636   2.16320
 Alpha virt. eigenvalues --    2.18962   2.19719   2.27789   2.28611   2.30448
 Alpha virt. eigenvalues --    2.35393   2.38612   2.38905   2.40362   2.42652
 Alpha virt. eigenvalues --    2.44543   2.44946   2.46689   2.49597   2.49964
 Alpha virt. eigenvalues --    2.50522   2.56030   2.57987   2.62513   2.63470
 Alpha virt. eigenvalues --    2.85637   2.88137   2.89065   2.97269   3.01363
 Alpha virt. eigenvalues --    3.02670   3.13281   3.15293   3.15783   3.20234
 Alpha virt. eigenvalues --    3.24900   3.26288   3.52851   3.54895   3.56990
 Alpha virt. eigenvalues --    3.62015   3.64430   3.65248
  Beta  occ. eigenvalues --  -19.61567 -19.58354 -19.57772 -19.56841 -19.56659
  Beta  occ. eigenvalues --  -19.56317 -14.97781 -14.95980 -14.95465 -10.72019
  Beta  occ. eigenvalues --  -10.54081  -1.64174  -1.61613  -1.60555  -1.46161
  Beta  occ. eigenvalues --   -1.43932  -1.43644  -1.26058  -1.07093  -1.06331
  Beta  occ. eigenvalues --   -1.06194  -0.94041  -0.93209  -0.92185  -0.89724
  Beta  occ. eigenvalues --   -0.88919  -0.88429  -0.87706  -0.85618  -0.85478
  Beta  occ. eigenvalues --   -0.78609  -0.74155  -0.73930  -0.68666  -0.67169
  Beta  occ. eigenvalues --   -0.66012  -0.65694  -0.65252  -0.63481  -0.63299
  Beta  occ. eigenvalues --   -0.62582
  Beta virt. eigenvalues --   -0.46070  -0.27499  -0.25739  -0.24877  -0.07717
  Beta virt. eigenvalues --   -0.07546  -0.03188  -0.02076   0.02832   0.03117
  Beta virt. eigenvalues --    0.04070   0.10256   0.12160   0.12476   0.21963
  Beta virt. eigenvalues --    0.23005   0.24874   0.27837   0.30642   0.31449
  Beta virt. eigenvalues --    0.34617   0.35701   0.35806   0.45380   0.46004
  Beta virt. eigenvalues --    0.46499   0.55023   0.55607   0.55726   0.57431
  Beta virt. eigenvalues --    0.57592   0.57842   0.59049   0.68190   0.69533
  Beta virt. eigenvalues --    0.69920   0.74636   0.76286   0.76594   0.76857
  Beta virt. eigenvalues --    0.78013   0.78284   0.79079   0.83972   0.84639
  Beta virt. eigenvalues --    0.86294   0.87645   0.89040   0.91832   0.92304
  Beta virt. eigenvalues --    0.92666   0.97234   0.98707   0.99696   1.00120
  Beta virt. eigenvalues --    1.06484   1.06991   1.15552   1.19751   1.20440
  Beta virt. eigenvalues --    1.28614   1.28719   1.29423   1.49462   1.49574
  Beta virt. eigenvalues --    1.53114   1.58206   1.58628   1.58894   1.60024
  Beta virt. eigenvalues --    1.61206   1.68940   1.83291   1.83563   1.93428
  Beta virt. eigenvalues --    1.95895   1.96259   2.11387   2.12602   2.12845
  Beta virt. eigenvalues --    2.16842   2.19682   2.20273   2.28199   2.28983
  Beta virt. eigenvalues --    2.31202   2.35775   2.39805   2.40447   2.42186
  Beta virt. eigenvalues --    2.43530   2.45532   2.46219   2.47505   2.50258
  Beta virt. eigenvalues --    2.51032   2.51198   2.56899   2.58684   2.63363
  Beta virt. eigenvalues --    2.64094   2.86047   2.88458   2.89394   2.98292
  Beta virt. eigenvalues --    3.02227   3.03321   3.13617   3.15616   3.16016
  Beta virt. eigenvalues --    3.21022   3.25659   3.26940   3.53526   3.55337
  Beta virt. eigenvalues --    3.57486   3.62806   3.64983   3.65661
          Condensed to atoms (all electrons):
          Atomic-Atomic Spin Densities.
 Mulliken charges and spin densities:
               1          2
     1  C   -0.245317  -0.001912
     2  C    0.083359   0.044332
     3  N    0.246783  -0.004202
     4  O    0.032480   0.462089
     5  O   -0.058608  -0.032011
     6  N    0.248793  -0.026967
     7  O   -0.072700   0.127390
     8  O   -0.059796   0.149437
     9  N    0.247604  -0.002925
    10  O   -0.073671   0.053053
    11  O   -0.040251   0.231344
    12  H    0.226115   0.000627
    13  H    0.234228   0.000533
    14  H    0.230980  -0.000787
 Sum of Mulliken charges =   1.00000   1.00000
 Mulliken charges and spin densities with hydrogens summed into heavy atoms:
               1          2
     1  C    0.446006  -0.001539
     2  C    0.083359   0.044332
     3  N    0.246783  -0.004202
     4  O    0.032480   0.462089
     5  O   -0.058608  -0.032011
     6  N    0.248793  -0.026967
     7  O   -0.072700   0.127390
     8  O   -0.059796   0.149437
     9  N    0.247604  -0.002925
    10  O   -0.073671   0.053053
    11  O   -0.040251   0.231344
 APT charges:
               1
     1  C    0.284230
     2  C   -1.293843
     3  N   -0.194658
     4  O    0.729153
     5  O   -0.014529
     6  N    0.648050
     7  O   -0.009004
     8  O   -0.255869
     9  N    1.485562
    10  O   -0.481341
    11  O   -0.113948
    12  H    0.088276
    13  H    0.072982
    14  H    0.054939
 Sum of APT charges =   1.00000
 APT charges with hydrogens summed into heavy atoms:
               1
     1  C    0.500428
     2  C   -1.293843
     3  N   -0.194658
     4  O    0.729153
     5  O   -0.014529
     6  N    0.648050
     7  O   -0.009004
     8  O   -0.255869
     9  N    1.485562
    10  O   -0.481341
    11  O   -0.113948
 Electronic spatial extent (au):  <R**2>=           1263.0568
 Charge=              1.0000 electrons
 Dipole moment (field-independent basis, Debye):
    X=             -0.8038    Y=             -0.5255    Z=              3.4929  Tot=              3.6225
  Exact polarizability: 198.849  17.854 162.540 -23.519 -11.796  67.063
 Approx polarizability: 152.862  17.833 125.399 -16.525  -9.227  96.979
                          Isotropic Fermi Contact Couplings
        Atom                 a.u.       MegaHertz       Gauss      10(-4) cm-1
     1  C(13)             -0.00576      -6.47195      -2.30935      -2.15881
     2  C(13)             -0.05925     -66.60813     -23.76744     -22.21808
     3  N(14)             -0.02409      -7.78301      -2.77717      -2.59613
     4  O(17)              0.15297     -92.72816     -33.08771     -30.93078
     5  O(17)             -0.03515      21.30924       7.60367       7.10800
     6  N(14)             -0.02140      -6.91376      -2.46700      -2.30618
     7  O(17)              0.03630     -22.00198      -7.85085      -7.33907
     8  O(17)              0.04645     -28.15816     -10.04753      -9.39255
     9  N(14)             -0.02607      -8.42249      -3.00535      -2.80944
    10  O(17)              0.00259      -1.57305      -0.56130      -0.52471
    11  O(17)              0.07136     -43.25830     -15.43564     -14.42942
    12  H(1)              -0.00004      -0.15983      -0.05703      -0.05331
    13  H(1)               0.00016       0.71799       0.25620       0.23950
    14  H(1)              -0.00035      -1.55878      -0.55621      -0.51995
 --------------------------------------------------------
       Center         ----  Spin Dipole Couplings  ----
                      3XX-RR        3YY-RR        3ZZ-RR
 --------------------------------------------------------
     1   Atom        0.000909     -0.002275      0.001366
     2   Atom        0.173281     -0.081384     -0.091896
     3   Atom        0.038218      0.003154     -0.041372
     4   Atom       -0.268298      0.201965      0.066333
     5   Atom       -0.008211     -0.051551      0.059762
     6   Atom       -0.007146      0.013349     -0.006203
     7   Atom       -0.273664      0.545965     -0.272301
     8   Atom        0.182524     -0.050302     -0.132221
     9   Atom        0.049401     -0.021013     -0.028388
    10   Atom       -0.000482      0.065913     -0.065431
    11   Atom        0.604302     -0.211442     -0.392859
    12   Atom       -0.002861     -0.002248      0.005109
    13   Atom       -0.001913     -0.001775      0.003688
    14   Atom        0.000902     -0.003594      0.002693
 --------------------------------------------------------
                        XY            XZ            YZ
 --------------------------------------------------------
     1   Atom        0.002717      0.001556      0.000378
     2   Atom        0.079084     -0.002231     -0.014851
     3   Atom        0.056461      0.010184      0.017676
     4   Atom        0.756619      0.843661      0.787502
     5   Atom        0.079774     -0.067974      0.263497
     6   Atom        0.010067      0.031784      0.002853
     7   Atom       -0.000686      0.025546      0.223361
     8   Atom       -0.386217      0.280878     -0.194106
     9   Atom       -0.032075     -0.051872     -0.004926
    10   Atom       -0.247901     -0.150394      0.117214
    11   Atom       -0.491227     -0.216637      0.158649
    12   Atom        0.003459      0.002768      0.004140
    13   Atom        0.000214      0.001821     -0.000070
    14   Atom       -0.000335      0.002365     -0.002212
 --------------------------------------------------------


 ---------------------------------------------------------------------------------
              Anisotropic Spin Dipole Couplings in Principal Axis System
 ---------------------------------------------------------------------------------

       Atom             a.u.   MegaHertz   Gauss  10(-4) cm-1        Axes

              Baa    -0.0039    -0.520    -0.185    -0.173 -0.5142  0.8528  0.0912
     1 C(13)  Bbb     0.0003     0.042     0.015     0.014 -0.4593 -0.3636  0.8104
              Bcc     0.0036     0.477     0.170     0.159  0.7243  0.3748  0.5787
 
              Baa    -0.1129   -15.149    -5.406    -5.053 -0.2189  0.8075  0.5478
     2 C(13)  Bbb    -0.0831   -11.149    -3.978    -3.719  0.1682 -0.5218  0.8363
              Bcc     0.1960    26.298     9.384     8.772  0.9611  0.2752 -0.0216
 
              Baa    -0.0499    -1.925    -0.687    -0.642  0.2485 -0.5337  0.8084
     3 N(14)  Bbb    -0.0327    -1.262    -0.450    -0.421 -0.5604  0.6015  0.5693
              Bcc     0.0826     3.187     1.137     1.063  0.7900  0.5945  0.1496
 
              Baa    -0.9757    70.600    25.192    23.550  0.8245 -0.1685 -0.5402
     4 O(17)  Bbb    -0.6298    45.568    16.260    15.200 -0.2309  0.7714 -0.5929
              Bcc     1.6054  -116.168   -41.452   -38.750  0.5166  0.6136  0.5971
 
              Baa    -0.3025    21.889     7.811     7.301 -0.3354  0.7308 -0.5945
     5 O(17)  Bbb     0.0291    -2.103    -0.751    -0.702  0.9420  0.2667 -0.2036
              Bcc     0.2734   -19.786    -7.060    -6.600 -0.0098  0.6283  0.7779
 
              Baa    -0.0390    -1.504    -0.537    -0.502  0.7187 -0.1007 -0.6880
     6 N(14)  Bbb     0.0088     0.341     0.122     0.114 -0.2731  0.8690 -0.4126
              Bcc     0.0302     1.163     0.415     0.388  0.6395  0.4844  0.5970
 
              Baa    -0.3388    24.518     8.749     8.178 -0.3573 -0.2289  0.9055
     7 O(17)  Bbb    -0.2642    19.115     6.821     6.376  0.9340 -0.0943  0.3447
              Bcc     0.6030   -43.633   -15.569   -14.554  0.0065  0.9689  0.2474
 
              Baa    -0.3394    24.561     8.764     8.193  0.6462  0.7413 -0.1815
     8 O(17)  Bbb    -0.2841    20.560     7.336     6.858 -0.2072  0.3992  0.8931
              Bcc     0.6236   -45.121   -16.100   -15.051  0.7345 -0.5395  0.4115
 
              Baa    -0.0637    -2.456    -0.876    -0.819  0.4746  0.4445  0.7597
     9 N(14)  Bbb    -0.0186    -0.718    -0.256    -0.240  0.0147  0.8590 -0.5118
              Bcc     0.0823     3.174     1.133     1.059  0.8801 -0.2541 -0.4011
 
              Baa    -0.2307    16.697     5.958     5.569  0.7828  0.5178  0.3450
    10 O(17)  Bbb    -0.1340     9.697     3.460     3.234 -0.0246 -0.5282  0.8488
              Bcc     0.3648   -26.394    -9.418    -8.804 -0.6218  0.6729  0.4007
 
              Baa    -0.4951    35.827    12.784    11.951 -0.1657 -0.6842  0.7102
    11 O(17)  Bbb    -0.3940    28.512    10.174     9.511  0.4386  0.5939  0.6745
              Bcc     0.8892   -64.339   -22.958   -21.461  0.8833 -0.4233 -0.2016
 
              Baa    -0.0061    -3.255    -1.161    -1.086 -0.6868  0.7205 -0.0965
    12 H(1)   Bbb    -0.0023    -1.222    -0.436    -0.408  0.6430  0.5402 -0.5428
              Bcc     0.0084     4.477     1.598     1.494  0.3390  0.4348  0.8343
 
              Baa    -0.0025    -1.345    -0.480    -0.449  0.9180 -0.2883 -0.2724
    13 H(1)   Bbb    -0.0017    -0.911    -0.325    -0.304  0.2767  0.9575 -0.0810
              Bcc     0.0042     2.256     0.805     0.752  0.2842 -0.0010  0.9588
 
              Baa    -0.0043    -2.310    -0.824    -0.770 -0.0870  0.9414  0.3259
    14 H(1)   Bbb    -0.0005    -0.260    -0.093    -0.087  0.8515  0.2401 -0.4662
              Bcc     0.0048     2.570     0.917     0.857  0.5171 -0.2369  0.8225
 

 ---------------------------------------------------------------------------------

   1 Symmetry operations used in ECPInt.
 ECPInt:  NShTT=    2628 NPrTT=   10592 LenC2=    2581 LenP2D=    7847.
 LDataN:  DoStor=T MaxTD1= 6 Len=  172
 Calling FoFJK, ICntrl=    100127 FMM=F ISym2X=0 I1Cent= 0 IOpClX= 1 NMat=1 NMatS=1 NMatT=0.
 FormGI is forming the generalized inverse of G from B-inverse, IUseBI=4.

 GradGradGradGradGradGradGradGradGradGradGradGradGradGradGradGradGradGrad
 Internal  Forces:  Max     0.019506943 RMS     0.006482066
 Step number   1 out of a maximum of   71
 All quantities printed in internal units (Hartrees-Bohrs-Radians)
 Mixed Optimization -- RFO/linear search
 Second derivative matrix not updated -- analytic derivatives used.
 ITU=  0
     Eigenvalues ---   -0.00586  -0.00482   0.00330   0.00574   0.00677
     Eigenvalues ---    0.03631   0.04032   0.04601   0.05273   0.06577
     Eigenvalues ---    0.06812   0.07159   0.07435   0.10832   0.12432
     Eigenvalues ---    0.13297   0.15022   0.15947   0.16257   0.18777
     Eigenvalues ---    0.19308   0.23278   0.27395   0.30945   0.32288
     Eigenvalues ---    0.35355   0.35506   0.35537   0.36312   0.49617
     Eigenvalues ---    0.57771   0.64814   0.89139   0.89771   0.90629
     Eigenvalues ---    1.13314
 Linear search not attempted -- first point.
 Maximum step size (   0.300) exceeded in Quadratic search.
    -- Step size scaled by   0.319
 Iteration  1 RMS(Cart)=  0.04407017 RMS(Int)=  0.00183805
 Iteration  2 RMS(Cart)=  0.00190474 RMS(Int)=  0.00015715
 Iteration  3 RMS(Cart)=  0.00000191 RMS(Int)=  0.00015714
 Iteration  4 RMS(Cart)=  0.00000000 RMS(Int)=  0.00015714
 Variable       Old X    -DE/DX   Delta X   Delta X   Delta X     New X
                                 (Linear)    (Quad)   (Total)
    R1        2.83688   0.00460   0.00000  -0.02026  -0.02026   2.81662
    R2        2.07793   0.00112   0.00000   0.00179   0.00179   2.07972
    R3        2.07792   0.00106   0.00000   0.00276   0.00276   2.08068
    R4        2.07796   0.00153   0.00000   0.00088   0.00088   2.07884
    R5        2.88503   0.01728   0.00000   0.19187   0.19187   3.07690
    R6        2.88498  -0.00014   0.00000  -0.06218  -0.06218   2.82279
    R7        2.88496   0.01785   0.00000   0.05578   0.05578   2.94074
    R8        2.27298   0.00651   0.00000  -0.05201  -0.05201   2.22097
    R9        2.26869  -0.01951   0.00000  -0.01919  -0.01919   2.24949
   R10        2.26867   0.00101   0.00000   0.00843   0.00843   2.27710
   R11        2.27299  -0.01002   0.00000  -0.00410  -0.00410   2.26889
   R12        2.27299  -0.01604   0.00000  -0.00355  -0.00355   2.26943
   R13        2.26868  -0.00102   0.00000  -0.02078  -0.02078   2.24790
    A1        1.90476   0.00233   0.00000   0.00202   0.00201   1.90677
    A2        1.90469  -0.00007   0.00000   0.00720   0.00719   1.91188
    A3        1.90459   0.00074   0.00000   0.00018   0.00018   1.90477
    A4        1.91652  -0.00149   0.00000  -0.00051  -0.00054   1.91599
    A5        1.91664  -0.00070   0.00000  -0.00103  -0.00103   1.91561
    A6        1.91648  -0.00078   0.00000  -0.00773  -0.00773   1.90875
    A7        1.95639   0.00530   0.00000  -0.01235  -0.01205   1.94434
    A8        1.95644   0.00038   0.00000   0.02350   0.02337   1.97982
    A9        1.95637   0.00137   0.00000   0.03089   0.03068   1.98704
   A10        1.86274  -0.00257   0.00000  -0.00459  -0.00476   1.85798
   A11        1.86273  -0.00632   0.00000  -0.03003  -0.03000   1.83272
   A12        1.86271   0.00119   0.00000  -0.01127  -0.01200   1.85071
   A13        2.00523  -0.01543   0.00000  -0.08179  -0.08180   1.92343
   A14        2.04339   0.00644   0.00000  -0.06535  -0.06535   1.97804
   A15        2.23448   0.00899   0.00000   0.14723   0.14722   2.38170
   A16        2.04344  -0.00047   0.00000   0.01185   0.01184   2.05528
   A17        2.00518   0.00454   0.00000   0.02379   0.02379   2.02896
   A18        2.23448  -0.00408   0.00000  -0.03573  -0.03574   2.19874
   A19        2.00521  -0.00363   0.00000  -0.03988  -0.03988   1.96532
   A20        2.04338  -0.01408   0.00000  -0.00944  -0.00944   2.03394
   A21        2.23451   0.01772   0.00000   0.04939   0.04938   2.28390
    D1       -1.05940  -0.00219   0.00000  -0.02044  -0.02044  -1.07984
    D2        1.03504  -0.00151   0.00000  -0.01852  -0.01877   1.01626
    D3        3.12942   0.00125   0.00000   0.00521   0.00549   3.13490
    D4        3.12936  -0.00174   0.00000  -0.02535  -0.02536   3.10400
    D5       -1.05938  -0.00106   0.00000  -0.02343  -0.02370  -1.08308
    D6        1.03499   0.00170   0.00000   0.00030   0.00056   1.03556
    D7        1.03510  -0.00120   0.00000  -0.02037  -0.02037   1.01472
    D8        3.12954  -0.00052   0.00000  -0.01845  -0.01871   3.11083
    D9       -1.05927   0.00224   0.00000   0.00528   0.00555  -1.05372
   D10        0.75444   0.00085   0.00000   0.00443   0.00430   0.75874
   D11       -2.40010   0.00060   0.00000   0.01215   0.01201  -2.38808
   D12       -1.39381  -0.00118   0.00000  -0.01404  -0.01404  -1.40785
   D13        1.73483  -0.00143   0.00000  -0.00632  -0.00633   1.72850
   D14        2.90259   0.00156   0.00000   0.01480   0.01493   2.91753
   D15       -0.25195   0.00131   0.00000   0.02251   0.02265  -0.22930
   D16       -2.39953  -0.00103   0.00000   0.09220   0.09206  -2.30746
   D17        0.75508  -0.00053   0.00000   0.09944   0.09931   0.85439
   D18       -0.25130   0.00406   0.00000   0.08832   0.08832  -0.16298
   D19        2.90330   0.00457   0.00000   0.09557   0.09557   2.99887
   D20        1.73549  -0.00378   0.00000   0.04672   0.04686   1.78235
   D21       -1.39309  -0.00327   0.00000   0.05397   0.05410  -1.33899
   D22        0.75350  -0.00074   0.00000  -0.07283  -0.07289   0.68060
   D23       -2.40117   0.00037   0.00000  -0.06705  -0.06711  -2.46828
   D24       -1.39467  -0.00391   0.00000  -0.05626  -0.05600  -1.45067
   D25        1.73385  -0.00280   0.00000  -0.05047  -0.05022   1.68363
   D26        2.90171   0.00139   0.00000  -0.03196  -0.03216   2.86955
   D27       -0.25296   0.00250   0.00000  -0.02618  -0.02638  -0.27933
         Item               Value     Threshold  Converged?
 Maximum Force            0.019507     0.000015     NO 
 RMS     Force            0.006482     0.000010     NO 
 Maximum Displacement     0.123599     0.000060     NO 
 RMS     Displacement     0.043882     0.000040     NO 
 GradGradGradGradGradGradGradGradGradGradGradGradGradGradGradGradGradGrad

                    Distance matrix (angstroms):
                    1          2          3          4          5
     1  C    0.000000
     2  C    1.490491   0.000000
     3  N    2.577573   1.628224   0.000000
     4  O    2.750829   2.313924   1.175286   0.000000
     5  O    3.510201   2.367166   1.190380   2.196965   0.000000
     6  N    2.494761   1.493759   2.502053   2.965509   3.178594
     7  O    3.460812   2.315165   2.573048   2.922627   3.094466
     8  O    2.819122   2.293335   3.620355   4.023097   4.296253
     9  N    2.553213   1.556172   2.526856   3.556417   2.552937
    10  O    2.757704   2.302299   3.038955   3.998081   2.980593
    11  O    3.535077   2.343221   3.206096   4.278250   3.016340
    12  H    1.100543   2.124703   2.807604   2.515044   3.930535
    13  H    1.101050   2.128804   3.540554   3.803616   4.374396
    14  H    1.100077   2.122896   2.773848   2.965018   3.542381
                    6          7          8          9         10
     6  N    0.000000
     7  O    1.204988   0.000000
     8  O    1.200645   2.143230   0.000000
     9  N    2.436676   3.196618   2.946541   0.000000
    10  O    3.501928   4.304338   3.941548   1.200932   0.000000
    11  O    2.551044   3.097338   2.930316   1.189537   2.174006
    12  H    2.729125   3.491910   3.073764   3.496551   3.806101
    13  H    2.763850   3.907061   2.608450   2.790361   2.976371
    14  H    3.432908   4.312848   3.852452   2.792011   2.528883
                   11         12         13         14
    11  O    0.000000
    12  H    4.383335   0.000000
    13  H    3.624883   1.800990   0.000000
    14  H    3.939827   1.799957   1.796016   0.000000
 Framework group  C1[X(C2H3N3O6)]
 Deg. of freedom    36
                         Standard orientation:                         
 ---------------------------------------------------------------------
 Center     Atomic      Atomic             Coordinates (Angstroms)
 Number     Number       Type             X           Y           Z
 ---------------------------------------------------------------------
      1          6           0       -0.029532    0.023922    1.923387
      2          6           0        0.013105    0.022119    0.433507
      3          7           0       -1.432041   -0.376730   -0.201778
      4          8           0       -2.294543    0.180239    0.370214
      5          8           0       -1.352410   -1.138324   -1.113171
      6          7           0        0.381761    1.346030   -0.151872
      7          8           0       -0.297083    1.769999   -1.052659
      8          8           0        1.350991    1.880860    0.312989
      9          7           0        1.014698   -1.006964   -0.166052
     10          8           0        1.026160   -2.045315    0.437218
     11          8           0        1.625330   -0.657463   -1.125205
     12          1           0       -0.752903    0.779831    2.264754
     13          1           0        0.970258    0.259056    2.320177
     14          1           0       -0.337274   -0.971443    2.276536
 ---------------------------------------------------------------------
 Rotational constants (GHZ):           1.3547465           1.3367428           1.0210528
   160 basis functions,   287 primitive gaussians,   171 cartesian basis functions
    42 alpha electrons       41 beta electrons
       nuclear repulsion energy       705.2952256405 Hartrees.
 NAtoms=   14 NActive=   14 NUniq=   14 SFac= 1.00D+00 NAtFMM=   60 NAOKFM=F Big=F
 Nuclear repulsion after empirical dispersion term =      705.2877783813 Hartrees.
   1 Symmetry operations used in ECPInt.
 ECPInt:  NShTT=    2628 NPrTT=   10592 LenC2=    2581 LenP2D=    7843.
 LDataN:  DoStor=T MaxTD1= 4 Len=   56
 Initial guess from the checkpoint file:  "43.chk"
 B after Tr=     0.000000    0.000000   -0.000000
         Rot=    0.972733    0.004049    0.001492    0.231888 Ang=  26.82 deg.
 Initial guess <Sx>= 0.0000 <Sy>= 0.0000 <Sz>= 0.5000 <S**2>= 0.7654 S= 0.5076
 ExpMin= 1.22D-01 ExpMax= 2.27D+03 ExpMxC= 3.41D+02 IAcc=3 IRadAn=         5 AccDes= 0.00D+00
 Harris functional with IExCor= 4639 and IRadAn=       5 diagonalized for initial guess.
 HarFok:  IExCor= 4639 AccDes= 0.00D+00 IRadAn=         5 IDoV= 1 UseB2=F ITyADJ=14
 ICtDFT=  3500011 ScaDFX=  1.000000  1.000000  1.000000  1.000000
 FoFCou: FMM=F IPFlag=           0 FMFlag=      100000 FMFlg1=           0
         NFxFlg=           0 DoJE=T BraDBF=F KetDBF=T FulRan=T
         wScrn=  0.000000 ICntrl=       500 IOpCl=  0 I1Cent=   200000004 NGrid=           0
         NMat0=    1 NMatS0=      1 NMatT0=    0 NMatD0=    1 NMtDS0=    0 NMtDT0=    0
 Petite list used in FoFCou.
     Minimum is close to point  4 DX=  9.70D-02 DF= -9.79D-05 DXR=  7.48D-02 DFR=  5.62D-03 which will be used.
     Accept linear search using points  2 and  3.
     Accept linear search using points  1 and  2.
     Minimum is close to point  2 DX= -6.83D-02 DF= -1.07D-05 DXR=  6.62D-02 DFR=  5.15D-03 which will be used.
     Accept linear search using points  1 and  2.
     Accept linear search using points  1 and  2.
     Accept linear search using points  1 and  2.
     Accept linear search using points  1 and  2.
     Accept linear search using points  1 and  2.
     Accept linear search using points  1 and  2.
     Accept linear search using points  1 and  2.
     Accept linear search using points  1 and  2.
     Accept linear search using points  1 and  2.
     Accept linear search using points  1 and  2.
     Accept linear search using points  1 and  2.
     Accept linear search using points  1 and  2.
     Accept linear search using points  1 and  2.
     Accept linear search using points  1 and  2.
     Accept linear search using points  1 and  2.
     Minimum is close to point  2 DX= -3.83D-02 DF= -2.58D-06 DXR=  3.98D-02 DFR=  1.67D-03 which will be used.
     Minimum is close to point  2 DX=  1.18D-02 DF= -3.51D-09 DXR=  1.17D-02 DFR=  1.36D-04 which will be used.
 SCF Done:  E(UwB97XD) =  -692.101669732     a.u. after   35 cycles
            Convg  =    0.7260D-06                   155 Fock formations.
              S**2 =  0.7586                  -V/T =  2.0060
 <Sx>= 0.0000 <Sy>= 0.0000 <Sz>= 0.5000 <S**2>= 0.7586 S= 0.5043
 <L.S>=  0.00000000000    
 Annihilation of the first spin contaminant:
 S**2 before annihilation     0.7586,   after     0.7501
 DoSCS=F DFT=T ScalE2(SS,OS)=  1.000000  1.000000
 NROrb=    160 NOA=    42 NOB=    41 NVA=   118 NVB=   119
   1 Symmetry operations used in ECPInt.
 ECPInt:  NShTT=    2628 NPrTT=   10592 LenC2=    2581 LenP2D=    7843.
 LDataN:  DoStor=T MaxTD1= 5 Len=  102
 Symmetrizing basis deriv contribution to polar:
 IMax=3 JMax=2 DiffMx= 0.00D+00
 Calling FoFCou, ICntrl=  3107 FMM=F I1Cent=   0 AccDes= 0.00D+00.
 End of G2Drv F.D. properties file   721 does not exist.
 End of G2Drv F.D. properties file   722 does not exist.
 End of G2Drv F.D. properties file   788 does not exist.
          IDoAtm=11111111111111
 End of Minotr F.D. properties file   721 does not exist.
 End of Minotr F.D. properties file   722 does not exist.
 End of Minotr F.D. properties file   788 does not exist.
   1 Symmetry operations used in ECPInt.
 ECPInt:  NShTT=    2628 NPrTT=   10592 LenC2=    2581 LenP2D=    7843.
 LDataN:  DoStor=T MaxTD1= 6 Len=  172
 Calling FoFJK, ICntrl=    100127 FMM=F ISym2X=0 I1Cent= 0 IOpClX= 1 NMat=1 NMatS=1 NMatT=0.
 FormGI is forming the generalized inverse of G from B-inverse, IUseBI=4.

 GradGradGradGradGradGradGradGradGradGradGradGradGradGradGradGradGradGrad
 Using GEDIIS/GDIIS optimizer.
 Internal  Forces:  Max     0.017850102 RMS     0.004986361
 Step number   2 out of a maximum of   71
 All quantities printed in internal units (Hartrees-Bohrs-Radians)
 Mixed Optimization -- RFO/linear search
 Second derivative matrix not updated -- analytic derivatives used.
 Trust test= 7.32D-01 RLast= 3.88D-01 DXMaxT set to 5.05D-01
 ITU=  1  0
 Use linear search instead of GDIIS.
     Eigenvalues ---   -0.21704  -0.00053   0.00094   0.00361   0.00833
     Eigenvalues ---    0.01597   0.03702   0.04333   0.04689   0.06797
     Eigenvalues ---    0.07124   0.07956   0.08210   0.09426   0.12361
     Eigenvalues ---    0.13007   0.14217   0.14348   0.16292   0.17295
     Eigenvalues ---    0.18323   0.22076   0.24843   0.31045   0.33350
     Eigenvalues ---    0.34661   0.35106   0.35300   0.35475   0.37921
     Eigenvalues ---    0.62892   0.69678   0.73476   0.91438   0.93467
     Eigenvalues ---    0.97923
 Quintic linear search produced a step of  0.17322.
 Maximum step size (   0.505) exceeded in Quadratic search.
    -- Step size not scaled.
 Iteration  1 RMS(Cart)=  0.07866080 RMS(Int)=  0.01515605
 Iteration  2 RMS(Cart)=  0.02858449 RMS(Int)=  0.00111894
 Iteration  3 RMS(Cart)=  0.00094785 RMS(Int)=  0.00054934
 Iteration  4 RMS(Cart)=  0.00000044 RMS(Int)=  0.00054934
 Variable       Old X    -DE/DX   Delta X   Delta X   Delta X     New X
                                 (Linear)    (Quad)   (Total)
    R1        2.81662   0.00370  -0.00351  -0.00124  -0.00475   2.81187
    R2        2.07972   0.00100   0.00031   0.00043   0.00074   2.08046
    R3        2.08068   0.00127   0.00048  -0.00772  -0.00724   2.07344
    R4        2.07884   0.00137   0.00015   0.00489   0.00504   2.08389
    R5        3.07690   0.01785   0.03324   0.05095   0.08419   3.16109
    R6        2.82279   0.00281  -0.01077   0.03543   0.02466   2.84745
    R7        2.94074   0.01075   0.00966  -0.07691  -0.06725   2.87349
    R8        2.22097   0.01408  -0.00901  -0.02494  -0.03395   2.18702
    R9        2.24949  -0.01360  -0.00332  -0.00704  -0.01036   2.23913
   R10        2.27710  -0.00189   0.00146  -0.15231  -0.15085   2.12625
   R11        2.26889  -0.00516  -0.00071   0.13375   0.13304   2.40193
   R12        2.26943  -0.01045  -0.00062  -0.02322  -0.02383   2.24560
   R13        2.24790   0.00335  -0.00360   0.06256   0.05896   2.30686
    A1        1.90677   0.00253   0.00035   0.00154   0.00165   1.90842
    A2        1.91188  -0.00185   0.00124   0.03517   0.03634   1.94822
    A3        1.90477   0.00153   0.00003  -0.02314  -0.02299   1.88178
    A4        1.91599  -0.00105  -0.00009   0.00202   0.00155   1.91753
    A5        1.91561  -0.00065  -0.00018   0.00509   0.00486   1.92047
    A6        1.90875  -0.00049  -0.00134  -0.02068  -0.02175   1.88700
    A7        1.94434   0.00308  -0.00209   0.02812   0.02716   1.97150
    A8        1.97982   0.00147   0.00405   0.05745   0.06199   2.04181
    A9        1.98704  -0.00042   0.00531  -0.06395  -0.05988   1.92717
   A10        1.85798  -0.00353  -0.00082  -0.10405  -0.10464   1.75334
   A11        1.83272  -0.00329  -0.00520   0.02988   0.02579   1.85851
   A12        1.85071   0.00210  -0.00208   0.04773   0.04626   1.89697
   A13        1.92343   0.00126  -0.01417   0.00283  -0.01135   1.91208
   A14        1.97804   0.01016  -0.01132  -0.05227  -0.06361   1.91443
   A15        2.38170  -0.01143   0.02550   0.04949   0.07497   2.45667
   A16        2.05528  -0.00343   0.00205   0.26782   0.26981   2.32509
   A17        2.02896  -0.00297   0.00412  -0.27785  -0.27379   1.75517
   A18        2.19874   0.00639  -0.00619   0.00957   0.00331   2.20205
   A19        1.96532   0.00258  -0.00691   0.12038   0.11342   2.07874
   A20        2.03394  -0.00802  -0.00164  -0.06954  -0.07123   1.96271
   A21        2.28390   0.00544   0.00855  -0.05098  -0.04248   2.24142
    D1       -1.07984  -0.00149  -0.00354   0.04452   0.04089  -1.03896
    D2        1.01626  -0.00279  -0.00325  -0.02956  -0.03221   0.98406
    D3        3.13490   0.00085   0.00095   0.02970   0.03041  -3.11787
    D4        3.10400  -0.00062  -0.00439   0.01959   0.01483   3.11883
    D5       -1.08308  -0.00192  -0.00410  -0.05450  -0.05826  -1.14134
    D6        1.03556   0.00171   0.00010   0.00477   0.00436   1.03992
    D7        1.01472   0.00017  -0.00353   0.03768   0.03406   1.04878
    D8        3.11083  -0.00113  -0.00324  -0.03640  -0.03904   3.07179
    D9       -1.05372   0.00250   0.00096   0.02286   0.02358  -1.03014
   D10        0.75874   0.00068   0.00074  -0.02758  -0.02674   0.73200
   D11       -2.38808   0.00091   0.00208  -0.02047  -0.01830  -2.40638
   D12       -1.40785  -0.00068  -0.00243  -0.04631  -0.04887  -1.45673
   D13        1.72850  -0.00045  -0.00110  -0.03919  -0.04043   1.68808
   D14        2.91753  -0.00018   0.00259  -0.06993  -0.06731   2.85022
   D15       -0.22930   0.00005   0.00392  -0.06282  -0.05886  -0.28816
   D16       -2.30746   0.00008   0.01595   0.06146   0.07909  -2.22837
   D17        0.85439   0.00051   0.01720   0.08427   0.10316   0.95754
   D18       -0.16298   0.00239   0.01530   0.05961   0.07481  -0.08817
   D19        2.99887   0.00282   0.01655   0.08243   0.09887   3.09774
   D20        1.78235  -0.00191   0.00812   0.06958   0.07612   1.85847
   D21       -1.33899  -0.00148   0.00937   0.09239   0.10019  -1.23880
   D22        0.68060  -0.00148  -0.01263  -0.08490  -0.09707   0.58354
   D23       -2.46828  -0.00123  -0.01162  -0.10332  -0.11449  -2.58277
   D24       -1.45067  -0.00279  -0.00970  -0.10252  -0.11205  -1.56272
   D25        1.68363  -0.00254  -0.00870  -0.12094  -0.12947   1.55416
   D26        2.86955   0.00169  -0.00557  -0.01832  -0.02452   2.84503
   D27       -0.27933   0.00193  -0.00457  -0.03675  -0.04194  -0.32127
         Item               Value     Threshold  Converged?
 Maximum Force            0.017850     0.000015     NO 
 RMS     Force            0.004986     0.000010     NO 
 Maximum Displacement     0.334365     0.000060     NO 
 RMS     Displacement     0.093752     0.000040     NO 
 GradGradGradGradGradGradGradGradGradGradGradGradGradGradGradGradGradGrad

                    Distance matrix (angstroms):
                    1          2          3          4          5
     1  C    0.000000
     2  C    1.487979   0.000000
     3  N    2.637052   1.672775   0.000000
     4  O    2.795724   2.330980   1.157322   0.000000
     5  O    3.524820   2.353232   1.184896   2.206228   0.000000
     6  N    2.553313   1.506806   2.446170   2.909136   3.054265
     7  O    3.532262   2.420411   2.711532   3.041282   3.200641
     8  O    2.691623   2.142024   3.542589   3.986690   4.126818
     9  N    2.470826   1.520585   2.560062   3.545381   2.553184
    10  O    2.730995   2.341371   3.200868   4.110293   3.130903
    11  O    3.487852   2.284815   3.137604   4.195347   2.866623
    12  H    1.100933   2.124007   2.846837   2.552959   3.941667
    13  H    1.097219   2.149725   3.609747   3.849286   4.393101
    14  H    1.102745   2.105779   2.828778   3.013935   3.561276
                    6          7          8          9         10
     6  N    0.000000
     7  O    1.125163   0.000000
     8  O    1.271047   2.137656   0.000000
     9  N    2.459866   3.325636   2.724444   0.000000
    10  O    3.551552   4.465548   3.688660   1.188320   0.000000
    11  O    2.520618   3.136074   2.743130   1.220737   2.169183
    12  H    2.787648   3.557841   3.042987   3.427683   3.792341
    13  H    2.887751   3.969153   2.506597   2.733020   2.909271
    14  H    3.466057   4.401713   3.694046   2.672665   2.478431
                   11         12         13         14
    11  O    0.000000
    12  H    4.338842   0.000000
    13  H    3.636914   1.799153   0.000000
    14  H    3.857880   1.805534   1.781132   0.000000
 Framework group  C1[X(C2H3N3O6)]
 Deg. of freedom    36
                         Standard orientation:                         
 ---------------------------------------------------------------------
 Center     Atomic      Atomic             Coordinates (Angstroms)
 Number     Number       Type             X           Y           Z
 ---------------------------------------------------------------------
      1          6           0        0.161748   -0.084022    1.916338
      2          6           0        0.037487    0.003405    0.436136
      3          7           0       -1.136485   -1.015706   -0.181423
      4          8           0       -2.072853   -0.984574    0.498018
      5          8           0       -0.735545   -1.534869   -1.168182
      6          7           0       -0.416567    1.321671   -0.135244
      7          8           0       -1.236408    1.610264   -0.849784
      8          8           0        0.442668    2.105922    0.376837
      9          7           0        1.345883   -0.391708   -0.230319
     10          8           0        2.024458   -1.224874    0.277100
     11          8           0        1.536862    0.209312   -1.275547
     12          1           0       -0.801034    0.181733    2.379454
     13          1           0        0.952491    0.575475    2.295389
     14          1           0        0.429858   -1.122754    2.171681
 ---------------------------------------------------------------------
 Rotational constants (GHZ):           1.3913499           1.3078461           1.0327678
   160 basis functions,   287 primitive gaussians,   171 cartesian basis functions
    42 alpha electrons       41 beta electrons
       nuclear repulsion energy       707.1758164132 Hartrees.
 NAtoms=   14 NActive=   14 NUniq=   14 SFac= 1.00D+00 NAtFMM=   60 NAOKFM=F Big=F
 Nuclear repulsion after empirical dispersion term =      707.1684366440 Hartrees.
   1 Symmetry operations used in ECPInt.
 ECPInt:  NShTT=    2628 NPrTT=   10592 LenC2=    2583 LenP2D=    7867.
 LDataN:  DoStor=T MaxTD1= 4 Len=   56
 Initial guess from the checkpoint file:  "43.chk"
 B after Tr=     0.000000   -0.000000    0.000000
         Rot=    0.967974   -0.036386   -0.037409   -0.245566 Ang= -29.08 deg.
 Initial guess <Sx>= 0.0000 <Sy>= 0.0000 <Sz>= 0.5000 <S**2>= 0.7586 S= 0.5043
 ExpMin= 1.22D-01 ExpMax= 2.27D+03 ExpMxC= 3.41D+02 IAcc=3 IRadAn=         5 AccDes= 0.00D+00
 Harris functional with IExCor= 4639 and IRadAn=       5 diagonalized for initial guess.
 HarFok:  IExCor= 4639 AccDes= 0.00D+00 IRadAn=         5 IDoV= 1 UseB2=F ITyADJ=14
 ICtDFT=  3500011 ScaDFX=  1.000000  1.000000  1.000000  1.000000
 FoFCou: FMM=F IPFlag=           0 FMFlag=      100000 FMFlg1=           0
         NFxFlg=           0 DoJE=T BraDBF=F KetDBF=T FulRan=T
         wScrn=  0.000000 ICntrl=       500 IOpCl=  0 I1Cent=   200000004 NGrid=           0
         NMat0=    1 NMatS0=      1 NMatT0=    0 NMatD0=    1 NMtDS0=    0 NMtDT0=    0
 Petite list used in FoFCou.
     Accept linear search using points  3 and  4.
     Minimum is close to point  4 DX= -1.49D-02 DF= -1.79D-06 DXR=  1.26D-02 DFR=  2.43D-05 which will be used.
     Minimum is close to point  2 DX=  8.54D-02 DF= -5.38D-05 DXR=  7.87D-02 DFR=  6.23D-03 which will be used.
     Accept linear search using points  1 and  2.
     Minimum is close to point  2 DX= -2.17D-02 DF= -2.34D-06 DXR=  2.21D-02 DFR=  4.90D-04 which will be used.
     Accept linear search using points  1 and  2.
     Accept linear search using points  1 and  2.
     Minimum is close to point  2 DX=  4.16D-02 DF= -1.90D-06 DXR=  4.00D-02 DFR=  1.60D-03 which will be used.
     Accept linear search using points  1 and  2.
     Minimum is close to point  2 DX= -2.24D-02 DF= -5.09D-07 DXR=  2.29D-02 DFR=  5.23D-04 which will be used.
     Accept linear search using points  1 and  2.
     Minimum is close to point  2 DX= -7.52D-02 DF= -5.52D-06 DXR=  8.13D-02 DFR=  6.65D-03 which will be used.
     Accept linear search using points  1 and  2.
     Accept linear search using points  1 and  2.
     Minimum is close to point  2 DX=  8.84D-02 DF= -3.80D-06 DXR=  8.12D-02 DFR=  6.64D-03 which will be used.
     Minimum is close to point  2 DX=  2.59D-02 DF= -3.43D-07 DXR=  2.53D-02 DFR=  6.40D-04 which will be used.
     Accept linear search using points  1 and  2.
     Accept linear search using points  1 and  2.
     Minimum is close to point  2 DX= -6.98D-02 DF= -2.73D-06 DXR=  7.50D-02 DFR=  5.66D-03 which will be used.
     Accept linear search using points  1 and  2.
     Accept linear search using points  1 and  2.
     Minimum is close to point  2 DX=  7.64D-02 DF= -2.08D-06 DXR=  7.10D-02 DFR=  5.06D-03 which will be used.
     Minimum is close to point  2 DX=  3.11D-03 DF= -3.80D-09 DXR=  3.10D-03 DFR=  9.64D-06 which will be used.
     Accept linear search using points  1 and  2.
     Minimum is close to point  2 DX= -6.24D-02 DF= -1.68D-06 DXR=  6.66D-02 DFR=  4.45D-03 which will be used.
     Accept linear search using points  1 and  2.
     Accept linear search using points  1 and  2.
     Minimum is close to point  2 DX=  6.77D-02 DF= -1.33D-06 DXR=  6.34D-02 DFR=  4.04D-03 which will be used.
     Accept linear search using points  1 and  2.
     Minimum is close to point  2 DX= -1.23D-02 DF= -4.85D-08 DXR=  1.24D-02 DFR=  1.54D-04 which will be used.
     Accept linear search using points  1 and  2.
     Minimum is close to point  2 DX= -8.23D-02 DF= -2.45D-06 DXR=  8.97D-02 DFR=  8.11D-03 which will be used.
     Accept linear search using points  1 and  2.
     Accept linear search using points  1 and  2.
     Minimum is close to point  2 DX=  9.51D-02 DF= -1.99D-06 DXR=  8.69D-02 DFR=  7.60D-03 which will be used.
     Minimum is close to point  2 DX=  5.19D-03 DF= -6.65D-09 DXR=  5.16D-03 DFR=  2.66D-05 which will be used.
     Accept linear search using points  1 and  2.
     Minimum is close to point  2 DX= -7.24D-02 DF= -1.46D-06 DXR=  7.80D-02 DFR=  6.12D-03 which will be used.
     Accept linear search using points  1 and  2.
     Accept linear search using points  1 and  2.
     Minimum is close to point  2 DX=  8.19D-02 DF= -1.18D-06 DXR=  7.57D-02 DFR=  5.76D-03 which will be used.
     Accept linear search using points  1 and  2.
     Minimum is close to point  2 DX= -1.10D-02 DF= -2.41D-08 DXR=  1.11D-02 DFR=  1.23D-04 which will be used.
     Accept linear search using points  1 and  2.
     Minimum is close to point  2 DX= -9.02D-02 DF= -1.85D-06 DXR=  9.92D-02 DFR=  9.94D-03 which will be used.
     Accept linear search using points  1 and  2.
     Minimum is close to point  2 DX= -7.50D-02 DF= -1.25D-06 DXR=  9.09D-02 DFR=  6.86D-03 which will be used.
     Minimum is close to point  2 DX=  4.76D-02 DF= -4.34D-07 DXR=  5.02D-02 DFR=  2.53D-03 which will be used.
     Accept linear search using points  1 and  2.
     Minimum is close to point  2 DX=  8.18D-02 DF= -8.74D-07 DXR=  7.56D-02 DFR=  5.75D-03 which will be used.
     Accept linear search using points  1 and  2.
     Minimum is close to point  2 DX= -1.58D-02 DF= -3.71D-08 DXR=  1.60D-02 DFR=  2.57D-04 which will be used.
     Accept linear search using points  1 and  2.
     Accept linear search using points  1 and  2.
     Minimum is close to point  2 DX=  1.49D-02 DF= -2.63D-08 DXR=  1.47D-02 DFR=  2.16D-04 which will be used.
     Accept linear search using points  1 and  2.
     Minimum is close to point  2 DX= -7.43D-02 DF= -7.47D-07 DXR=  8.03D-02 DFR=  6.49D-03 which will be used.
     Accept linear search using points  1 and  2.
     Accept linear search using points  1 and  2.
     Minimum is close to point  2 DX=  8.53D-02 DF= -6.06D-07 DXR=  7.86D-02 DFR=  6.22D-03 which will be used.
     Accept linear search using points  1 and  2.
     Minimum is close to point  2 DX= -1.80D-02 DF= -3.10D-08 DXR=  1.83D-02 DFR=  3.36D-04 which will be used.
     Accept linear search using points  1 and  2.
     Accept linear search using points  1 and  2.
     Minimum is close to point  2 DX=  1.77D-02 DF= -2.33D-08 DXR=  1.74D-02 DFR=  3.01D-04 which will be used.
     Accept linear search using points  1 and  2.
     Minimum is close to point  2 DX= -7.60D-02 DF= -4.98D-07 DXR=  8.22D-02 DFR=  6.81D-03 which will be used.
     Accept linear search using points  1 and  2.
     Accept linear search using points  1 and  2.
     Minimum is close to point  2 DX=  8.79D-02 DF= -4.06D-07 DXR=  8.08D-02 DFR=  6.57D-03 which will be used.
     Accept linear search using points  1 and  2.
     Minimum is close to point  2 DX= -1.95D-02 DF= -2.33D-08 DXR=  1.99D-02 DFR=  3.97D-04 which will be used.
     Accept linear search using points  1 and  2.
     Accept linear search using points  1 and  2.
     Accept linear search using points  1 and  2.
     Minimum is close to point  2 DX= -8.09D-02 DF= -9.48D-06 DXR=  8.81D-02 DFR=  8.36D-03 which will be used.
     Minimum is close to point  2 DX=  1.22D-02 DF= -4.89D-09 DXR=  1.21D-02 DFR=  1.46D-04 which will be used.
 SCF Done:  E(UwB97XD) =  -692.088507730     a.u. after   74 cycles
            Convg  =    0.2156D-06                   211 Fock formations.
              S**2 =  0.7670                  -V/T =  2.0058
 <Sx>= 0.0000 <Sy>= 0.0000 <Sz>= 0.5000 <S**2>= 0.7670 S= 0.5085
 <L.S>=  0.00000000000    
 Annihilation of the first spin contaminant:
 S**2 before annihilation     0.7670,   after     0.7502
 DoSCS=F DFT=T ScalE2(SS,OS)=  1.000000  1.000000
 NROrb=    160 NOA=    42 NOB=    41 NVA=   118 NVB=   119
   1 Symmetry operations used in ECPInt.
 ECPInt:  NShTT=    2628 NPrTT=   10592 LenC2=    2583 LenP2D=    7867.
 LDataN:  DoStor=T MaxTD1= 5 Len=  102
 Symmetrizing basis deriv contribution to polar:
 IMax=3 JMax=2 DiffMx= 0.00D+00
 Calling FoFCou, ICntrl=  3107 FMM=F I1Cent=   0 AccDes= 0.00D+00.
 End of G2Drv F.D. properties file   721 does not exist.
 End of G2Drv F.D. properties file   722 does not exist.
 End of G2Drv F.D. properties file   788 does not exist.
          IDoAtm=11111111111111
 End of Minotr F.D. properties file   721 does not exist.
 End of Minotr F.D. properties file   722 does not exist.
 End of Minotr F.D. properties file   788 does not exist.
   1 Symmetry operations used in ECPInt.
 ECPInt:  NShTT=    2628 NPrTT=   10592 LenC2=    2583 LenP2D=    7867.
 LDataN:  DoStor=T MaxTD1= 6 Len=  172
 Calling FoFJK, ICntrl=    100127 FMM=F ISym2X=0 I1Cent= 0 IOpClX= 1 NMat=1 NMatS=1 NMatT=0.
 FormGI is forming the generalized inverse of G from B-inverse, IUseBI=4.

 GradGradGradGradGradGradGradGradGradGradGradGradGradGradGradGradGradGrad
 Using GEDIIS/GDIIS optimizer.
 Internal  Forces:  Max     0.092932079 RMS     0.016190097
 Step number   3 out of a maximum of   71
 All quantities printed in internal units (Hartrees-Bohrs-Radians)
 Mixed Optimization -- RFO/linear search
 Second derivative matrix not updated -- analytic derivatives used.
 ITU=  0  1  0
 Use linear search instead of GDIIS.
     Eigenvalues ---   -0.00026   0.00092   0.00229   0.00373   0.01138
     Eigenvalues ---    0.04179   0.04449   0.04619   0.06079   0.06873
     Eigenvalues ---    0.07679   0.08922   0.09707   0.12126   0.13035
     Eigenvalues ---    0.14006   0.14348   0.16051   0.16822   0.18895
     Eigenvalues ---    0.19488   0.25283   0.26652   0.30716   0.34247
     Eigenvalues ---    0.34594   0.35145   0.35540   0.36594   0.40617
     Eigenvalues ---    0.45595   0.68791   0.81544   0.92145   1.08205
     Eigenvalues ---    1.35376
 Quintic linear search produced a step of -0.69058.
 Maximum step size (   0.505) exceeded in Quadratic search.
    -- Step size scaled by   0.698
 Iteration  1 RMS(Cart)=  0.11264094 RMS(Int)=  0.02384295
 Iteration  2 RMS(Cart)=  0.03411406 RMS(Int)=  0.00134566
 Iteration  3 RMS(Cart)=  0.00017121 RMS(Int)=  0.00133671
 Iteration  4 RMS(Cart)=  0.00000006 RMS(Int)=  0.00133671
 Variable       Old X    -DE/DX   Delta X   Delta X   Delta X     New X
                                 (Linear)    (Quad)   (Total)
    R1        2.81187   0.00877   0.00328  -0.03347  -0.03019   2.78168
    R2        2.08046   0.00095  -0.00051   0.00115   0.00064   2.08110
    R3        2.07344   0.00180   0.00500   0.00945   0.01445   2.08789
    R4        2.08389   0.00013  -0.00348   0.00341  -0.00008   2.08381
    R5        3.16109   0.01904  -0.05814   0.41849   0.36035   3.52144
    R6        2.84745   0.01105  -0.01703  -0.02582  -0.04285   2.80460
    R7        2.87349   0.00905   0.04644   0.03273   0.07918   2.95266
    R8        2.18702   0.03659   0.02344  -0.01632   0.00712   2.19414
    R9        2.23913  -0.00487   0.00716  -0.04851  -0.04136   2.19777
   R10        2.12625   0.09293   0.10417   0.02719   0.13136   2.25761
   R11        2.40193  -0.02804  -0.09188  -0.10021  -0.19209   2.20984
   R12        2.24560  -0.00054   0.01646  -0.00121   0.01525   2.26085
   R13        2.30686  -0.01784  -0.04072  -0.01624  -0.05695   2.24991
    A1        1.90842   0.00561  -0.00114   0.02936   0.02757   1.93599
    A2        1.94822  -0.00334  -0.02510  -0.03799  -0.06270   1.88552
    A3        1.88178  -0.00089   0.01588   0.02465   0.03991   1.92169
    A4        1.91753  -0.00084  -0.00107  -0.00959  -0.01033   1.90720
    A5        1.92047  -0.00200  -0.00336   0.01198   0.00712   1.92759
    A6        1.88700   0.00136   0.01502  -0.01788  -0.00242   1.88458
    A7        1.97150  -0.00714  -0.01876  -0.01334  -0.03103   1.94047
    A8        2.04181  -0.00141  -0.04281   0.06083   0.01400   2.05581
    A9        1.92717   0.01234   0.04135   0.03524   0.07312   2.00029
   A10        1.75334   0.00532   0.07226  -0.07785  -0.00476   1.74858
   A11        1.85851  -0.00416  -0.01781  -0.09717  -0.11401   1.74451
   A12        1.89697  -0.00638  -0.03195   0.07077   0.03432   1.93129
   A13        1.91208   0.01163   0.00784  -0.05735  -0.04960   1.86247
   A14        1.91443   0.01802   0.04393  -0.02822   0.01561   1.93004
   A15        2.45667  -0.02964  -0.05177   0.08563   0.03376   2.49043
   A16        2.32509  -0.03571  -0.18632  -0.02163  -0.20792   2.11717
   A17        1.75517   0.01836   0.18908  -0.07623   0.11288   1.86805
   A18        2.20205   0.01740  -0.00229   0.09744   0.09519   2.29725
   A19        2.07874  -0.01680  -0.07833  -0.01808  -0.09637   1.98237
   A20        1.96271   0.00903   0.04919  -0.00540   0.04382   2.00653
   A21        2.24142   0.00774   0.02933   0.02327   0.05264   2.29405
    D1       -1.03896  -0.00097  -0.02823  -0.05648  -0.08557  -1.12453
    D2        0.98406  -0.00041   0.02224  -0.12681  -0.10590   0.87816
    D3       -3.11787   0.00050  -0.02100   0.05155   0.03129  -3.08658
    D4        3.11883  -0.00155  -0.01024  -0.03944  -0.05010   3.06873
    D5       -1.14134  -0.00098   0.04024  -0.10977  -0.07042  -1.21177
    D6        1.03992  -0.00008  -0.00301   0.06858   0.06677   1.10668
    D7        1.04878  -0.00071  -0.02352  -0.01090  -0.03428   1.01450
    D8        3.07179  -0.00014   0.02696  -0.08123  -0.05460   3.01719
    D9       -1.03014   0.00077  -0.01629   0.09713   0.08259  -0.94755
   D10        0.73200  -0.00276   0.01847  -0.21837  -0.20177   0.53023
   D11       -2.40638  -0.00447   0.01263  -0.23369  -0.22292  -2.62931
   D12       -1.45673  -0.00075   0.03375  -0.23410  -0.19966  -1.65639
   D13        1.68808  -0.00246   0.02792  -0.24942  -0.22081   1.46727
   D14        2.85022   0.00545   0.04648  -0.24837  -0.20071   2.64951
   D15       -0.28816   0.00375   0.04065  -0.26369  -0.22186  -0.51002
   D16       -2.22837   0.00666  -0.05462   0.17809   0.12158  -2.10680
   D17        0.95754   0.00461  -0.07124   0.18650   0.11338   1.07092
   D18       -0.08817   0.00083  -0.05166   0.13833   0.08695  -0.00123
   D19        3.09774  -0.00122  -0.06828   0.14675   0.07875  -3.10670
   D20        1.85847  -0.00357  -0.05257   0.02032  -0.03064   1.82783
   D21       -1.23880  -0.00562  -0.06919   0.02874  -0.03884  -1.27764
   D22        0.58354  -0.00245   0.06703  -0.12527  -0.06078   0.52276
   D23       -2.58277  -0.00367   0.07906  -0.13300  -0.05648  -2.63925
   D24       -1.56272   0.00157   0.07738  -0.06814   0.00964  -1.55308
   D25        1.55416   0.00036   0.08941  -0.07587   0.01394   1.56810
   D26        2.84503   0.00005   0.01693   0.03422   0.05329   2.89833
   D27       -0.32127  -0.00116   0.02896   0.02649   0.05759  -0.26368
         Item               Value     Threshold  Converged?
 Maximum Force            0.092932     0.000015     NO 
 RMS     Force            0.016190     0.000010     NO 
 Maximum Displacement     0.374548     0.000060     NO 
 RMS     Displacement     0.119892     0.000040     NO 
 GradGradGradGradGradGradGradGradGradGradGradGradGradGradGradGradGradGrad

                    Distance matrix (angstroms):
                    1          2          3          4          5
     1  C    0.000000
     2  C    1.472004   0.000000
     3  N    2.760701   1.863464   0.000000
     4  O    2.817012   2.462719   1.161089   0.000000
     5  O    3.679396   2.519711   1.163011   2.202004   0.000000
     6  N    2.531106   1.484133   2.579405   3.114290   3.068498
     7  O    3.447607   2.339325   2.566702   3.031357   2.904771
     8  O    2.804455   2.141686   3.655433   4.158786   4.117958
     9  N    2.554135   1.562483   2.630652   3.565087   2.663259
    10  O    2.737603   2.316976   3.175588   3.961689   3.251487
    11  O    3.558039   2.330074   3.197066   4.262889   2.893706
    12  H    1.101273   2.130132   2.996479   2.656370   4.082153
    13  H    1.104865   2.096285   3.735095   3.898780   4.535696
    14  H    1.102705   2.121003   2.926352   2.925837   3.779187
                    6          7          8          9         10
     6  N    0.000000
     7  O    1.194676   0.000000
     8  O    1.169398   2.156535   0.000000
     9  N    2.505983   3.315532   2.845500   0.000000
    10  O    3.558634   4.402459   3.829666   1.196392   0.000000
    11  O    2.626736   3.240590   2.868972   1.190599   2.175852
    12  H    2.756183   3.445991   3.104026   3.510582   3.796971
    13  H    2.852728   3.953655   2.653833   2.803594   2.936619
    14  H    3.458477   4.291051   3.817003   2.762515   2.484714
                   11         12         13         14
    11  O    0.000000
    12  H    4.414688   0.000000
    13  H    3.700264   1.799116   0.000000
    14  H    3.921224   1.810264   1.785715   0.000000
 Framework group  C1[X(C2H3N3O6)]
 Deg. of freedom    36
                         Standard orientation:                         
 ---------------------------------------------------------------------
 Center     Atomic      Atomic             Coordinates (Angstroms)
 Number     Number       Type             X           Y           Z
 ---------------------------------------------------------------------
      1          6           0        0.196642    0.008094    1.955564
      2          6           0        0.145074    0.090642    0.486781
      3          7           0       -1.393753   -0.722011   -0.179631
      4          8           0       -2.214951   -0.598008    0.631777
      5          8           0       -1.202856   -1.147317   -1.245121
      6          7           0        0.017997    1.436108   -0.126589
      7          8           0       -0.906634    1.712456   -0.830819
      8          8           0        0.963392    2.047403    0.189699
      9          7           0        1.235781   -0.750559   -0.250846
     10          8           0        1.570831   -1.730457    0.348233
     11          8           0        1.569865   -0.321898   -1.310168
     12          1           0       -0.629721    0.576256    2.410667
     13          1           0        1.159692    0.435182    2.288518
     14          1           0        0.162384   -1.046045    2.277394
 ---------------------------------------------------------------------
 Rotational constants (GHZ):           1.3490568           1.2693591           1.0195737
   160 basis functions,   287 primitive gaussians,   171 cartesian basis functions
    42 alpha electrons       41 beta electrons
       nuclear repulsion energy       700.4463689350 Hartrees.
 NAtoms=   14 NActive=   14 NUniq=   14 SFac= 1.00D+00 NAtFMM=   60 NAOKFM=F Big=F
 Nuclear repulsion after empirical dispersion term =      700.4388796773 Hartrees.
   1 Symmetry operations used in ECPInt.
 ECPInt:  NShTT=    2628 NPrTT=   10592 LenC2=    2583 LenP2D=    7834.
 LDataN:  DoStor=T MaxTD1= 4 Len=   56
 Lowest energy guess from the checkpoint file:  "43.chk"
 B after Tr=    -0.000000   -0.000000    0.000000
         Rot=    0.991331   -0.024568   -0.048969   -0.119419 Ang= -15.10 deg.
 B after Tr=    -0.000000    0.000000   -0.000000
         Rot=    0.991738    0.019040   -0.012022    0.126288 Ang=  14.74 deg.
 Initial guess <Sx>= 0.0000 <Sy>= 0.0000 <Sz>= 0.5000 <S**2>= 0.7595 S= 0.5047
     Accept linear search using points  1 and  2.
     Accept linear search using points  1 and  2.
     Accept linear search using points  1 and  2.
     Accept linear search using points  3 and  4.
     Minimum is close to point  3 DX=  1.34D-01 DF= -4.05D-06 DXR=  8.20D-02 DFR=  6.78D-03 which will be used.
     Minimum is close to point  3 DX= -3.60D-02 DF= -3.49D-06 DXR=  9.88D-02 DFR=  9.86D-03 which will be used.
     Accept linear search using points  1 and  2.
     Minimum is close to point  2 DX= -4.15D-02 DF= -3.44D-07 DXR=  5.46D-02 DFR=  1.83D-03 which will be used.
     Accept linear search using points  1 and  2.
     Accept linear search using points  5 and  6.
     Accept linear search using points  1 and  2.
     Minimum is close to point  2 DX= -2.47D-03 DF= -6.64D-10 DXR=  2.47D-03 DFR=  6.13D-06 which will be used.
     Accept linear search using points  2 and  3.
     Minimum is close to point  2 DX=  1.94D-04 DF=  0.00D+00 DXR=  1.94D-04 DFR=  0.00D+00 which will be used.
 SCF Done:  E(UwB97XD) =  -692.107853508     a.u. after   17 cycles
            Convg  =    0.3014D-07                    89 Fock formations.
              S**2 =  0.7613                  -V/T =  2.0059
 <Sx>= 0.0000 <Sy>= 0.0000 <Sz>= 0.5000 <S**2>= 0.7613 S= 0.5056
 <L.S>=  0.00000000000    
 Annihilation of the first spin contaminant:
 S**2 before annihilation     0.7613,   after     0.7501
 DoSCS=F DFT=T ScalE2(SS,OS)=  1.000000  1.000000
 NROrb=    160 NOA=    42 NOB=    41 NVA=   118 NVB=   119
   1 Symmetry operations used in ECPInt.
 ECPInt:  NShTT=    2628 NPrTT=   10592 LenC2=    2583 LenP2D=    7834.
 LDataN:  DoStor=T MaxTD1= 5 Len=  102
 Symmetrizing basis deriv contribution to polar:
 IMax=3 JMax=2 DiffMx= 0.00D+00
 Calling FoFCou, ICntrl=  3107 FMM=F I1Cent=   0 AccDes= 0.00D+00.
 End of G2Drv F.D. properties file   721 does not exist.
 End of G2Drv F.D. properties file   722 does not exist.
 End of G2Drv F.D. properties file   788 does not exist.
          IDoAtm=11111111111111
 End of Minotr F.D. properties file   721 does not exist.
 End of Minotr F.D. properties file   722 does not exist.
 End of Minotr F.D. properties file   788 does not exist.
   1 Symmetry operations used in ECPInt.
 ECPInt:  NShTT=    2628 NPrTT=   10592 LenC2=    2583 LenP2D=    7834.
 LDataN:  DoStor=T MaxTD1= 6 Len=  172
 Calling FoFJK, ICntrl=    100127 FMM=F ISym2X=0 I1Cent= 0 IOpClX= 1 NMat=1 NMatS=1 NMatT=0.
 FormGI is forming the generalized inverse of G from B-inverse, IUseBI=4.

 GradGradGradGradGradGradGradGradGradGradGradGradGradGradGradGradGradGrad
 Using GEDIIS/GDIIS optimizer.
 Internal  Forces:  Max     0.060720153 RMS     0.008787282
 Step number   4 out of a maximum of   71
 All quantities printed in internal units (Hartrees-Bohrs-Radians)
 Mixed Optimization -- RFO/linear search
 Second derivative matrix not updated -- analytic derivatives used.
 Trust test= 6.67D-01 RLast= 9.94D-01 DXMaxT set to 8.49D-01
 ITU=  1  0  1  0
 Use linear search instead of GDIIS.
     Eigenvalues ---    0.00023   0.00213   0.00281   0.00570   0.01005
     Eigenvalues ---    0.03682   0.04054   0.04371   0.05584   0.07283
     Eigenvalues ---    0.07616   0.08080   0.08143   0.10589   0.11981
     Eigenvalues ---    0.12651   0.13398   0.14159   0.16103   0.18019
     Eigenvalues ---    0.19408   0.20012   0.25582   0.26889   0.33164
[...]
    13   1     0.01  -0.02  -0.00     0.01  -0.01   0.00     0.01  -0.01  -0.02
    14   1     0.00   0.01  -0.01     0.05  -0.05  -0.04    -0.02   0.00  -0.00
                     34                     35                     36
                      A                      A                      A
 Frequencies --   2967.9719              3103.7543              3174.8844
 Red. masses --      1.0527                 1.0782                 1.1109
 Frc consts  --      5.4637                 6.1194                 6.5977
 IR Inten    --    158.9317                23.0832                27.1277
  Atom  AN      X      Y      Z        X      Y      Z        X      Y      Z
     1   6    -0.05  -0.01  -0.04    -0.07  -0.02   0.03     0.02  -0.09   0.00
     2   6    -0.00  -0.00  -0.00    -0.00  -0.00  -0.00    -0.00  -0.00   0.00
     3   7    -0.00  -0.00  -0.00    -0.00   0.00   0.00     0.00   0.00  -0.00
     4   8     0.00  -0.00  -0.00     0.00  -0.00  -0.00    -0.00   0.00   0.00
     5   8     0.00   0.00   0.00     0.00  -0.00  -0.00    -0.00  -0.00  -0.00
     6   7    -0.00  -0.00   0.00    -0.00   0.00  -0.00    -0.00   0.00  -0.00
     7   8     0.00  -0.00   0.00     0.00  -0.00   0.00     0.00   0.00   0.00
     8   8     0.00  -0.00   0.00    -0.00  -0.00   0.00     0.00  -0.00   0.00
     9   7    -0.00   0.00  -0.00     0.00  -0.00  -0.00     0.00  -0.00   0.00
    10   8     0.00  -0.00   0.00     0.00   0.00  -0.00    -0.00   0.00  -0.00
    11   8    -0.00  -0.00  -0.00     0.00  -0.00   0.00    -0.00   0.00  -0.00
    12   1    -0.17   0.20   0.09     0.39  -0.48  -0.23    -0.42   0.51   0.24
    13   1     0.85   0.17   0.31     0.33   0.06   0.13    -0.01  -0.02  -0.00
    14   1    -0.08  -0.24   0.09     0.16   0.60  -0.24     0.18   0.64  -0.25
 
 Temperature   298.150 Kelvin.  Pressure   1.00000 Atm.
 Zero-point correction=                           0.079798 (Hartree/Particle)
 Thermal correction to Energy=                    0.091391
 Thermal correction to Enthalpy=                  0.092335
 Thermal correction to Gibbs Free Energy=         0.040281
 Sum of electronic and zero-point Energies=           -692.035985
 Sum of electronic and thermal Energies=              -692.024392
 Sum of electronic and thermal Enthalpies=            -692.023448
 Sum of electronic and thermal Free Energies=         -692.075502

 ----------------------------------------------------------------------

 Electric dipole moment (input orientation):
 (Debye = 10**-18 statcoulomb cm , SI units = C m)
                  (au)            (Debye)         (10**-30 SI)
   Tot        0.213152D+01      0.541779D+01      0.180718D+02
   x          0.121960D+01      0.309992D+01      0.103402D+02
   y          0.816030D+00      0.207414D+01      0.691859D+01
   z          0.154598D+01      0.392949D+01      0.131074D+02

 Dipole polarizability, Alpha (input orientation).
 (esu units = cm**3 , SI units = C**2 m**2 J**-1)
 Alpha(0;0):
               (au)            (10**-24 esu)      (10**-40 SI)
   iso        0.794788D+02      0.117775D+02      0.131043D+02
   aniso      0.389895D+02      0.577764D+01      0.642849D+01
   xx         0.845940D+02      0.125355D+02      0.139477D+02
   yx         0.168713D+02      0.250007D+01      0.278170D+01
   yy         0.779161D+02      0.115460D+02      0.128466D+02
   zx        -0.126541D+02     -0.187515D+01     -0.208638D+01
   zy        -0.642999D+01     -0.952827D+00     -0.106016D+01
   zz         0.759264D+02      0.112511D+02      0.125186D+02

 ----------------------------------------------------------------------

 Dipole orientation:
     6         -2.09340065         -1.50120689          2.71139073
     6         -0.93128657         -0.70676887          0.34934398
     7          2.26138681          2.00048535          1.67043647
     8          2.68055259          1.40054115          3.72428387
     8          2.73935244          3.32745556          0.01588279
     7          0.70953589         -2.45082287         -1.04971271
     8          2.95268122         -2.28003267         -0.77318347
     8         -0.49787189         -3.91252912         -2.29263140
     7         -2.19856247          1.13730130         -1.37932998
     8         -4.19943325          1.90924388         -0.63844993
     8         -1.04849849          1.64413489         -3.27218887
     1         -0.73952595         -2.51427348          3.92942281
     1         -3.63871221         -2.84485420          2.20802455
     1         -3.00405377          0.10580705          3.67642356

 Electric dipole moment (dipole orientation):
 (Debye = 10**-18 statcoulomb cm , SI units = C m)
                  (au)            (Debye)         (10**-30 SI)
   Tot        0.213152D+01      0.541779D+01      0.180718D+02
   x          0.000000D+00      0.000000D+00      0.000000D+00
   y          0.000000D+00      0.000000D+00      0.000000D+00
   z          0.213152D+01      0.541779D+01      0.180718D+02

 Dipole polarizability, Alpha (dipole orientation).
 (esu units = cm**3 , SI units = C**2 m**2 J**-1)
 Alpha(0;0):
               (au)            (10**-24 esu)      (10**-40 SI)
   iso        0.794788D+02      0.117775D+02      0.131043D+02
   aniso      0.389895D+02      0.577764D+01      0.642849D+01
   xx         0.889763D+02      0.131849D+02      0.146702D+02
   yx         0.177177D+02      0.262550D+01      0.292126D+01
   yy         0.770868D+02      0.114231D+02      0.127099D+02
   zx         0.663628D+01      0.983396D+00      0.109418D+01
   zy         0.869265D+01      0.128812D+01      0.143322D+01
   zz         0.723734D+02      0.107246D+02      0.119328D+02

 ----------------------------------------------------------------------
 1\1\GINC-C304\Freq\UwB97XD\def2SVPP\C2H3N3O6(1+,2)\PETERCHAO1\11-Jul-2
 023\0\\#T wB97XD/def2svpp opt=(calcall,tight) int(grid=ultrafine) scf=
 (verytight,qc)\\Comment gs min\\1,2\C,0.0242457371,-0.0369708825,1.978
 628033\C,-0.2460413917,-0.2088903761,0.5592416132\N,1.34097101,1.15515
 95338,-0.4488544863\O,2.1828686117,1.2525787442,0.334057841\O,0.955782
 7902,1.4304007098,-1.4974367893\N,0.1510518402,-1.4470770035,-0.121212
 0946\O,1.185083386,-1.4590635809,-0.7288603798\O,-0.644765916,-2.32554
 97828,0.0634514265\N,-1.4367095556,0.418983167,-0.0941213921\O,-2.1221
 490969,1.0773016817,0.6396737419\O,-1.5507788922,0.2036612129,-1.27151
 49951\H,1.0415992694,-0.3717224165,2.2414287882\H,-0.7004620849,-0.685
 74853,2.5255319699\H,-0.1819847074,0.997871523,2.2991807235\\Version=E
 S64L-G16RevB.01\State=2-A\HF=-692.115783\S2=0.760454\S2-1=0.\S2A=0.750
 056\RMSD=5.590e-10\RMSF=1.120e-06\ZeroPoint=0.0797983\Thermal=0.091390
 8\Dipole=1.2196008,0.8160298,1.5459804\DipoleDeriv=-0.3259448,-0.08993
 23,0.3147865,-0.0692643,-0.2693996,0.2747132,0.2315697,0.1543721,-0.79
 88019,0.2147978,0.1139218,-0.0532656,0.2058879,0.8323985,-0.0896042,-0
 .345772,-0.1836306,1.1688005,2.3412141,1.3331669,-0.1906854,1.127097,1
 .4672856,-0.7218257,-0.2704194,-0.9600125,1.7712432,-1.430676,-1.00115
 43,0.2161707,-0.5170129,-0.4174874,0.215407,-0.5564467,-0.196908,-0.23
 18435,-0.3393058,-0.2211379,-0.0501349,-0.5167357,-0.5649263,0.508725,
 0.7158779,1.0717128,-1.1196693,0.7582786,-0.337078,-0.2735101,0.396473
 7,0.6991677,-0.1001191,-0.2525111,0.3810338,0.2275433,-0.4655795,0.174
 2653,0.1803782,-0.0026403,-0.2769753,-0.0464947,0.1798298,-0.134908,-0
 .2390075,-0.3963267,-0.0510172,0.1296216,-0.4233291,-0.7235933,0.14678
 69,0.0393945,-0.1690179,-0.1565937,1.0428429,-0.236934,-0.1116609,-0.7
 253621,0.3762789,0.3720599,0.4777494,0.3423694,1.057118,-0.4914852,0.1
 788283,0.2184714,0.3253636,-0.3254732,-0.2582139,-0.1039289,-0.0861383
 ,-0.5330983,-0.4002518,0.0679668,-0.1032881,0.1715446,-0.2256876,-0.09
 56737,-0.1378408,-0.2327351,-0.6669606,0.1043115,0.0110019,0.0161988,0
 .0277317,0.134197,-0.110727,0.0465489,-0.0104447,0.1462591,0.2120474,0
 .0290435,-0.1861135,0.0143114,0.1649576,-0.14628,-0.0093903,-0.0207129
 ,0.1954263,0.1760775,0.0290591,-0.1069687,-0.0140653,0.1292576,0.05124
 62,-0.0146609,0.0450199,0.1795845\Polar=84.5940232,16.8712988,77.91605
 36,-12.654122,-6.4299934,75.9264405\PG=C01 [X(C2H3N3O6)]\NImag=0\\0.56
 465069,-0.04934778,0.56634856,0.02840515,0.03018545,0.48507403,-0.0773
 1330,0.01152905,-0.04333387,0.28088755,0.01459132,-0.08313727,-0.03124
 425,-0.10367277,0.33985469,-0.04114783,-0.03442016,-0.23713738,0.06446
 087,0.10061155,0.52123934,0.00606367,0.00427589,-0.01085762,0.00401802
 ,-0.00685549,0.02884387,0.61559128,0.00574846,0.00302678,-0.00856511,0
 .01456454,-0.01243125,0.01124481,-0.03772350,0.15462919,-0.00351316,-0
 .00253318,0.00495469,-0.00145603,0.00365218,-0.01152009,0.68798753,-0.
 12302371,1.18289061,-0.00704973,-0.00553738,0.01207892,-0.00699348,0.0
 1095072,-0.03069194,-0.45916447,-0.02719508,-0.44589427,0.50197911,-0.
 00341772,-0.00244518,0.00497737,-0.00872504,0.00707855,-0.00897098,-0.
 05166571,-0.05177106,-0.05473482,0.04875962,0.03799547,-0.00087421,-0.
 00055361,0.00392785,0.00145913,0.00765276,-0.01061838,-0.36920519,-0.0
 2008926,-0.44984293,0.46250135,0.02372039,0.51712721,-0.00160040,-0.00
 099755,0.00235682,-0.00192850,-0.00021758,-0.00250360,-0.15759642,0.05
 159716,-0.24036630,-0.02464282,0.01698790,-0.09199126,0.18617712,-0.00
 583215,-0.00466343,0.00787559,-0.00093172,0.00853337,-0.00283759,0.083
 95296,-0.08835377,0.18159860,-0.01626769,0.01479975,-0.00768976,-0.061
 87698,0.07622114,0.01110923,0.00926032,-0.01528473,-0.00786920,-0.0123
 0479,0.01209593,-0.31498194,0.15544971,-0.73260208,-0.01407979,0.02998
 704,-0.06665169,0.32707460,-0.18841184,0.81519483,0.00671859,-0.001077
 33,0.00387769,-0.03727770,0.06016266,-0.03569971,0.03776884,0.01339175
 ,-0.02467001,-0.03150044,-0.00993921,-0.01037079,-0.00392975,-0.013479
 81,0.03079582,0.83160889,-0.00257141,0.00753548,-0.01283674,0.05264515
 ,-0.11169950,-0.03413680,-0.00698552,-0.00573483,0.00229507,0.00257094
 ,-0.00054181,0.00045133,0.00085960,-0.00015367,-0.00169153,0.18158757,
 0.70803916,0.01088022,-0.03460247,-0.01281311,-0.03378247,-0.04057210,
 -0.10407831,-0.02561788,-0.00996136,0.01697746,0.02053310,0.00590267,0
 .00644403,0.00269271,0.00919588,-0.02102656,-0.26955637,0.04498974,0.4
 1736808,-0.00171843,0.00340624,-0.00022223,-0.03286943,0.00736901,0.03
 686868,-0.02103515,-0.00616286,0.01101372,0.01566647,0.00341689,0.0047
 4018,0.00289252,0.00673688,-0.01418382,-0.49712217,0.02182157,0.252654
 52,0.61148356,0.00106803,-0.00514786,0.00057140,0.02002021,-0.00465048
 ,-0.01956521,-0.00236740,-0.01085164,0.00124422,0.00283934,0.00034671,
 0.00121746,-0.00014034,-0.00011596,-0.00365010,0.06198585,-0.11865708,
 -0.05336702,-0.00878200,0.11370154,-0.00088495,-0.00014215,0.00007874,
 0.04268214,-0.01428215,-0.00513326,0.00922063,0.00224260,-0.01223464,-
 0.00754993,-0.00339948,-0.00124473,-0.00095967,-0.00255851,0.01072637,
 0.26711280,-0.02704106,-0.23547398,-0.34453820,0.03133954,0.23938145,0
 .00069013,0.00237740,-0.00018743,-0.00561471,-0.03821263,0.00959307,-0
 .00812410,-0.00318385,0.00647217,0.00715834,0.00253153,0.00254309,0.00
 054300,0.00307982,-0.00753810,-0.30548693,-0.26116353,0.05126909,-0.07
 757450,-0.07343257,0.03661738,0.39099793,0.00261871,0.00221538,-0.0003
 9938,-0.02585386,-0.05795484,-0.01234609,0.01176215,0.00522022,-0.0075
 0594,-0.00930557,-0.00236697,-0.00236289,-0.00186481,-0.00351895,0.008
 81419,-0.31296027,-0.46475928,0.06017153,-0.03082904,0.02613473,0.0180
 9563,0.36514573,0.50065836,-0.00129574,0.00156082,-0.00138100,0.011070
 86,-0.00569804,0.01361041,0.00984906,0.00378450,-0.00491837,-0.0077485
 0,-0.00198921,-0.00261421,-0.00112750,-0.00344912,0.00717510,0.0301634
 4,0.02618233,-0.08201809,0.05152358,0.04396179,0.00813367,-0.09289810,
 -0.06156262,0.06432381,0.00187098,-0.00300486,-0.01134803,-0.06210558,
 -0.00783481,-0.01111708,-0.02183893,-0.01305290,0.00929712,0.00722249,
 0.00300761,0.00119574,0.00537895,0.00641083,-0.00894631,0.00626513,0.0
 2081029,0.00557202,-0.00084713,-0.00345104,-0.00361435,-0.00558696,-0.
 00199070,0.00066024,0.47373788,0.00566335,0.00519215,0.00881005,-0.022
 27192,-0.07719214,-0.00407568,0.01606931,0.01512426,-0.00967934,-0.016
 23494,-0.00650969,-0.00469416,-0.00605694,-0.00783019,0.01318153,0.025
 43188,-0.01365692,0.00935383,0.00297123,-0.00180257,-0.00442135,0.0005
 3535,-0.00120465,-0.00272663,-0.20301290,0.43364277,-0.02411719,0.0097
 7223,-0.00593765,0.00320013,0.01044517,-0.06288726,-0.01650535,-0.0216
 6886,0.03520018,0.01163032,0.00768545,-0.00265577,0.00185491,0.0122859
 3,-0.02625954,0.01511563,-0.00435442,0.02814402,0.00226735,-0.00118933
 ,-0.00805625,-0.00896619,-0.00432483,-0.00642424,-0.08026564,0.2687627
 2,0.95416482,-0.00172657,0.00003786,0.00143942,-0.05462212,0.05945540,
 0.01850036,0.00497617,0.00438136,-0.00285368,-0.00367589,-0.00145184,-
 0.00090603,-0.00198795,-0.00246830,0.00355328,-0.00746823,-0.00551919,
 -0.01042930,-0.00033299,0.00201346,0.00325559,0.00258179,0.00140561,0.
 00098807,-0.28476202,0.19145631,0.18983348,0.32214468,-0.00208467,0.00
 016226,-0.00104198,0.05589746,-0.02206567,-0.01441341,-0.00657809,-0.0
 0472992,0.00181904,0.00547036,0.00181914,0.00181801,0.00294791,0.00280
 161,-0.00380016,0.00158789,0.00303973,0.00581388,-0.00029175,-0.000752
 06,-0.00067674,-0.00109807,-0.00142881,-0.00058562,0.18322337,-0.24493
 554,-0.19385350,-0.25596409,0.25957454,-0.00419170,0.00175091,-0.00388
 077,0.01858523,-0.01726825,0.00685449,0.00192261,0.00364144,-0.0075876
 9,-0.00124070,-0.00130975,0.00110503,0.00121963,-0.00171157,0.00501961
 ,-0.00067476,0.00393793,-0.00146476,-0.00113575,-0.00051286,0.00109896
 ,0.00032623,0.00039649,0.00116027,0.14552381,-0.16502334,-0.29197403,-
 0.22097027,0.24002148,0.36712596,-0.00661134,0.00282965,0.00082734,-0.
 00299109,0.00671834,-0.04639286,0.00392197,0.00178541,0.00120632,-0.00
 307707,-0.00070156,-0.00174921,-0.00427595,-0.00218774,0.00006266,-0.0
 0416421,-0.00293801,-0.00098439,0.00054253,0.00098438,-0.00091212,0.00
 059103,0.00090735,-0.00053896,-0.11807958,0.00878439,-0.09632665,0.026
 26126,0.01488877,0.06237319,0.10727095,0.00041624,-0.00054815,-0.00126
 610,0.00879753,0.01483838,0.01275266,-0.00244973,-0.00380785,0.0039053
 2,0.00242864,0.00146236,0.00009365,-0.00130643,0.00095593,-0.00377280,
 -0.00149494,-0.00203412,-0.00118552,-0.00046673,0.00033447,0.00153812,
 0.00338818,0.00086298,0.00257463,0.01545121,-0.10486899,-0.07906763,0.
 00509732,0.00668283,-0.06633871,-0.03040942,0.08645213,-0.00950342,0.0
 0390760,0.00373018,-0.04878705,0.00423760,-0.07244664,0.00586613,0.009
 93820,-0.01954913,-0.00363216,-0.00300364,0.00264388,0.00066298,-0.005
 63346,0.01338644,-0.00247911,-0.00152688,-0.00727590,-0.00007788,0.000
 14763,0.00198466,0.00374586,0.00200182,0.00133098,-0.05021078,-0.10442
 702,-0.60636782,0.01793183,-0.03654598,-0.08027948,0.08395831,0.130056
 74,0.76371773,-0.28595718,0.08094581,-0.06200738,-0.00256101,-0.000836
 32,-0.00227058,0.00023232,0.00029464,-0.00070439,-0.00074771,-0.000802
 71,0.00112837,0.00001963,-0.00031276,0.00039610,0.00083285,0.00044572,
 -0.00018270,0.00005487,-0.00000588,-0.00012990,-0.00013084,-0.00013362
 ,0.00002081,0.00028274,-0.00063017,0.00211549,0.00010655,0.00009964,-0
 .00029110,0.00051974,-0.00008650,0.00004797,0.30116633,0.08091516,-0.0
 7460143,0.01077736,-0.00438093,-0.00020828,0.00520807,0.00016734,-0.00
 064940,0.00239061,0.00028811,-0.00003544,0.00001855,-0.00021940,0.0007
 6718,-0.00203284,-0.00189783,-0.00040858,0.00079853,0.00046411,0.00020
 056,-0.00021709,-0.00003243,-0.00117141,-0.00045436,0.00215939,0.00206
 579,-0.00309729,0.00039204,0.00009689,0.00114373,-0.00078190,-0.000037
 14,0.00062219,-0.08474856,0.07096396,-0.05964696,0.01306555,-0.0599335
 9,-0.03266935,0.01299880,-0.00997061,-0.00229359,-0.00048789,-0.001566
 19,0.00157821,0.00054953,0.00069011,0.00035733,0.00011157,0.00055485,0
 .00003303,-0.00021373,0.00111044,0.00084373,-0.00009032,-0.00023661,0.
 00005024,0.00111301,-0.00011306,0.00290625,-0.00330834,-0.00469681,0.0
 0007026,0.00009218,0.00146931,-0.00198421,0.00074861,-0.00228954,0.066
 65504,-0.01939715,0.06754189,-0.14262048,-0.09733403,0.07440599,0.0005
 9220,0.00435530,0.00368171,-0.00423988,-0.00290620,0.00093740,0.003701
 12,0.00144132,0.00151392,0.00099662,0.00192182,-0.00305674,0.00126371,
 -0.00153257,-0.00060012,0.00021741,-0.00001244,0.00002362,0.00002497,0
 .00026771,-0.00041030,-0.00171400,-0.00118899,0.00115744,-0.00000510,0
 .00078416,-0.00099170,0.00036243,0.00026541,0.00054796,-0.01440157,-0.
 01540581,0.01413971,0.15308086,-0.09821686,-0.11971378,0.06905907,0.00
 509870,-0.00042093,0.00329552,-0.00224617,-0.00108197,0.00123540,0.002
 14920,0.00065262,0.00050859,0.00042926,0.00110166,-0.00218457,-0.00252
 573,-0.00070680,0.00127462,0.00043242,0.00076066,-0.00024463,-0.000127
 65,-0.00279061,-0.00129857,-0.00078864,0.00243966,0.00017984,0.0002894
 2,-0.00026367,-0.00099946,0.00016230,-0.00049249,0.00013170,0.00703813
 ,0.00494577,-0.00515878,0.10495785,0.12980211,0.08605273,0.07777019,-0
 .09597577,0.01802082,0.01611994,-0.02644093,-0.00347715,-0.00183145,0.
 00033860,0.00191538,0.00047004,0.00135150,0.00062860,0.00136626,-0.002
 42157,-0.00116730,-0.00041776,-0.00033402,-0.00057491,0.00095252,0.000
 75217,-0.00096947,-0.00115520,0.00073291,-0.00075463,-0.00225449,-0.00
 049039,0.00013886,0.00019936,0.00061735,0.00056894,0.00019632,0.000160
 34,-0.00563002,-0.00484141,0.00491916,-0.08898036,-0.08030498,0.111298
 08,-0.05539662,0.05189703,0.00456525,-0.00122084,-0.00597315,0.0078750
 2,-0.00057332,-0.00153893,0.00254358,0.00112407,0.00055892,0.00001492,
 -0.00004605,0.00125484,-0.00233579,0.00249142,-0.00003062,-0.00244844,
 0.00064244,-0.00071962,-0.00032304,-0.00006915,0.00083061,-0.00025696,
 0.00017603,-0.00151598,-0.00099374,-0.00148958,0.00111711,-0.00045473,
 -0.00027068,0.00036921,0.00192936,0.00058329,0.02308071,0.00996031,0.0
 0274169,-0.01665224,-0.00577150,0.05130731,0.05044931,-0.29422351,-0.0
 7690272,-0.00271641,-0.00054464,-0.00234670,0.00064395,0.00141124,-0.0
 0066347,-0.00091629,-0.00048444,-0.00009106,-0.00014179,-0.00054466,0.
 00115582,-0.00077247,-0.00026177,0.00218778,-0.00008598,0.00049898,-0.
 00023276,0.00019272,0.00010385,-0.00029990,0.00207313,-0.00046393,-0.0
 0157548,0.00087464,-0.00000133,0.00227196,-0.00004195,0.00019966,0.000
 09350,-0.00126742,-0.00192846,-0.00002308,0.00438646,-0.01423222,-0.00
 626932,-0.05267790,0.31047125,0.00872783,-0.07502151,-0.06542150,0.008
 41879,-0.03434841,-0.01356730,-0.00075111,-0.00067361,-0.00054042,0.00
 060002,0.00011537,0.00033810,0.00010074,-0.00014198,0.00009304,-0.0024
 8037,0.00436251,-0.00555929,0.00082104,-0.00105974,0.00022345,-0.00005
 783,-0.00093573,0.00100183,0.00110164,0.00050223,-0.00175926,-0.000551
 88,0.00115345,0.00073576,-0.00010837,-0.00023530,0.00125430,0.00085228
 ,0.00908108,0.00252064,-0.00236854,0.01450624,0.00549255,-0.01430424,0
 .08269541,0.07518810\\0.00000024,0.00000158,0.,-0.00000014,0.00000016,
 0.00000032,0.00000030,-0.00000148,-0.00000143,0.00000049,-0.00000099,-
 0.00000165,0.00000021,-0.00000243,-0.00000162,-0.00000067,-0.00000067,
 0.00000147,-0.00000077,-0.00000172,0.00000133,-0.00000098,-0.00000015,
 0.00000252,0.00000016,0.00000002,-0.00000026,0.00000046,0.00000103,-0.
 00000076,-0.00000020,-0.00000118,0.00000004,0.00000016,0.00000144,0.00
 000020,0.00000005,0.00000241,0.00000083,0.00000070,0.00000197,-0.00000
 101\\\@


 CLIMB THE MOUNTAINS AND GET THEIR GOOD TIDINGS.
 NATURE'S PEACE WILL FLOW INTO YOU AS SUNSHINE FLOWS INTO TREES.
 THE WINDS WILL BLOW THEIR OWN FRESHNESS INTO YOU, 
 AND CARES WILL DROP OFF LIKE AUTUMN LEAVES.

                                         -- JOHN MUIR
 Job cpu time:       0 days  3 hours  9 minutes 20.9 seconds.
 Elapsed time:       0 days  0 hours 50 minutes 17.8 seconds.
 File lengths (MBytes):  RWF=    103 Int=      0 D2E=      0 Chk=      4 Scr=      1
 Normal termination of Gaussian 16 at Tue Jul 11 00:10:26 2023.
real 3030.64
user 11336.03
sys 24.97
