 Entering Gaussian System, Link 0=g16
 Input=gaussian_test.inp
 Output=gaussian_test.log
 Initial command:
 /sw/restricted/lms/sw/Gaussian/g16_B01/g16/l1.exe "/scratch/user/peterchao1/peterchao1/6991774_1675632262000000156220876/Gau-57602.inp" -scrdir="/scratch/user/peterchao1/peterchao1/6991774_1675632262000000156220876/"
 Entering Link 1 = /sw/restricted/lms/sw/Gaussian/g16_B01/g16/l1.exe PID=     57613.
  
 Copyright (c) 1988-2017, Gaussian, Inc.  All Rights Reserved.
  
 This is part of the Gaussian(R) 16 program.  It is based on
 the Gaussian(R) 09 system (copyright 2009, Gaussian, Inc.),
 the Gaussian(R) 03 system (copyright 2003, Gaussian, Inc.),
 the Gaussian(R) 98 system (copyright 1998, Gaussian, Inc.),
 the Gaussian(R) 94 system (copyright 1995, Gaussian, Inc.),
 the Gaussian 92(TM) system (copyright 1992, Gaussian, Inc.),
 the Gaussian 90(TM) system (copyright 1990, Gaussian, Inc.),
 the Gaussian 88(TM) system (copyright 1988, Gaussian, Inc.),
 the Gaussian 86(TM) system (copyright 1986, Carnegie Mellon
 University), and the Gaussian 82(TM) system (copyright 1983,
 Carnegie Mellon University). Gaussian is a federally registered
 trademark of Gaussian, Inc.
  
 This software contains proprietary and confidential information,
 including trade secrets, belonging to Gaussian, Inc.
  
 This software is provided under written license and may be
 used, copied, transmitted, or stored only in accord with that
 written license.
  
 The following legend is applicable only to US Government
 contracts under FAR:
  
                    RESTRICTED RIGHTS LEGEND
  
 Use, reproduction and disclosure by the US Government is
 subject to restrictions as set forth in subparagraphs (a)
 and (c) of the Commercial Computer Software - Restricted
 Rights clause in FAR 52.227-19.
  
 Gaussian, Inc.
 340 Quinnipiac St., Bldg. 40, Wallingford CT 06492
  
  
 ---------------------------------------------------------------
 Warning -- This program may not be used in any manner that
 competes with the business of Gaussian, Inc. or will provide
 assistance to any competitor of Gaussian, Inc.  The licensee
 of this program is prohibited from giving any competitor of
 Gaussian, Inc. access to this program.  By using this program,
 the user acknowledges that Gaussian, Inc. is engaged in the
 business of creating and licensing software in the field of
 computational chemistry and represents and warrants to the
 licensee that it is not a competitor of Gaussian, Inc. and that
 it will not use this program in any manner prohibited above.
 ---------------------------------------------------------------
  

 Cite this work as:
 Gaussian 16, Revision B.01,
 M. J. Frisch, G. W. Trucks, H. B. Schlegel, G. E. Scuseria, 
 M. A. Robb, J. R. Cheeseman, G. Scalmani, V. Barone, 
 G. A. Petersson, H. Nakatsuji, X. Li, M. Caricato, A. V. Marenich, 
 J. Bloino, B. G. Janesko, R. Gomperts, B. Mennucci, H. P. Hratchian, 
 J. V. Ortiz, A. F. Izmaylov, J. L. Sonnenberg, D. Williams-Young, 
 F. Ding, F. Lipparini, F. Egidi, J. Goings, B. Peng, A. Petrone, 
 T. Henderson, D. Ranasinghe, V. G. Zakrzewski, J. Gao, N. Rega, 
 G. Zheng, W. Liang, M. Hada, M. Ehara, K. Toyota, R. Fukuda, 
 J. Hasegawa, M. Ishida, T. Nakajima, Y. Honda, O. Kitao, H. Nakai, 
 T. Vreven, K. Throssell, J. A. Montgomery, Jr., J. E. Peralta, 
 F. Ogliaro, M. J. Bearpark, J. J. Heyd, E. N. Brothers, K. N. Kudin, 
 V. N. Staroverov, T. A. Keith, R. Kobayashi, J. Normand, 
 K. Raghavachari, A. P. Rendell, J. C. Burant, S. S. Iyengar, 
 J. Tomasi, M. Cossi, J. M. Millam, M. Klene, C. Adamo, R. Cammi, 
 J. W. Ochterski, R. L. Martin, K. Morokuma, O. Farkas, 
 J. B. Foresman, and D. J. Fox, Gaussian, Inc., Wallingford CT, 2016.
 
 ******************************************
 Gaussian 16:  ES64L-G16RevB.01 20-Dec-2017
                 5-Feb-2023 
 ******************************************
 %nprocshared=4
 Will use up to    4 processors via shared memory.
 %mem=8000mb
 %chk=16.chk
 %nprocshared=4
 Will use up to    4 processors via shared memory.
 %mem=8000mb
 ----------------------------------------------------------------------
 #T wB97XD/def2svpp opt=tight freq int(grid=ultrafine) scf=(verytight,q
 c) Volume=tight
 ----------------------------------------------------------------------
 -----
 Dimer
 -----
 Symbolic Z-matrix:
 Charge =  0 Multiplicity = 1
 C                     1.72976  -2.58097   0.26943 
 C                     1.73706  -1.12646   0.72772 
 C                     2.85891  -0.23216   0.15886 
 C                     4.21016  -0.70487   0.70684 
 C                     2.9211   -0.29597  -1.37757 
 C                     1.65568   0.13872  -2.10936 
 C                     2.57202   1.19808   0.66407 
 C                     3.52798   2.28599   0.18641 
 H                     0.92928  -3.11588   0.77768 
 H                     2.66589  -3.07868   0.50762 
 H                     1.55687  -2.65962  -0.80054 
 H                     1.81435  -1.1075    1.81809 
 H                     0.77405  -0.68204   0.47048 
 H                     5.02035  -0.09136   0.32172 
 H                     4.40796  -1.73202   0.4118 
 H                     4.22293  -0.65065   1.7934 
 H                     3.16155  -1.32028  -1.66881 
 H                     3.75189   0.32759  -1.71347 
 H                     0.80792  -0.48598  -1.84205 
 H                     1.80895   0.05447  -3.18382 
 H                     1.40533   1.17247  -1.88688 
 H                     2.59194   1.17628   1.75704 
 H                     1.55882   1.47959   0.36982 
 H                     3.48862   2.40224  -0.89326 
 H                     4.55272   2.07006   0.47614 
 H                     3.24674   3.23656   0.63582 
 C                    -3.22225  -2.30078  -0.56922 
 C                    -2.3255   -1.08571  -0.78193 
 C                    -2.822     0.24503  -0.17677 
 C                    -4.11769   0.6699   -0.87678 
 C                    -3.11444   0.11604   1.32873 
 C                    -1.93119  -0.29371   2.19949 
 C                    -1.7217    1.28946  -0.45985 
 C                    -1.94783   2.68497   0.11197 
 H                    -2.78729  -3.16243  -1.07223 
 H                    -4.21501  -2.14039  -0.98068 
 H                    -3.31792  -2.54322   0.48567 
 H                    -2.19682  -0.93551  -1.85732 
 H                    -1.34017  -1.31427  -0.37117 
 H                    -3.95834   0.7707   -1.94828 
 H                    -4.47121   1.62217  -0.49033 
 H                    -4.90383  -0.06229  -0.71289 
 H                    -3.91666  -0.6124    1.46131 
 H                    -3.49904   1.07294   1.68694 
 H                    -2.24979  -0.36446   3.23795 
 H                    -1.12737   0.43569   2.14534 
 H                    -1.53813  -1.26253   1.90327 
 H                    -1.61056   1.37333  -1.54421 
 H                    -0.77438   0.9115   -0.07129 
 H                    -1.12617   3.33422  -0.18539 
 H                    -1.98353   2.66816   1.19793 
 H                    -2.86993   3.12342  -0.25966 
 
 Add virtual bond connecting atoms H39        and H13        Dist= 4.46D+00.
 Add virtual bond connecting atoms H49        and H13        Dist= 4.32D+00.
 Add virtual bond connecting atoms H49        and H23        Dist= 4.61D+00.

 GradGradGradGradGradGradGradGradGradGradGradGradGradGradGradGradGradGrad
 Initialization pass.
                           ----------------------------
                           !    Initial Parameters    !
                           ! (Angstroms and Degrees)  !
 --------------------------                            --------------------------
 ! Name  Definition              Value          Derivative Info.                !
 --------------------------------------------------------------------------------
 ! R1    R(1,2)                  1.525          estimate D2E/DX2                !
 ! R2    R(1,9)                  1.0887         estimate D2E/DX2                !
 ! R3    R(1,10)                 1.0866         estimate D2E/DX2                !
 ! R4    R(1,11)                 1.0867         estimate D2E/DX2                !
 ! R5    R(2,3)                  1.5433         estimate D2E/DX2                !
 ! R6    R(2,12)                 1.0933         estimate D2E/DX2                !
 ! R7    R(2,13)                 1.0914         estimate D2E/DX2                !
 ! R8    R(3,4)                  1.5328         estimate D2E/DX2                !
 ! R9    R(3,5)                  1.539          estimate D2E/DX2                !
 ! R10   R(3,7)                  1.5437         estimate D2E/DX2                !
 ! R11   R(4,14)                 1.0868         estimate D2E/DX2                !
 ! R12   R(4,15)                 1.0868         estimate D2E/DX2                !
 ! R13   R(4,16)                 1.088          estimate D2E/DX2                !
 ! R14   R(5,6)                  1.525          estimate D2E/DX2                !
 ! R15   R(5,17)                 1.0917         estimate D2E/DX2                !
 ! R16   R(5,18)                 1.0917         estimate D2E/DX2                !
 ! R17   R(6,19)                 1.0865         estimate D2E/DX2                !
 ! R18   R(6,20)                 1.0886         estimate D2E/DX2                !
 ! R19   R(6,21)                 1.0867         estimate D2E/DX2                !
 ! R20   R(7,8)                  1.525          estimate D2E/DX2                !
 ! R21   R(7,22)                 1.0934         estimate D2E/DX2                !
 ! R22   R(7,23)                 1.092          estimate D2E/DX2                !
 ! R23   R(8,24)                 1.0866         estimate D2E/DX2                !
 ! R24   R(8,25)                 1.0866         estimate D2E/DX2                !
 ! R25   R(8,26)                 1.0884         estimate D2E/DX2                !
 ! R26   R(13,39)                2.3618         estimate D2E/DX2                !
 ! R27   R(13,49)                2.287          estimate D2E/DX2                !
 ! R28   R(23,49)                2.4415         estimate D2E/DX2                !
 ! R29   R(27,28)                1.5251         estimate D2E/DX2                !
 ! R30   R(27,35)                1.0884         estimate D2E/DX2                !
 ! R31   R(27,36)                1.0866         estimate D2E/DX2                !
 ! R32   R(27,37)                1.0866         estimate D2E/DX2                !
 ! R33   R(28,29)                1.5439         estimate D2E/DX2                !
 ! R34   R(28,38)                1.0934         estimate D2E/DX2                !
 ! R35   R(28,39)                1.0917         estimate D2E/DX2                !
 ! R36   R(29,30)                1.5328         estimate D2E/DX2                !
 ! R37   R(29,31)                1.5391         estimate D2E/DX2                !
 ! R38   R(29,33)                1.5433         estimate D2E/DX2                !
 ! R39   R(30,40)                1.088          estimate D2E/DX2                !
 ! R40   R(30,41)                1.0868         estimate D2E/DX2                !
 ! R41   R(30,42)                1.0867         estimate D2E/DX2                !
 ! R42   R(31,32)                1.5252         estimate D2E/DX2                !
 ! R43   R(31,43)                1.0917         estimate D2E/DX2                !
 ! R44   R(31,44)                1.0917         estimate D2E/DX2                !
 ! R45   R(32,45)                1.0885         estimate D2E/DX2                !
 ! R46   R(32,46)                1.0868         estimate D2E/DX2                !
 ! R47   R(32,47)                1.0867         estimate D2E/DX2                !
 ! R48   R(33,34)                1.525          estimate D2E/DX2                !
 ! R49   R(33,48)                1.0933         estimate D2E/DX2                !
 ! R50   R(33,49)                1.0914         estimate D2E/DX2                !
 ! R51   R(34,50)                1.0886         estimate D2E/DX2                !
 ! R52   R(34,51)                1.0867         estimate D2E/DX2                !
 ! R53   R(34,52)                1.0866         estimate D2E/DX2                !
 ! A1    A(2,1,9)              109.3813         estimate D2E/DX2                !
 ! A2    A(2,1,10)             111.5217         estimate D2E/DX2                !
 ! A3    A(2,1,11)             111.4495         estimate D2E/DX2                !
 ! A4    A(9,1,10)             107.8215         estimate D2E/DX2                !
 ! A5    A(9,1,11)             107.8861         estimate D2E/DX2                !
 ! A6    A(10,1,11)            108.6465         estimate D2E/DX2                !
 ! A7    A(1,2,3)              116.4478         estimate D2E/DX2                !
 ! A8    A(1,2,12)             108.4569         estimate D2E/DX2                !
 ! A9    A(1,2,13)             108.2597         estimate D2E/DX2                !
 ! A10   A(3,2,12)             107.8292         estimate D2E/DX2                !
 ! A11   A(3,2,13)             108.5761         estimate D2E/DX2                !
 ! A12   A(12,2,13)            106.8819         estimate D2E/DX2                !
 ! A13   A(2,3,4)              109.288          estimate D2E/DX2                !
 ! A14   A(2,3,5)              111.9204         estimate D2E/DX2                !
 ! A15   A(2,3,7)              106.3285         estimate D2E/DX2                !
 ! A16   A(4,3,5)              107.9676         estimate D2E/DX2                !
 ! A17   A(4,3,7)              109.423          estimate D2E/DX2                !
 ! A18   A(5,3,7)              111.8787         estimate D2E/DX2                !
 ! A19   A(3,4,14)             110.8795         estimate D2E/DX2                !
 ! A20   A(3,4,15)             110.7839         estimate D2E/DX2                !
 ! A21   A(3,4,16)             110.6097         estimate D2E/DX2                !
 ! A22   A(14,4,15)            107.5562         estimate D2E/DX2                !
 ! A23   A(14,4,16)            108.4825         estimate D2E/DX2                !
 ! A24   A(15,4,16)            108.4251         estimate D2E/DX2                !
 ! A25   A(3,5,6)              115.7023         estimate D2E/DX2                !
 ! A26   A(3,5,17)             108.3083         estimate D2E/DX2                !
 ! A27   A(3,5,18)             108.3139         estimate D2E/DX2                !
 ! A28   A(6,5,17)             108.7951         estimate D2E/DX2                !
 ! A29   A(6,5,18)             108.7228         estimate D2E/DX2                !
 ! A30   A(17,5,18)            106.6318         estimate D2E/DX2                !
 ! A31   A(5,6,19)             111.438          estimate D2E/DX2                !
 ! A32   A(5,6,20)             109.5563         estimate D2E/DX2                !
 ! A33   A(5,6,21)             111.3511         estimate D2E/DX2                !
 ! A34   A(19,6,20)            107.951          estimate D2E/DX2                !
 ! A35   A(19,6,21)            108.4725         estimate D2E/DX2                !
 ! A36   A(20,6,21)            107.9477         estimate D2E/DX2                !
 ! A37   A(3,7,8)              116.228          estimate D2E/DX2                !
 ! A38   A(3,7,22)             107.7756         estimate D2E/DX2                !
 ! A39   A(3,7,23)             108.85           estimate D2E/DX2                !
 ! A40   A(8,7,22)             108.4159         estimate D2E/DX2                !
 ! A41   A(8,7,23)             108.2597         estimate D2E/DX2                !
 ! A42   A(22,7,23)            106.9424         estimate D2E/DX2                !
 ! A43   A(7,8,24)             111.3976         estimate D2E/DX2                !
 ! A44   A(7,8,25)             111.4632         estimate D2E/DX2                !
 ! A45   A(7,8,26)             109.3746         estimate D2E/DX2                !
 ! A46   A(24,8,25)            108.684          estimate D2E/DX2                !
 ! A47   A(24,8,26)            107.9066         estimate D2E/DX2                !
 ! A48   A(25,8,26)            107.8871         estimate D2E/DX2                !
 ! A49   A(2,13,39)            139.8973         estimate D2E/DX2                !
 ! A50   A(2,13,49)            159.5528         estimate D2E/DX2                !
 ! A51   A(39,13,49)            59.7365         estimate D2E/DX2                !
 ! A52   A(7,23,49)            151.0908         estimate D2E/DX2                !
 ! A53   A(28,27,35)           109.3472         estimate D2E/DX2                !
 ! A54   A(28,27,36)           111.5199         estimate D2E/DX2                !
 ! A55   A(28,27,37)           111.4043         estimate D2E/DX2                !
 ! A56   A(35,27,36)           107.8774         estimate D2E/DX2                !
 ! A57   A(35,27,37)           107.8913         estimate D2E/DX2                !
 ! A58   A(36,27,37)           108.6703         estimate D2E/DX2                !
 ! A59   A(27,28,29)           116.2929         estimate D2E/DX2                !
 ! A60   A(27,28,38)           108.4106         estimate D2E/DX2                !
 ! A61   A(27,28,39)           108.1454         estimate D2E/DX2                !
 ! A62   A(29,28,38)           107.755          estimate D2E/DX2                !
 ! A63   A(29,28,39)           108.8583         estimate D2E/DX2                !
 ! A64   A(38,28,39)           107.0134         estimate D2E/DX2                !
 ! A65   A(28,29,30)           109.376          estimate D2E/DX2                !
 ! A66   A(28,29,31)           111.857          estimate D2E/DX2                !
 ! A67   A(28,29,33)           106.3884         estimate D2E/DX2                !
 ! A68   A(30,29,31)           108.0205         estimate D2E/DX2                !
 ! A69   A(30,29,33)           109.3493         estimate D2E/DX2                !
 ! A70   A(31,29,33)           111.816          estimate D2E/DX2                !
 ! A71   A(29,30,40)           110.5886         estimate D2E/DX2                !
 ! A72   A(29,30,41)           110.8217         estimate D2E/DX2                !
 ! A73   A(29,30,42)           110.8472         estimate D2E/DX2                !
 ! A74   A(40,30,41)           108.4618         estimate D2E/DX2                !
 ! A75   A(40,30,42)           108.4759         estimate D2E/DX2                !
 ! A76   A(41,30,42)           107.5426         estimate D2E/DX2                !
 ! A77   A(29,31,32)           115.6948         estimate D2E/DX2                !
 ! A78   A(29,31,43)           108.3216         estimate D2E/DX2                !
 ! A79   A(29,31,44)           108.3265         estimate D2E/DX2                !
 ! A80   A(32,31,43)           108.7542         estimate D2E/DX2                !
 ! A81   A(32,31,44)           108.7511         estimate D2E/DX2                !
 ! A82   A(43,31,44)           106.6261         estimate D2E/DX2                !
 ! A83   A(31,32,45)           109.5756         estimate D2E/DX2                !
 ! A84   A(31,32,46)           111.4114         estimate D2E/DX2                !
 ! A85   A(31,32,47)           111.3777         estimate D2E/DX2                !
 ! A86   A(45,32,46)           107.917          estimate D2E/DX2                !
 ! A87   A(45,32,47)           107.9367         estimate D2E/DX2                !
 ! A88   A(46,32,47)           108.4965         estimate D2E/DX2                !
 ! A89   A(29,33,34)           116.4113         estimate D2E/DX2                !
 ! A90   A(29,33,48)           107.8387         estimate D2E/DX2                !
 ! A91   A(29,33,49)           108.6117         estimate D2E/DX2                !
 ! A92   A(34,33,48)           108.4691         estimate D2E/DX2                !
 ! A93   A(34,33,49)           108.186          estimate D2E/DX2                !
 ! A94   A(48,33,49)           106.9444         estimate D2E/DX2                !
 ! A95   A(33,34,50)           109.3551         estimate D2E/DX2                !
 ! A96   A(33,34,51)           111.4348         estimate D2E/DX2                !
 ! A97   A(33,34,52)           111.5212         estimate D2E/DX2                !
 ! A98   A(50,34,51)           107.8788         estimate D2E/DX2                !
 ! A99   A(50,34,52)           107.8449         estimate D2E/DX2                !
 ! A100  A(51,34,52)           108.6729         estimate D2E/DX2                !
 ! A101  A(13,39,28)           152.3731         estimate D2E/DX2                !
 ! A102  A(13,49,23)            58.1511         estimate D2E/DX2                !
 ! A103  A(13,49,33)           155.961          estimate D2E/DX2                !
 ! A104  A(23,49,33)           144.4074         estimate D2E/DX2                !
 ! D1    D(9,1,2,3)            177.0111         estimate D2E/DX2                !
 ! D2    D(9,1,2,12)            55.239          estimate D2E/DX2                !
 ! D3    D(9,1,2,13)           -60.3873         estimate D2E/DX2                !
 ! D4    D(10,1,2,3)            57.8359         estimate D2E/DX2                !
 ! D5    D(10,1,2,12)          -63.9362         estimate D2E/DX2                !
 ! D6    D(10,1,2,13)         -179.5625         estimate D2E/DX2                !
 ! D7    D(11,1,2,3)           -63.7786         estimate D2E/DX2                !
 ! D8    D(11,1,2,12)          174.4493         estimate D2E/DX2                !
 ! D9    D(11,1,2,13)           58.823          estimate D2E/DX2                !
 ! D10   D(1,2,3,4)            -67.0448         estimate D2E/DX2                !
 ! D11   D(1,2,3,5)             52.5011         estimate D2E/DX2                !
 ! D12   D(1,2,3,7)            174.9438         estimate D2E/DX2                !
 ! D13   D(12,2,3,4)            55.0573         estimate D2E/DX2                !
 ! D14   D(12,2,3,5)           174.6032         estimate D2E/DX2                !
 ! D15   D(12,2,3,7)           -62.9541         estimate D2E/DX2                !
 ! D16   D(13,2,3,4)           170.5189         estimate D2E/DX2                !
 ! D17   D(13,2,3,5)           -69.9352         estimate D2E/DX2                !
 ! D18   D(13,2,3,7)            52.5075         estimate D2E/DX2                !
 ! D19   D(1,2,13,39)            7.5965         estimate D2E/DX2                !
 ! D20   D(1,2,13,49)         -153.3629         estimate D2E/DX2                !
 ! D21   D(3,2,13,39)          134.8727         estimate D2E/DX2                !
 ! D22   D(3,2,13,49)          -26.0867         estimate D2E/DX2                !
 ! D23   D(12,2,13,39)        -109.0523         estimate D2E/DX2                !
 ! D24   D(12,2,13,49)          89.9883         estimate D2E/DX2                !
 ! D25   D(2,3,4,14)           179.9987         estimate D2E/DX2                !
 ! D26   D(2,3,4,15)            60.6523         estimate D2E/DX2                !
 ! D27   D(2,3,4,16)           -59.607          estimate D2E/DX2                !
 ! D28   D(5,3,4,14)            58.0414         estimate D2E/DX2                !
 ! D29   D(5,3,4,15)           -61.305          estimate D2E/DX2                !
 ! D30   D(5,3,4,16)           178.4357         estimate D2E/DX2                !
 ! D31   D(7,3,4,14)           -63.9462         estimate D2E/DX2                !
 ! D32   D(7,3,4,15)           176.7074         estimate D2E/DX2                !
 ! D33   D(7,3,4,16)            56.4481         estimate D2E/DX2                !
 ! D34   D(2,3,5,6)             59.5988         estimate D2E/DX2                !
 ! D35   D(2,3,5,17)           -62.805          estimate D2E/DX2                !
 ! D36   D(2,3,5,18)          -178.0876         estimate D2E/DX2                !
 ! D37   D(4,3,5,6)            179.9178         estimate D2E/DX2                !
 ! D38   D(4,3,5,17)            57.514          estimate D2E/DX2                !
 ! D39   D(4,3,5,18)           -57.7686         estimate D2E/DX2                !
 ! D40   D(7,3,5,6)            -59.6215         estimate D2E/DX2                !
 ! D41   D(7,3,5,17)           177.9747         estimate D2E/DX2                !
 ! D42   D(7,3,5,18)            62.6921         estimate D2E/DX2                !
 ! D43   D(2,3,7,8)           -177.8318         estimate D2E/DX2                !
 ! D44   D(2,3,7,22)            60.313          estimate D2E/DX2                !
 ! D45   D(2,3,7,23)           -55.3332         estimate D2E/DX2                !
 ! D46   D(4,3,7,8)             64.2461         estimate D2E/DX2                !
 ! D47   D(4,3,7,22)           -57.6091         estimate D2E/DX2                !
 ! D48   D(4,3,7,23)          -173.2553         estimate D2E/DX2                !
 ! D49   D(5,3,7,8)            -55.3627         estimate D2E/DX2                !
 ! D50   D(5,3,7,22)          -177.2179         estimate D2E/DX2                !
 ! D51   D(5,3,7,23)            67.1358         estimate D2E/DX2                !
 ! D52   D(3,5,6,19)           -60.5918         estimate D2E/DX2                !
 ! D53   D(3,5,6,20)          -179.9893         estimate D2E/DX2                !
 ! D54   D(3,5,6,21)            60.672          estimate D2E/DX2                !
 ! D55   D(17,5,6,19)           61.5533         estimate D2E/DX2                !
 ! D56   D(17,5,6,20)          -57.8442         estimate D2E/DX2                !
 ! D57   D(17,5,6,21)         -177.1829         estimate D2E/DX2                !
 ! D58   D(18,5,6,19)          177.312          estimate D2E/DX2                !
 ! D59   D(18,5,6,20)           57.9145         estimate D2E/DX2                !
 ! D60   D(18,5,6,21)          -61.4242         estimate D2E/DX2                !
 ! D61   D(3,7,8,24)            62.8933         estimate D2E/DX2                !
 ! D62   D(3,7,8,25)           -58.6918         estimate D2E/DX2                !
 ! D63   D(3,7,8,26)          -177.9075         estimate D2E/DX2                !
 ! D64   D(22,7,8,24)         -175.5905         estimate D2E/DX2                !
 ! D65   D(22,7,8,25)           62.8244         estimate D2E/DX2                !
 ! D66   D(22,7,8,26)          -56.3913         estimate D2E/DX2                !
 ! D67   D(23,7,8,24)          -59.9144         estimate D2E/DX2                !
 ! D68   D(23,7,8,25)          178.5005         estimate D2E/DX2                !
 ! D69   D(23,7,8,26)           59.2847         estimate D2E/DX2                !
 ! D70   D(3,7,23,49)           33.8526         estimate D2E/DX2                !
 ! D71   D(8,7,23,49)          161.0378         estimate D2E/DX2                !
 ! D72   D(22,7,23,49)         -82.3297         estimate D2E/DX2                !
 ! D73   D(2,13,39,28)        -168.4579         estimate D2E/DX2                !
 ! D74   D(49,13,39,28)          3.9597         estimate D2E/DX2                !
 ! D75   D(2,13,49,23)          -1.5459         estimate D2E/DX2                !
 ! D76   D(2,13,49,33)         161.6559         estimate D2E/DX2                !
 ! D77   D(39,13,49,23)       -167.4641         estimate D2E/DX2                !
 ! D78   D(39,13,49,33)         -4.2623         estimate D2E/DX2                !
 ! D79   D(7,23,49,13)          -3.7845         estimate D2E/DX2                !
 ! D80   D(7,23,49,33)        -172.1145         estimate D2E/DX2                !
 ! D81   D(35,27,28,29)        177.7748         estimate D2E/DX2                !
 ! D82   D(35,27,28,38)         56.2447         estimate D2E/DX2                !
 ! D83   D(35,27,28,39)        -59.4518         estimate D2E/DX2                !
 ! D84   D(36,27,28,29)         58.5534         estimate D2E/DX2                !
 ! D85   D(36,27,28,38)        -62.9766         estimate D2E/DX2                !
 ! D86   D(36,27,28,39)       -178.6732         estimate D2E/DX2                !
 ! D87   D(37,27,28,29)        -63.0586         estimate D2E/DX2                !
 ! D88   D(37,27,28,38)        175.4114         estimate D2E/DX2                !
 ! D89   D(37,27,28,39)         59.7148         estimate D2E/DX2                !
 ! D90   D(27,28,29,30)        -64.8475         estimate D2E/DX2                !
 ! D91   D(27,28,29,31)         54.7825         estimate D2E/DX2                !
 ! D92   D(27,28,29,33)        177.1492         estimate D2E/DX2                !
 ! D93   D(38,28,29,30)         57.029          estimate D2E/DX2                !
 ! D94   D(38,28,29,31)        176.6591         estimate D2E/DX2                !
 ! D95   D(38,28,29,33)        -60.9742         estimate D2E/DX2                !
 ! D96   D(39,28,29,30)        172.7523         estimate D2E/DX2                !
 ! D97   D(39,28,29,31)        -67.6177         estimate D2E/DX2                !
 ! D98   D(39,28,29,33)         54.749          estimate D2E/DX2                !
 ! D99   D(27,28,39,13)       -159.9825         estimate D2E/DX2                !
 ! D100  D(29,28,39,13)        -32.788          estimate D2E/DX2                !
 ! D101  D(38,28,39,13)         83.4121         estimate D2E/DX2                !
 ! D102  D(28,29,30,40)        -57.8486         estimate D2E/DX2                !
 ! D103  D(28,29,30,41)       -178.1648         estimate D2E/DX2                !
 ! D104  D(28,29,30,42)         62.5021         estimate D2E/DX2                !
 ! D105  D(31,29,30,40)       -179.814          estimate D2E/DX2                !
 ! D106  D(31,29,30,41)         59.8698         estimate D2E/DX2                !
 ! D107  D(31,29,30,42)        -59.4633         estimate D2E/DX2                !
 ! D108  D(33,29,30,40)         58.2866         estimate D2E/DX2                !
 ! D109  D(33,29,30,41)        -62.0296         estimate D2E/DX2                !
 ! D110  D(33,29,30,42)        178.6373         estimate D2E/DX2                !
 ! D111  D(28,29,31,32)         59.9587         estimate D2E/DX2                !
 ! D112  D(28,29,31,43)        -62.3967         estimate D2E/DX2                !
 ! D113  D(28,29,31,44)       -177.6861         estimate D2E/DX2                !
 ! D114  D(30,29,31,32)       -179.6175         estimate D2E/DX2                !
 ! D115  D(30,29,31,43)         58.0272         estimate D2E/DX2                !
 ! D116  D(30,29,31,44)        -57.2623         estimate D2E/DX2                !
 ! D117  D(33,29,31,32)        -59.2518         estimate D2E/DX2                !
 ! D118  D(33,29,31,43)        178.3928         estimate D2E/DX2                !
 ! D119  D(33,29,31,44)         63.1034         estimate D2E/DX2                !
 ! D120  D(28,29,33,34)       -176.8301         estimate D2E/DX2                !
 ! D121  D(28,29,33,48)         61.0695         estimate D2E/DX2                !
 ! D122  D(28,29,33,49)        -54.489          estimate D2E/DX2                !
 ! D123  D(30,29,33,34)         65.149          estimate D2E/DX2                !
 ! D124  D(30,29,33,48)        -56.9513         estimate D2E/DX2                !
 ! D125  D(30,29,33,49)       -172.5099         estimate D2E/DX2                !
 ! D126  D(31,29,33,34)        -54.4375         estimate D2E/DX2                !
 ! D127  D(31,29,33,48)       -176.5379         estimate D2E/DX2                !
 ! D128  D(31,29,33,49)         67.9036         estimate D2E/DX2                !
 ! D129  D(29,31,32,45)       -179.4222         estimate D2E/DX2                !
 ! D130  D(29,31,32,46)         61.2268         estimate D2E/DX2                !
 ! D131  D(29,31,32,47)        -60.0678         estimate D2E/DX2                !
 ! D132  D(43,31,32,45)        -57.2968         estimate D2E/DX2                !
 ! D133  D(43,31,32,46)       -176.6478         estimate D2E/DX2                !
 ! D134  D(43,31,32,47)         62.0575         estimate D2E/DX2                !
 ! D135  D(44,31,32,45)         58.4483         estimate D2E/DX2                !
 ! D136  D(44,31,32,46)        -60.9026         estimate D2E/DX2                !
 ! D137  D(44,31,32,47)        177.8027         estimate D2E/DX2                !
 ! D138  D(29,33,34,50)       -177.9231         estimate D2E/DX2                !
 ! D139  D(29,33,34,51)         62.9016         estimate D2E/DX2                !
 ! D140  D(29,33,34,52)        -58.7362         estimate D2E/DX2                !
 ! D141  D(48,33,34,50)        -56.1545         estimate D2E/DX2                !
 ! D142  D(48,33,34,51)       -175.3298         estimate D2E/DX2                !
 ! D143  D(48,33,34,52)         63.0325         estimate D2E/DX2                !
 ! D144  D(49,33,34,50)         59.513          estimate D2E/DX2                !
 ! D145  D(49,33,34,51)        -59.6623         estimate D2E/DX2                !
 ! D146  D(49,33,34,52)        178.7            estimate D2E/DX2                !
 ! D147  D(29,33,49,13)         33.0032         estimate D2E/DX2                !
 ! D148  D(29,33,49,23)       -171.9446         estimate D2E/DX2                !
 ! D149  D(34,33,49,13)        160.2081         estimate D2E/DX2                !
 ! D150  D(34,33,49,23)        -44.7397         estimate D2E/DX2                !
 ! D151  D(48,33,49,13)        -83.1335         estimate D2E/DX2                !
 ! D152  D(48,33,49,23)         71.9187         estimate D2E/DX2                !
 --------------------------------------------------------------------------------
 Number of steps in this run=    312 maximum allowed number of steps=    312.
 GradGradGradGradGradGradGradGradGradGradGradGradGradGradGradGradGradGrad

 Framework group  C1[X(C16H36)]
 Deg. of freedom   150
                         Standard orientation:                         
 ---------------------------------------------------------------------
 Center     Atomic      Atomic             Coordinates (Angstroms)
 Number     Number       Type             X           Y           Z
 ---------------------------------------------------------------------
      1          6           0        1.724213   -2.585046    0.265570
      2          6           0        1.735064   -1.131176    0.725810
      3          6           0        2.858848   -0.238752    0.157842
      4          6           0        4.209141   -0.715372    0.704804
      5          6           0        2.920467   -0.300644   -1.378694
      6          6           0        1.655874    0.138008   -2.109546
      7          6           0        2.575468    1.191474    0.665057
      8          6           0        3.533844    2.277780    0.188593
      9          1           0        0.922619   -3.118759    0.773324
     10          1           0        2.659242   -3.085279    0.502829
     11          1           0        1.550847   -2.661853   -0.804458
     12          1           0        1.812692   -1.113868    1.816187
     13          1           0        0.773031   -0.684154    0.469433
     14          1           0        5.020663   -0.103252    0.320286
     15          1           0        4.404447   -1.742589    0.408333
     16          1           0        4.222340   -0.662647    1.791438
     17          1           0        3.158432   -1.325121   -1.671379
     18          1           0        3.752626    0.321421   -1.713980
     19          1           0        0.806720   -0.485064   -1.842831
     20          1           0        1.808644    0.054842   -3.184155
     21          1           0        1.408014    1.172041   -1.885601
     22          1           0        2.595638    1.168159    1.757985
     23          1           0        1.562843    1.475765    0.371469
     24          1           0        3.494465    2.395575   -0.890915
     25          1           0        4.558152    2.059059    0.477742
     26          1           0        3.254967    3.228407    0.639356
     27          6           0       -3.227354   -2.292097   -0.571319
     28          6           0       -2.327804   -1.078855   -0.782652
     29          6           0       -2.821016    0.252235   -0.175561
     30          6           0       -4.115895    0.681093   -0.874639
     31          6           0       -3.113338    0.121905    1.329851
     32          6           0       -1.930818   -0.291792    2.199720
     33          6           0       -1.718342    1.294461   -0.457547
     34          6           0       -1.941029    2.689722    0.116219
     35          1           0       -2.794559   -3.154088   -1.075608
     36          1           0       -4.219845   -2.128820   -0.982289
     37          1           0       -3.323304   -2.535732    0.483269
     38          1           0       -2.199072   -0.927509   -1.857871
     39          1           0       -1.342901   -1.310283   -0.372471
     40          1           0       -3.956599    0.782957   -1.946049
     41          1           0       -4.467070    1.633662   -0.486810
     42          1           0       -4.903711   -0.049471   -0.711516
     43          1           0       -3.917237   -0.604823    1.461672
     44          1           0       -3.495595    1.079227    1.689454
     45          1           0       -2.249292   -0.363196    3.238172
     46          1           0       -1.125302    0.435784    2.146328
     47          1           0       -1.540111   -1.261135    1.902092
     48          1           0       -1.607305    1.379528   -1.541818
     49          1           0       -0.771809    0.913748   -0.069753
     50          1           0       -1.117934    3.337440   -0.180504
     51          1           0       -1.976469    2.671534    1.202158
     52          1           0       -2.862199    3.130835   -0.254568
 ---------------------------------------------------------------------
 Rotational constants (GHZ):           0.6579126           0.2443715           0.2206306
   296 basis functions,   544 primitive gaussians,   312 cartesian basis functions
    66 alpha electrons       66 beta electrons
       nuclear repulsion energy      1256.4693145052 Hartrees.
 NAtoms=   52 NActive=   52 NUniq=   52 SFac= 1.00D+00 NAtFMM=   60 NAOKFM=F Big=F
 Nuclear repulsion after empirical dispersion term =     1256.4178706386 Hartrees.
   1 Symmetry operations used in ECPInt.
 ECPInt:  NShTT=   14196 NPrTT=   56932 LenC2=   13580 LenP2D=   38176.
 LDataN:  DoStor=T MaxTD1= 4 Len=   56
 ExpMin= 1.22D-01 ExpMax= 1.24D+03 ExpMxC= 1.86D+02 IAcc=3 IRadAn=         5 AccDes= 0.00D+00
 Harris functional with IExCor= 4639 and IRadAn=       5 diagonalized for initial guess.
 HarFok:  IExCor= 4639 AccDes= 0.00D+00 IRadAn=         5 IDoV= 1 UseB2=F ITyADJ=14
 ICtDFT=  3500011 ScaDFX=  1.000000  1.000000  1.000000  1.000000
 FoFCou: FMM=F IPFlag=           0 FMFlag=      100000 FMFlg1=           0
         NFxFlg=           0 DoJE=T BraDBF=F KetDBF=T FulRan=T
         wScrn=  0.000000 ICntrl=       500 IOpCl=  0 I1Cent=   200000004 NGrid=           0
         NMat0=    1 NMatS0=      1 NMatT0=    0 NMatD0=    1 NMtDS0=    0 NMtDT0=    0
 Petite list used in FoFCou.
     Minimum is close to point  3 DX=  3.83D-02 DF= -4.47D-04 DXR=  6.00D-02 DFR=  3.61D-03 which will be used.
     Minimum is close to point  3 DX=  5.88D-02 DF= -4.47D-05 DXR=  6.13D-02 DFR=  3.77D-03 which will be used.
     Accept linear search using points  1 and  2.
     Accept linear search using points  1 and  2.
     Minimum is close to point  2 DX= -1.66D-04 DF= -3.41D-13 DXR=  1.66D-04 DFR=  2.94D-08 which will be used.
 SCF Done:  E(RwB97XD) =  -630.715102563     a.u. after    6 cycles
            Convg  =    0.1029D-05                    21 Fock formations.
              S**2 =  0.0000                  -V/T =  2.0110

 **********************************************************************

            Population analysis using the SCF Density.

 **********************************************************************

 Orbital symmetries:
       Occupied  (A) (A) (A) (A) (A) (A) (A) (A) (A) (A) (A) (A)
                 (A) (A) (A) (A) (A) (A) (A) (A) (A) (A) (A) (A)
                 (A) (A) (A) (A) (A) (A) (A) (A) (A) (A) (A) (A)
                 (A) (A) (A) (A) (A) (A) (A) (A) (A) (A) (A) (A)
                 (A) (A) (A) (A) (A) (A) (A) (A) (A) (A) (A) (A)
                 (A) (A) (A) (A) (A) (A)
       Virtual   (A) (A) (A) (A) (A) (A) (A) (A) (A) (A) (A) (A)
                 (A) (A) (A) (A) (A) (A) (A) (A) (A) (A) (A) (A)
                 (A) (A) (A) (A) (A) (A) (A) (A) (A) (A) (A) (A)
                 (A) (A) (A) (A) (A) (A) (A) (A) (A) (A) (A) (A)
                 (A) (A) (A) (A) (A) (A) (A) (A) (A) (A) (A) (A)
                 (A) (A) (A) (A) (A) (A) (A) (A) (A) (A) (A) (A)
                 (A) (A) (A) (A) (A) (A) (A) (A) (A) (A) (A) (A)
                 (A) (A) (A) (A) (A) (A) (A) (A) (A) (A) (A) (A)
                 (A) (A) (A) (A) (A) (A) (A) (A) (A) (A) (A) (A)
                 (A) (A) (A) (A) (A) (A) (A) (A) (A) (A) (A) (A)
                 (A) (A) (A) (A) (A) (A) (A) (A) (A) (A) (A) (A)
                 (A) (A) (A) (A) (A) (A) (A) (A) (A) (A) (A) (A)
                 (A) (A) (A) (A) (A) (A) (A) (A) (A) (A) (A) (A)
                 (A) (A) (A) (A) (A) (A) (A) (A) (A) (A) (A) (A)
                 (A) (A) (A) (A) (A) (A) (A) (A) (A) (A) (A) (A)
                 (A) (A) (A) (A) (A) (A) (A) (A) (A) (A) (A) (A)
                 (A) (A) (A) (A) (A) (A) (A) (A) (A) (A) (A) (A)
                 (A) (A) (A) (A) (A) (A) (A) (A) (A) (A) (A) (A)
                 (A) (A) (A) (A) (A) (A) (A) (A) (A) (A) (A) (A)
                 (A) (A)
 The electronic state is 1-A.
 Alpha  occ. eigenvalues --  -10.29629 -10.29595 -10.27896 -10.27848 -10.27846
 Alpha  occ. eigenvalues --  -10.27833 -10.27819 -10.27772 -10.27251 -10.27243
 Alpha  occ. eigenvalues --  -10.27234 -10.27227 -10.27199 -10.27170 -10.26869
 Alpha  occ. eigenvalues --  -10.26850  -0.92692  -0.92591  -0.84340  -0.84271
 Alpha  occ. eigenvalues --   -0.83558  -0.83460  -0.80230  -0.80093  -0.74270
 Alpha  occ. eigenvalues --   -0.74191  -0.71064  -0.70811  -0.68199  -0.68161
 Alpha  occ. eigenvalues --   -0.60431  -0.60292  -0.56589  -0.56512  -0.56383
 Alpha  occ. eigenvalues --   -0.55531  -0.54127  -0.53803  -0.50713  -0.50677
 Alpha  occ. eigenvalues --   -0.49190  -0.49137  -0.48938  -0.48814  -0.48370
 Alpha  occ. eigenvalues --   -0.48235  -0.47287  -0.47209  -0.45697  -0.45628
 Alpha  occ. eigenvalues --   -0.45502  -0.45042  -0.43413  -0.43231  -0.42825
 Alpha  occ. eigenvalues --   -0.42448  -0.42401  -0.42340  -0.41231  -0.41144
 Alpha  occ. eigenvalues --   -0.38963  -0.38150  -0.37962  -0.37917  -0.37671
 Alpha  occ. eigenvalues --   -0.37518
 Alpha virt. eigenvalues --    0.11456   0.13567   0.13857   0.14983   0.15465
 Alpha virt. eigenvalues --    0.16657   0.17637   0.17951   0.18116   0.18712
 Alpha virt. eigenvalues --    0.18888   0.19076   0.19591   0.20590   0.21136
 Alpha virt. eigenvalues --    0.21707   0.22000   0.22294   0.22370   0.22516
 Alpha virt. eigenvalues --    0.23632   0.23869   0.24181   0.24392   0.25583
 Alpha virt. eigenvalues --    0.25803   0.26553   0.27074   0.27970   0.28478
 Alpha virt. eigenvalues --    0.28634   0.29032   0.29177   0.29564   0.30596
 Alpha virt. eigenvalues --    0.30745   0.30990   0.31246   0.31888   0.32178
 Alpha virt. eigenvalues --    0.32893   0.33219   0.34576   0.34797   0.34881
 Alpha virt. eigenvalues --    0.35350   0.35560   0.36790   0.38434   0.40550
 Alpha virt. eigenvalues --    0.47502   0.49621   0.50241   0.50798   0.51546
 Alpha virt. eigenvalues --    0.52002   0.52906   0.53031   0.53445   0.53798
 Alpha virt. eigenvalues --    0.55420   0.56938   0.57438   0.58179   0.59337
 Alpha virt. eigenvalues --    0.59566   0.60887   0.61365   0.63262   0.64669
 Alpha virt. eigenvalues --    0.65166   0.66493   0.68367   0.68624   0.69502
 Alpha virt. eigenvalues --    0.69855   0.70804   0.71369   0.72535   0.74129
 Alpha virt. eigenvalues --    0.75276   0.75802   0.76545   0.77109   0.77517
 Alpha virt. eigenvalues --    0.77826   0.78061   0.78675   0.78954   0.79322
 Alpha virt. eigenvalues --    0.79676   0.79814   0.80432   0.80708   0.81453
 Alpha virt. eigenvalues --    0.81551   0.81608   0.81719   0.82041   0.82140
 Alpha virt. eigenvalues --    0.82534   0.82710   0.83068   0.83226   0.83775
 Alpha virt. eigenvalues --    0.83985   0.84252   0.84478   0.84863   0.85367
 Alpha virt. eigenvalues --    0.86117   0.86321   0.86621   0.86931   0.87606
 Alpha virt. eigenvalues --    0.87754   0.88156   0.88385   0.88655   0.89130
 Alpha virt. eigenvalues --    0.89619   0.90414   0.91947   0.93315   0.93578
 Alpha virt. eigenvalues --    0.95474   0.97126   0.99907   1.01783   1.02245
 Alpha virt. eigenvalues --    1.03210   1.04188   1.04721   1.07976   1.08657
 Alpha virt. eigenvalues --    1.10858   1.12520   1.14288   1.16151   1.17229
 Alpha virt. eigenvalues --    1.18821   1.22396   1.25309   1.27823   1.29936
 Alpha virt. eigenvalues --    1.31408   1.32452   1.35534   1.38197   1.39246
 Alpha virt. eigenvalues --    1.44299   1.44508   1.49859   1.50053   1.64629
 Alpha virt. eigenvalues --    1.64929   1.68379   1.68615   1.68809   1.69036
 Alpha virt. eigenvalues --    1.78343   1.79209   1.84236   1.84976   1.88819
 Alpha virt. eigenvalues --    1.89224   1.95881   1.96486   1.96737   1.97630
 Alpha virt. eigenvalues --    1.98850   1.99134   2.01064   2.01886   2.02811
 Alpha virt. eigenvalues --    2.03037   2.03346   2.03628   2.03989   2.04946
 Alpha virt. eigenvalues --    2.07690   2.08529   2.10037   2.10740   2.14267
 Alpha virt. eigenvalues --    2.14565   2.15212   2.15963   2.16475   2.16676
 Alpha virt. eigenvalues --    2.20409   2.21356   2.22031   2.22591   2.29256
 Alpha virt. eigenvalues --    2.29508   2.30547   2.31907   2.32255   2.33015
 Alpha virt. eigenvalues --    2.33435   2.34060   2.34420   2.34525   2.34857
 Alpha virt. eigenvalues --    2.35862   2.37594   2.37828   2.38325   2.38417
 Alpha virt. eigenvalues --    2.40865   2.41036   2.43717   2.44301   2.52834
 Alpha virt. eigenvalues --    2.53215   2.63063   2.63236   2.64903   2.64967
 Alpha virt. eigenvalues --    2.65286   2.65433   2.82828   2.83071   2.84106
 Alpha virt. eigenvalues --    2.84306   2.87336   2.87642   2.87994   2.88687
          Condensed to atoms (all electrons):
 Mulliken charges:
               1
     1  C   -0.297291
     2  C   -0.221464
     3  C   -0.246761
     4  C   -0.251149
     5  C   -0.185447
     6  C   -0.321022
     7  C   -0.199991
     8  C   -0.296450
     9  H    0.116665
    10  H    0.115203
    11  H    0.117210
    12  H    0.093598
    13  H    0.130404
    14  H    0.112838
    15  H    0.111812
    16  H    0.105086
    17  H    0.098920
    18  H    0.099074
    19  H    0.124748
    20  H    0.115274
    21  H    0.118920
    22  H    0.092513
    23  H    0.117431
    24  H    0.116585
    25  H    0.114509
    26  H    0.114623
    27  C   -0.293535
    28  C   -0.210412
    29  C   -0.248850
    30  C   -0.251852
    31  C   -0.186319
    32  C   -0.317718
    33  C   -0.227297
    34  C   -0.296156
    35  H    0.114798
    36  H    0.114585
    37  H    0.116361
    38  H    0.097504
    39  H    0.123886
    40  H    0.105300
    41  H    0.112473
    42  H    0.112572
    43  H    0.099433
    44  H    0.099347
    45  H    0.116036
    46  H    0.121053
    47  H    0.121618
    48  H    0.096634
    49  H    0.138166
    50  H    0.115491
    51  H    0.116589
    52  H    0.114455
 Sum of Mulliken charges =   0.00000
 Mulliken charges with hydrogens summed into heavy atoms:
               1
     1  C    0.051788
     2  C    0.002538
     3  C   -0.246761
     4  C    0.078587
     5  C    0.012546
     6  C    0.037920
     7  C    0.009954
     8  C    0.049266
    27  C    0.052210
    28  C    0.010977
    29  C   -0.248850
    30  C    0.078494
    31  C    0.012461
    32  C    0.040989
    33  C    0.007503
    34  C    0.050379
 Electronic spatial extent (au):  <R**2>=           5724.8079
 Charge=              0.0000 electrons
 Dipole moment (field-independent basis, Debye):
    X=             -0.0321    Y=             -0.0040    Z=              0.0124  Tot=              0.0346
 Evaluate density.
 Using the total density.
 Monte-Carlo method of calculating molar volume:
 based on  0.001 e/bohr**3 density envelope.
 Number of points per bohr**3 =  100 CutOff= 1.00D-04
 Using the SCF density.
 There are      2410 points.  Will hold      2410 in memory.
 LenV=  1047721656 MDV=  1048576000.
 Box volume =13997.530 fraction occupied=0.182
 Integrated density= 1.7914808251107684D+02 error= 4.7148082511076836D+01
 Molar volume = 2543.949 bohr**3/mol (227.019 cm**3/mol)
 Recommended a0 for SCRF calculation =  5.43 angstrom ( 10.27 bohr)
   1 Symmetry operations used in ECPInt.
 ECPInt:  NShTT=   14196 NPrTT=   56932 LenC2=   13580 LenP2D=   38176.
 LDataN:  DoStor=T MaxTD1= 5 Len=  102
 Calling FoFJK, ICntrl=      2127 FMM=F ISym2X=0 I1Cent= 0 IOpClX= 0 NMat=1 NMatS=1 NMatT=0.

 GradGradGradGradGradGradGradGradGradGradGradGradGradGradGradGradGradGrad
 FormGI is forming the generalized inverse of G from B-inverse, IUseBI=4.
 Internal  Forces:  Max     0.011706635 RMS     0.003667873
 Step number   1 out of a maximum of  312
 All quantities printed in internal units (Hartrees-Bohrs-Radians)
 Mixed Optimization -- RFO/linear search
 Second derivative matrix not updated -- first step.
 ITU=  0
     Eigenvalues ---    0.00230   0.00243   0.00249   0.00250   0.00253
     Eigenvalues ---    0.00263   0.00280   0.00331   0.00333   0.00433
     Eigenvalues ---    0.00434   0.00435   0.00435   0.00436   0.00436
     Eigenvalues ---    0.00465   0.00485   0.01815   0.01866   0.02026
     Eigenvalues ---    0.02639   0.02924   0.03023   0.03253   0.03253
     Eigenvalues ---    0.03674   0.04099   0.04152   0.04399   0.04550
     Eigenvalues ---    0.04585   0.04668   0.04668   0.04764   0.04765
     Eigenvalues ---    0.04888   0.05154   0.05182   0.05466   0.05467
     Eigenvalues ---    0.05470   0.05476   0.05487   0.05489   0.05533
     Eigenvalues ---    0.05537   0.05556   0.05556   0.05722   0.05725
     Eigenvalues ---    0.05746   0.05750   0.05750   0.05751   0.06365
     Eigenvalues ---    0.06687   0.07710   0.07803   0.08815   0.08816
     Eigenvalues ---    0.09348   0.10244   0.11205   0.12549   0.12550
     Eigenvalues ---    0.12717   0.12747   0.13162   0.13487   0.14560
     Eigenvalues ---    0.15061   0.15168   0.16000   0.16000   0.16000
     Eigenvalues ---    0.16000   0.16000   0.16000   0.16000   0.16000
     Eigenvalues ---    0.16000   0.16000   0.16000   0.16000   0.16000
     Eigenvalues ---    0.16000   0.16000   0.16000   0.16000   0.16000
     Eigenvalues ---    0.16000   0.16000   0.16000   0.16000   0.16000
     Eigenvalues ---    0.16000   0.16729   0.16767   0.21981   0.21981
     Eigenvalues ---    0.26552   0.26949   0.27189   0.27250   0.28602
     Eigenvalues ---    0.28606   0.29162   0.29170   0.29873   0.29884
     Eigenvalues ---    0.29886   0.29888   0.29892   0.29892   0.31806
     Eigenvalues ---    0.31907   0.34420   0.34427   0.34437   0.34439
     Eigenvalues ---    0.34606   0.34612   0.34614   0.34615   0.34619
     Eigenvalues ---    0.34620   0.34966   0.34974   0.34976   0.34983
     Eigenvalues ---    0.34996   0.34996   0.35046   0.35049   0.35181
     Eigenvalues ---    0.35186   0.35186   0.35188   0.35193   0.35197
     Eigenvalues ---    0.35200   0.35200   0.35203   0.35203   0.35205
     Eigenvalues ---    0.35207   0.35211   0.35213   0.35214   0.35224
 Linear search not attempted -- first point.
 Iteration  1 RMS(Cart)=  0.02660216 RMS(Int)=  0.00017382
 Iteration  2 RMS(Cart)=  0.00028494 RMS(Int)=  0.00003447
 Iteration  3 RMS(Cart)=  0.00000007 RMS(Int)=  0.00003447
 Variable       Old X    -DE/DX   Delta X   Delta X   Delta X     New X
                                 (Linear)    (Quad)   (Total)
    R1        2.88186   0.00402   0.00000   0.01291   0.01291   2.89478
    R2        2.05730   0.01018   0.00000   0.02808   0.02808   2.08539
    R3        2.05347   0.01108   0.00000   0.03038   0.03038   2.08385
    R4        2.05356   0.01111   0.00000   0.03046   0.03046   2.08403
    R5        2.91649   0.00378   0.00000   0.01288   0.01289   2.92938
    R6        2.06599   0.00822   0.00000   0.02302   0.02302   2.08901
    R7        2.06237   0.00749   0.00000   0.02081   0.02081   2.08318
    R8        2.89666   0.00471   0.00000   0.01546   0.01546   2.91213
    R9        2.90832   0.00393   0.00000   0.01315   0.01315   2.92147
   R10        2.91724   0.00395   0.00000   0.01394   0.01397   2.93121
   R11        2.05374   0.01112   0.00000   0.03050   0.03050   2.08424
   R12        2.05382   0.01111   0.00000   0.03046   0.03046   2.08428
   R13        2.05601   0.01139   0.00000   0.03137   0.03137   2.08738
   R14        2.88191   0.00430   0.00000   0.01379   0.01379   2.89570
   R15        2.06304   0.00854   0.00000   0.02379   0.02379   2.08683
   R16        2.06307   0.00852   0.00000   0.02372   0.02372   2.08679
   R17        2.05313   0.01171   0.00000   0.03207   0.03207   2.08520
   R18        2.05715   0.01012   0.00000   0.02791   0.02791   2.08506
   R19        2.05347   0.01132   0.00000   0.03104   0.03104   2.08451
   R20        2.88179   0.00442   0.00000   0.01417   0.01417   2.89596
   R21        2.06615   0.00825   0.00000   0.02311   0.02311   2.08926
   R22        2.06355   0.00835   0.00000   0.02325   0.02324   2.08679
   R23        2.05343   0.01124   0.00000   0.03080   0.03080   2.08423
   R24        2.05334   0.01103   0.00000   0.03022   0.03022   2.08355
   R25        2.05681   0.01019   0.00000   0.02810   0.02810   2.08491
   R26        4.46312  -0.00094   0.00000  -0.02958  -0.02958   4.43354
   R27        4.32187  -0.00042   0.00000  -0.01864  -0.01867   4.30320
   R28        4.61385  -0.00053   0.00000  -0.02099  -0.02101   4.59284
   R29        2.88195   0.00438   0.00000   0.01406   0.01406   2.89600
   R30        2.05681   0.01019   0.00000   0.02809   0.02809   2.08489
   R31        2.05329   0.01104   0.00000   0.03025   0.03025   2.08354
   R32        2.05339   0.01123   0.00000   0.03078   0.03078   2.08417
   R33        2.91754   0.00396   0.00000   0.01381   0.01384   2.93138
   R34        2.06627   0.00817   0.00000   0.02288   0.02288   2.08915
   R35        2.06304   0.00811   0.00000   0.02285   0.02286   2.08590
   R36        2.89649   0.00469   0.00000   0.01539   0.01539   2.91187
   R37        2.90840   0.00402   0.00000   0.01346   0.01346   2.92186
   R38        2.91633   0.00406   0.00000   0.01362   0.01362   2.92995
   R39        2.05596   0.01143   0.00000   0.03147   0.03147   2.08743
   R40        2.05374   0.01107   0.00000   0.03036   0.03036   2.08410
   R41        2.05363   0.01115   0.00000   0.03058   0.03058   2.08420
   R42        2.88217   0.00409   0.00000   0.01314   0.01314   2.89531
   R43        2.06298   0.00855   0.00000   0.02382   0.02382   2.08680
   R44        2.06309   0.00851   0.00000   0.02370   0.02370   2.08680
   R45        2.05703   0.01014   0.00000   0.02795   0.02795   2.08498
   R46        2.05370   0.01132   0.00000   0.03105   0.03105   2.08475
   R47        2.05352   0.01147   0.00000   0.03143   0.03143   2.08495
   R48        2.88178   0.00418   0.00000   0.01342   0.01342   2.89520
   R49        2.06596   0.00822   0.00000   0.02302   0.02302   2.08898
   R50        2.06253   0.00789   0.00000   0.02170   0.02168   2.08422
   R51        2.05717   0.01017   0.00000   0.02805   0.02805   2.08522
   R52        2.05351   0.01118   0.00000   0.03065   0.03065   2.08416
   R53        2.05331   0.01107   0.00000   0.03033   0.03033   2.08363
    A1        1.90906   0.00159   0.00000   0.00930   0.00925   1.91832
    A2        1.94642   0.00172   0.00000   0.01042   0.01037   1.95679
    A3        1.94516   0.00135   0.00000   0.00724   0.00721   1.95237
    A4        1.88184  -0.00152   0.00000  -0.00769  -0.00775   1.87409
    A5        1.88297  -0.00164   0.00000  -0.01041  -0.01043   1.87254
    A6        1.89624  -0.00171   0.00000  -0.01012  -0.01016   1.88608
    A7        2.03240   0.00199   0.00000   0.01604   0.01598   2.04838
    A8        1.89293   0.00009   0.00000   0.00680   0.00666   1.89959
    A9        1.88949  -0.00094   0.00000  -0.00863  -0.00861   1.88088
   A10        1.88197  -0.00028   0.00000   0.00117   0.00098   1.88296
   A11        1.89501  -0.00063   0.00000  -0.00464  -0.00456   1.89045
   A12        1.86544  -0.00039   0.00000  -0.01316  -0.01317   1.85227
   A13        1.90744   0.00033   0.00000   0.00562   0.00562   1.91306
   A14        1.95338  -0.00108   0.00000  -0.01113  -0.01114   1.94224
   A15        1.85578   0.00051   0.00000   0.00082   0.00075   1.85653
   A16        1.88439   0.00078   0.00000   0.00691   0.00695   1.89134
   A17        1.90979  -0.00001   0.00000   0.00408   0.00408   1.91388
   A18        1.95265  -0.00051   0.00000  -0.00594  -0.00599   1.94666
   A19        1.93521   0.00166   0.00000   0.00946   0.00943   1.94464
   A20        1.93354   0.00164   0.00000   0.00946   0.00943   1.94297
   A21        1.93050   0.00102   0.00000   0.00607   0.00604   1.93654
   A22        1.87721  -0.00175   0.00000  -0.01044  -0.01048   1.86673
   A23        1.89338  -0.00140   0.00000  -0.00805  -0.00808   1.88530
   A24        1.89238  -0.00136   0.00000  -0.00764  -0.00767   1.88470
   A25        2.01939   0.00010   0.00000   0.00427   0.00423   2.02362
   A26        1.89034   0.00015   0.00000   0.00158   0.00156   1.89190
   A27        1.89044   0.00026   0.00000   0.00392   0.00389   1.89432
   A28        1.89883   0.00022   0.00000   0.00230   0.00229   1.90112
   A29        1.89757   0.00032   0.00000   0.00462   0.00459   1.90216
   A30        1.86108  -0.00118   0.00000  -0.01886  -0.01885   1.84223
   A31        1.94496   0.00154   0.00000   0.00834   0.00830   1.95326
   A32        1.91212   0.00195   0.00000   0.01270   0.01263   1.92475
   A33        1.94344   0.00145   0.00000   0.00752   0.00749   1.95093
   A34        1.88410  -0.00157   0.00000  -0.00747  -0.00754   1.87656
   A35        1.89320  -0.00199   0.00000  -0.01407  -0.01407   1.87913
   A36        1.88404  -0.00160   0.00000  -0.00821  -0.00827   1.87577
   A37        2.02856   0.00230   0.00000   0.01555   0.01551   2.04408
   A38        1.88104  -0.00065   0.00000  -0.00264  -0.00278   1.87826
   A39        1.89979  -0.00086   0.00000  -0.00411  -0.00414   1.89565
   A40        1.89221   0.00004   0.00000   0.00631   0.00624   1.89846
   A41        1.88949  -0.00061   0.00000  -0.00328  -0.00327   1.88622
   A42        1.86650  -0.00040   0.00000  -0.01428  -0.01428   1.85222
   A43        1.94425   0.00140   0.00000   0.00765   0.00762   1.95187
   A44        1.94540   0.00166   0.00000   0.00965   0.00960   1.95500
   A45        1.90895   0.00190   0.00000   0.01140   0.01134   1.92029
   A46        1.89689  -0.00177   0.00000  -0.01097  -0.01100   1.88590
   A47        1.88333  -0.00171   0.00000  -0.01004  -0.01008   1.87325
   A48        1.88298  -0.00170   0.00000  -0.00895  -0.00901   1.87397
   A49        2.44167  -0.00146   0.00000  -0.00923  -0.00916   2.43250
   A50        2.78472   0.00045   0.00000   0.00283   0.00281   2.78753
   A51        1.04260   0.00098   0.00000   0.00493   0.00486   1.04745
   A52        2.63703   0.00059   0.00000   0.00521   0.00521   2.64224
   A53        1.90847   0.00187   0.00000   0.01119   0.01114   1.91961
   A54        1.94639   0.00162   0.00000   0.00943   0.00938   1.95577
   A55        1.94437   0.00139   0.00000   0.00761   0.00757   1.95194
   A56        1.88282  -0.00166   0.00000  -0.00870  -0.00877   1.87405
   A57        1.88306  -0.00170   0.00000  -0.01002  -0.01006   1.87300
   A58        1.89665  -0.00174   0.00000  -0.01075  -0.01078   1.88588
   A59        2.02969   0.00215   0.00000   0.01555   0.01550   2.04519
   A60        1.89212   0.00010   0.00000   0.00663   0.00656   1.89868
   A61        1.88749  -0.00059   0.00000  -0.00336  -0.00336   1.88413
   A62        1.88068  -0.00058   0.00000  -0.00219  -0.00234   1.87834
   A63        1.89994  -0.00070   0.00000  -0.00304  -0.00306   1.89688
   A64        1.86774  -0.00059   0.00000  -0.01624  -0.01624   1.85150
   A65        1.90897   0.00008   0.00000   0.00382   0.00383   1.91280
   A66        1.95227  -0.00063   0.00000  -0.00678  -0.00681   1.94547
   A67        1.85683   0.00046   0.00000   0.00049   0.00044   1.85727
   A68        1.88531   0.00060   0.00000   0.00505   0.00508   1.89039
   A69        1.90851   0.00019   0.00000   0.00456   0.00455   1.91306
   A70        1.95156  -0.00070   0.00000  -0.00683  -0.00685   1.94471
   A71        1.93014   0.00105   0.00000   0.00623   0.00620   1.93633
   A72        1.93420   0.00164   0.00000   0.00942   0.00938   1.94358
   A73        1.93465   0.00165   0.00000   0.00950   0.00946   1.94411
   A74        1.89301  -0.00139   0.00000  -0.00791  -0.00794   1.88508
   A75        1.89326  -0.00140   0.00000  -0.00797  -0.00800   1.88526
   A76        1.87697  -0.00175   0.00000  -0.01041  -0.01045   1.86652
   A77        2.01925   0.00038   0.00000   0.00557   0.00553   2.02479
   A78        1.89057   0.00016   0.00000   0.00275   0.00272   1.89329
   A79        1.89065   0.00009   0.00000   0.00221   0.00218   1.89283
   A80        1.89812   0.00016   0.00000   0.00294   0.00291   1.90103
   A81        1.89806   0.00021   0.00000   0.00323   0.00321   1.90127
   A82        1.86098  -0.00114   0.00000  -0.01896  -0.01895   1.84203
   A83        1.91246   0.00195   0.00000   0.01254   0.01248   1.92493
   A84        1.94450   0.00144   0.00000   0.00775   0.00772   1.95221
   A85        1.94391   0.00138   0.00000   0.00729   0.00726   1.95116
   A86        1.88351  -0.00155   0.00000  -0.00764  -0.00771   1.87580
   A87        1.88385  -0.00157   0.00000  -0.00800  -0.00805   1.87580
   A88        1.89362  -0.00187   0.00000  -0.01309  -0.01309   1.88053
   A89        2.03176   0.00176   0.00000   0.01569   0.01567   2.04743
   A90        1.88214  -0.00035   0.00000  -0.00138  -0.00155   1.88059
   A91        1.89563  -0.00041   0.00000  -0.00257  -0.00257   1.89306
   A92        1.89314   0.00016   0.00000   0.00621   0.00612   1.89926
   A93        1.88820  -0.00073   0.00000  -0.00440  -0.00440   1.88380
   A94        1.86653  -0.00059   0.00000  -0.01629  -0.01630   1.85023
   A95        1.90861   0.00167   0.00000   0.00986   0.00982   1.91842
   A96        1.94490   0.00140   0.00000   0.00760   0.00757   1.95247
   A97        1.94641   0.00171   0.00000   0.01012   0.01008   1.95649
   A98        1.88284  -0.00164   0.00000  -0.01003  -0.01006   1.87278
   A99        1.88225  -0.00159   0.00000  -0.00824  -0.00830   1.87395
   A100       1.89670  -0.00176   0.00000  -0.01057  -0.01060   1.88610
   A101       2.65941   0.00053   0.00000   0.00608   0.00609   2.66550
   A102       1.01493   0.00071   0.00000   0.00390   0.00385   1.01878
   A103       2.72203  -0.00002   0.00000   0.00184   0.00188   2.72391
   A104       2.52039  -0.00067   0.00000  -0.00473  -0.00473   2.51566
    D1        3.08943   0.00052   0.00000   0.00700   0.00704   3.09646
    D2        0.96410  -0.00056   0.00000  -0.01116  -0.01120   0.95290
    D3       -1.05396   0.00035   0.00000   0.00533   0.00535  -1.04860
    D4        1.00943   0.00031   0.00000   0.00403   0.00405   1.01348
    D5       -1.11590  -0.00077   0.00000  -0.01413  -0.01418  -1.13008
    D6       -3.13396   0.00014   0.00000   0.00236   0.00237  -3.13159
    D7       -1.11315   0.00035   0.00000   0.00460   0.00462  -1.10852
    D8        3.04472  -0.00073   0.00000  -0.01356  -0.01361   3.03110
    D9        1.02666   0.00018   0.00000   0.00293   0.00294   1.02960
   D10       -1.17015  -0.00050   0.00000   0.00276   0.00276  -1.16740
   D11        0.91632   0.00001   0.00000   0.00809   0.00807   0.92439
   D12        3.05335  -0.00094   0.00000  -0.00542  -0.00543   3.04792
   D13        0.96093   0.00077   0.00000   0.02371   0.02372   0.98465
   D14        3.04740   0.00128   0.00000   0.02904   0.02903   3.07643
   D15       -1.09876   0.00033   0.00000   0.01553   0.01553  -1.08322
   D16        2.97612  -0.00017   0.00000   0.00647   0.00647   2.98259
   D17       -1.22060   0.00034   0.00000   0.01180   0.01178  -1.20881
   D18        0.91643  -0.00061   0.00000  -0.00171  -0.00171   0.91472
   D19        0.13258  -0.00121   0.00000  -0.02380  -0.02375   0.10884
   D20       -2.67669  -0.00085   0.00000  -0.00645  -0.00644  -2.68312
   D21        2.35397   0.00022   0.00000  -0.01267  -0.01263   2.34134
   D22       -0.45530   0.00059   0.00000   0.00468   0.00468  -0.45062
   D23       -1.90332  -0.00063   0.00000  -0.02052  -0.02050  -1.92382
   D24        1.57059  -0.00027   0.00000  -0.00317  -0.00319   1.56740
   D25        3.14157  -0.00047   0.00000  -0.00296  -0.00294   3.13863
   D26        1.05858  -0.00042   0.00000  -0.00219  -0.00218   1.05640
   D27       -1.04034  -0.00046   0.00000  -0.00281  -0.00280  -1.04314
   D28        1.01301   0.00017   0.00000   0.00297   0.00297   1.01598
   D29       -1.06997   0.00022   0.00000   0.00374   0.00373  -1.06625
   D30        3.11429   0.00018   0.00000   0.00312   0.00311   3.11740
   D31       -1.11607   0.00032   0.00000   0.00349   0.00348  -1.11259
   D32        3.08413   0.00037   0.00000   0.00425   0.00425   3.08837
   D33        0.98521   0.00033   0.00000   0.00363   0.00363   0.98883
   D34        1.04020  -0.00034   0.00000  -0.00916  -0.00912   1.03107
   D35       -1.09615  -0.00082   0.00000  -0.01637  -0.01634  -1.11249
   D36       -3.10821   0.00035   0.00000   0.00293   0.00297  -3.10524
   D37        3.14016  -0.00009   0.00000  -0.00446  -0.00447   3.13569
   D38        1.00381  -0.00056   0.00000  -0.01168  -0.01169   0.99212
   D39       -1.00825   0.00061   0.00000   0.00762   0.00762  -1.00063
   D40       -1.04059   0.00010   0.00000   0.00149   0.00146  -1.03913
   D41        3.10624  -0.00038   0.00000  -0.00572  -0.00576   3.10049
   D42        1.09418   0.00079   0.00000   0.01358   0.01355   1.10774
   D43       -3.10375   0.00087   0.00000   0.00400   0.00399  -3.09976
   D44        1.05266  -0.00024   0.00000  -0.01283  -0.01282   1.03984
   D45       -0.96575   0.00103   0.00000   0.00753   0.00749  -0.95826
   D46        1.12131   0.00021   0.00000  -0.00521  -0.00522   1.11609
   D47       -1.00547  -0.00090   0.00000  -0.02203  -0.02203  -1.02749
   D48       -3.02388   0.00037   0.00000  -0.00168  -0.00171  -3.02559
   D49       -0.96626  -0.00043   0.00000  -0.01278  -0.01279  -0.97905
   D50       -3.09304  -0.00155   0.00000  -0.02961  -0.02960  -3.12264
   D51        1.17174  -0.00028   0.00000  -0.00925  -0.00929   1.16245
   D52       -1.05753   0.00037   0.00000   0.00774   0.00777  -1.04976
   D53       -3.14141   0.00008   0.00000   0.00352   0.00352  -3.13788
   D54        1.05893  -0.00010   0.00000   0.00078   0.00077   1.05970
   D55        1.07431   0.00081   0.00000   0.01462   0.01464   1.08895
   D56       -1.00957   0.00052   0.00000   0.01040   0.01040  -0.99917
   D57       -3.09242   0.00034   0.00000   0.00766   0.00765  -3.08478
   D58        3.09468  -0.00030   0.00000  -0.00402  -0.00401   3.09067
   D59        1.01080  -0.00058   0.00000  -0.00823  -0.00825   1.00255
   D60       -1.07205  -0.00077   0.00000  -0.01098  -0.01100  -1.08306
   D61        1.09769  -0.00026   0.00000  -0.00178  -0.00182   1.09587
   D62       -1.02436  -0.00013   0.00000   0.00015   0.00013  -1.02424
   D63       -3.10507  -0.00028   0.00000  -0.00212  -0.00216  -3.10724
   D64       -3.06463   0.00051   0.00000   0.01046   0.01049  -3.05414
   D65        1.09649   0.00064   0.00000   0.01239   0.01244   1.10893
   D66       -0.98421   0.00049   0.00000   0.01012   0.01015  -0.97406
   D67       -1.04570  -0.00026   0.00000  -0.00477  -0.00478  -1.05048
   D68        3.11542  -0.00013   0.00000  -0.00284  -0.00283   3.11259
   D69        1.03471  -0.00029   0.00000  -0.00511  -0.00512   1.02960
   D70        0.59084  -0.00105   0.00000  -0.01776  -0.01773   0.57311
   D71        2.81064   0.00084   0.00000  -0.00327  -0.00330   2.80734
   D72       -1.43692   0.00036   0.00000  -0.00501  -0.00502  -1.44195
   D73       -2.94014  -0.00044   0.00000  -0.00478  -0.00486  -2.94501
   D74        0.06911  -0.00034   0.00000  -0.01008  -0.01008   0.05903
   D75       -0.02698  -0.00026   0.00000  -0.00680  -0.00683  -0.03381
   D76        2.82143  -0.00021   0.00000  -0.00236  -0.00238   2.81905
   D77       -2.92280   0.00029   0.00000   0.00784   0.00784  -2.91496
   D78       -0.07439   0.00035   0.00000   0.01228   0.01230  -0.06209
   D79       -0.06605   0.00050   0.00000   0.01474   0.01476  -0.05129
   D80       -3.00397   0.00027   0.00000   0.00949   0.00953  -2.99443
   D81        3.10275   0.00026   0.00000   0.00183   0.00187   3.10463
   D82        0.98166  -0.00056   0.00000  -0.01126  -0.01130   0.97036
   D83       -1.03763   0.00039   0.00000   0.00614   0.00615  -1.03148
   D84        1.02195   0.00010   0.00000  -0.00048  -0.00046   1.02149
   D85       -1.09915  -0.00072   0.00000  -0.01358  -0.01363  -1.11278
   D86       -3.11843   0.00023   0.00000   0.00383   0.00382  -3.11461
   D87       -1.10058   0.00022   0.00000   0.00134   0.00138  -1.09920
   D88        3.06151  -0.00059   0.00000  -0.01175  -0.01179   3.04972
   D89        1.04222   0.00036   0.00000   0.00565   0.00566   1.04788
   D90       -1.13180  -0.00024   0.00000   0.00356   0.00357  -1.12824
   D91        0.95614   0.00017   0.00000   0.00811   0.00812   0.96425
   D92        3.09184  -0.00077   0.00000  -0.00408  -0.00407   3.08777
   D93        0.99534   0.00091   0.00000   0.02116   0.02115   1.01650
   D94        3.08328   0.00132   0.00000   0.02571   0.02570   3.10898
   D95       -1.06420   0.00039   0.00000   0.01352   0.01351  -1.05069
   D96        3.01510  -0.00046   0.00000  -0.00072  -0.00069   3.01441
   D97       -1.18015  -0.00005   0.00000   0.00384   0.00386  -1.17629
   D98        0.95555  -0.00098   0.00000  -0.00836  -0.00833   0.94723
   D99       -2.79222  -0.00099   0.00000  -0.00331  -0.00327  -2.79550
   D100      -0.57226   0.00084   0.00000   0.01184   0.01179  -0.56047
   D101       1.45582  -0.00051   0.00000  -0.00091  -0.00091   1.45491
   D102      -1.00965  -0.00035   0.00000  -0.00287  -0.00286  -1.01251
   D103      -3.10956  -0.00038   0.00000  -0.00324  -0.00323  -3.11279
   D104       1.09087  -0.00033   0.00000  -0.00251  -0.00251   1.08836
   D105      -3.13835  -0.00001   0.00000  -0.00002  -0.00002  -3.13837
   D106       1.04492  -0.00003   0.00000  -0.00040  -0.00039   1.04453
   D107      -1.03783   0.00002   0.00000   0.00033   0.00034  -1.03750
   D108       1.01729   0.00036   0.00000   0.00245   0.00244   1.01973
   D109      -1.08262   0.00033   0.00000   0.00207   0.00207  -1.08055
   D110       3.11781   0.00038   0.00000   0.00281   0.00279   3.12060
   D111       1.04648  -0.00019   0.00000  -0.00674  -0.00672   1.03975
   D112      -1.08903  -0.00078   0.00000  -0.01661  -0.01660  -1.10563
   D113      -3.10121   0.00042   0.00000   0.00310   0.00312  -3.09809
   D114      -3.13492  -0.00008   0.00000  -0.00284  -0.00284  -3.13775
   D115       1.01276  -0.00067   0.00000  -0.01271  -0.01272   1.00005
   D116      -0.99941   0.00054   0.00000   0.00700   0.00700  -0.99241
   D117      -1.03414   0.00013   0.00000   0.00193   0.00191  -1.03223
   D118       3.11354  -0.00046   0.00000  -0.00794  -0.00797   3.10557
   D119       1.10136   0.00074   0.00000   0.01177   0.01175   1.11311
   D120      -3.08627   0.00079   0.00000   0.00483   0.00483  -3.08144
   D121       1.06586  -0.00035   0.00000  -0.01308  -0.01307   1.05279
   D122      -0.95101   0.00075   0.00000   0.00813   0.00815  -0.94287
   D123       1.13706   0.00034   0.00000  -0.00232  -0.00233   1.13473
   D124      -0.99399  -0.00081   0.00000  -0.02023  -0.02023  -1.01422
   D125      -3.01087   0.00029   0.00000   0.00098   0.00098  -3.00988
   D126      -0.95011  -0.00010   0.00000  -0.00733  -0.00733  -0.95744
   D127      -3.08117  -0.00124   0.00000  -0.02523  -0.02523  -3.10639
   D128       1.18514  -0.00014   0.00000  -0.00403  -0.00401   1.18113
   D129      -3.13151  -0.00002   0.00000  -0.00131  -0.00131  -3.13282
   D130       1.06861  -0.00026   0.00000  -0.00482  -0.00484   1.06377
   D131      -1.04838   0.00017   0.00000   0.00146   0.00147  -1.04691
   D132      -1.00002   0.00058   0.00000   0.00851   0.00852  -0.99150
   D133      -3.08309   0.00034   0.00000   0.00500   0.00499  -3.07809
   D134       1.08311   0.00076   0.00000   0.01128   0.01130   1.09441
   D135       1.02012  -0.00057   0.00000  -0.01065  -0.01066   1.00946
   D136      -1.06295  -0.00081   0.00000  -0.01416  -0.01418  -1.07714
   D137       3.10324  -0.00039   0.00000  -0.00788  -0.00787   3.09537
   D138      -3.10534  -0.00033   0.00000  -0.00358  -0.00361  -3.10895
   D139       1.09784  -0.00023   0.00000  -0.00222  -0.00224   1.09560
   D140      -1.02514  -0.00016   0.00000  -0.00112  -0.00114  -1.02627
   D141      -0.98008   0.00056   0.00000   0.01049   0.01052  -0.96956
   D142      -3.06008   0.00066   0.00000   0.01185   0.01189  -3.04819
   D143       1.10012   0.00073   0.00000   0.01295   0.01300   1.11312
   D144       1.03870  -0.00044   0.00000  -0.00776  -0.00779   1.03091
   D145      -1.04130  -0.00035   0.00000  -0.00640  -0.00642  -1.04772
   D146       3.11890  -0.00027   0.00000  -0.00530  -0.00531   3.11359
   D147       0.57601  -0.00076   0.00000  -0.01419  -0.01419   0.56183
   D148      -3.00100  -0.00045   0.00000  -0.00540  -0.00542  -3.00642
   D149       2.79616   0.00066   0.00000   0.00073   0.00070   2.79686
   D150      -0.78086   0.00098   0.00000   0.00952   0.00946  -0.77139
   D151      -1.45095   0.00017   0.00000  -0.00272  -0.00272  -1.45367
   D152       1.25522   0.00048   0.00000   0.00606   0.00605   1.26126
         Item               Value     Threshold  Converged?
 Maximum Force            0.011707     0.000015     NO 
 RMS     Force            0.003668     0.000010     NO 
 Maximum Displacement     0.122013     0.000060     NO 
 RMS     Displacement     0.026718     0.000040     NO 
 GradGradGradGradGradGradGradGradGradGradGradGradGradGradGradGradGradGrad

 Framework group  C1[X(C16H36)]
 Deg. of freedom   150
                         Standard orientation:                         
 ---------------------------------------------------------------------
 Center     Atomic      Atomic             Coordinates (Angstroms)
 Number     Number       Type             X           Y           Z
 ---------------------------------------------------------------------
      1          6           0        1.697289   -2.599741    0.282530
      2          6           0        1.739349   -1.135904    0.731945
      3          6           0        2.867636   -0.244785    0.152396
      4          6           0        4.231744   -0.727537    0.682429
      5          6           0        2.895118   -0.307913   -1.392046
      6          6           0        1.610953    0.130563   -2.103893
      7          6           0        2.591079    1.195114    0.658564
      8          6           0        3.539992    2.298580    0.178552
      9          1           0        0.879942   -3.128973    0.801814
     10          1           0        2.634456   -3.132432    0.514824
     11          1           0        1.511147   -2.691622   -0.800576
     12          1           0        1.813189   -1.102961    1.834440
     13          1           0        0.769986   -0.677510    0.476138
     14          1           0        5.058068   -0.114425    0.285267
     15          1           0        4.432147   -1.770054    0.383252
     16          1           0        4.267672   -0.676266    1.785244
     17          1           0        3.136959   -1.342135   -1.694350
     18          1           0        3.735472    0.310466   -1.753781
     19          1           0        0.746998   -0.492316   -1.815475
     20          1           0        1.731610    0.045298   -3.197321
     21          1           0        1.356620    1.180217   -1.879581
     22          1           0        2.605040    1.169731    1.763775
     23          1           0        1.563133    1.478356    0.371264
     24          1           0        3.498419    2.427887   -0.915979
     25          1           0        4.586585    2.094517    0.459013
     26          1           0        3.258932    3.263209    0.634335
     27          6           0       -3.210350   -2.311430   -0.584040
     28          6           0       -2.325303   -1.076306   -0.783329
     29          6           0       -2.825177    0.259503   -0.173392
     30          6           0       -4.130630    0.689249   -0.870152
     31          6           0       -3.105760    0.120248    1.340729
     32          6           0       -1.914956   -0.298649    2.209023
     33          6           0       -1.717870    1.308929   -0.449997
     34          6           0       -1.922423    2.714574    0.124087
     35          1           0       -2.763985   -3.181558   -1.094783
     36          1           0       -4.221139   -2.168061   -1.000440
     37          1           0       -3.313998   -2.574179    0.482074
     38          1           0       -2.177995   -0.914982   -1.867061
     39          1           0       -1.327347   -1.302470   -0.369404
     40          1           0       -3.979527    0.798826   -1.958886
     41          1           0       -4.496802    1.652836   -0.478087
     42          1           0       -4.934044   -0.049160   -0.709858
     43          1           0       -3.923946   -0.608285    1.479501
     44          1           0       -3.499895    1.082258    1.713073
     45          1           0       -2.221205   -0.377628    3.266046
     46          1           0       -1.090993    0.433056    2.156621
     47          1           0       -1.512630   -1.280403    1.906404
     48          1           0       -1.592664    1.385940   -1.545619
     49          1           0       -0.762185    0.919079   -0.061262
     50          1           0       -1.083612    3.367396   -0.172269
     51          1           0       -1.958503    2.706888    1.226358
     52          1           0       -2.850047    3.182487   -0.245130
 ---------------------------------------------------------------------
 Rotational constants (GHZ):           0.6494188           0.2443965           0.2199884
   296 basis functions,   544 primitive gaussians,   312 cartesian basis functions
    66 alpha electrons       66 beta electrons
       nuclear repulsion energy      1250.1489558323 Hartrees.
 NAtoms=   52 NActive=   52 NUniq=   52 SFac= 1.00D+00 NAtFMM=   60 NAOKFM=F Big=F
 Nuclear repulsion after empirical dispersion term =     1250.0976142310 Hartrees.
   1 Symmetry operations used in ECPInt.
 ECPInt:  NShTT=   14196 NPrTT=   56932 LenC2=   13572 LenP2D=   38129.
 LDataN:  DoStor=T MaxTD1= 4 Len=   56
 Initial guess from the checkpoint file:  "16.chk"
 B after Tr=    -0.000000    0.000000   -0.000000
         Rot=    0.999998   -0.000115   -0.001671    0.000545 Ang=  -0.20 deg.
 ExpMin= 1.22D-01 ExpMax= 1.24D+03 ExpMxC= 1.86D+02 IAcc=3 IRadAn=         5 AccDes= 0.00D+00
 Harris functional with IExCor= 4639 and IRadAn=       5 diagonalized for initial guess.
 HarFok:  IExCor= 4639 AccDes= 0.00D+00 IRadAn=         5 IDoV= 1 UseB2=F ITyADJ=14
 ICtDFT=  3500011 ScaDFX=  1.000000  1.000000  1.000000  1.000000
 FoFCou: FMM=F IPFlag=           0 FMFlag=      100000 FMFlg1=           0
         NFxFlg=           0 DoJE=T BraDBF=F KetDBF=T FulRan=T
         wScrn=  0.000000 ICntrl=       500 IOpCl=  0 I1Cent=   200000004 NGrid=           0
         NMat0=    1 NMatS0=      1 NMatT0=    0 NMatD0=    1 NMtDS0=    0 NMtDT0=    0
 Petite list used in FoFCou.
[...]
 00000406,-0.00007119,0.00005319,-0.00005583,0.00018941,0.00018260,0.00
 004501,0.00004746,0.00000436,0.00002325,-0.00013009,0.00004170,-0.0000
 3641,0.00002079,0.00001992,0.00003962,-0.00002279,-0.00000589,-0.00000
 814,-0.00002055,-0.00000948,-0.00005603,-0.00003581,-0.00011800,0.0000
 9382,-0.00009957,-0.00060604,0.00045448,0.00044372,0.00000904,-0.00000
 048,0.00000762,-0.00000010,0.00000102,0.00000900,-0.00002397,0.0000085
 3,-0.00003790,-0.00007770,0.00006677,-0.00005363,-0.00011234,0.0000283
 3,-0.00006338,0.00044115,-0.00097026,-0.00071628,-0.00025057,0.0000778
 2,0.00011205,0.00024511,0.00029806,-0.00012746,-0.00010736,0.00001421,
 -0.00008530,-0.00020773,0.00005852,0.00025925,0.00003095,0.00003298,-0
 .00003500,-0.00000397,0.00001380,-0.00001856,-0.00000399,-0.00001922,-
 0.00000924,0.00025067,-0.00012772,-0.00010136,-0.00048870,-0.00025561,
 0.00012691,0.00605872,-0.00165263,0.00184923,-0.00001922,0.00018514,-0
 .00006788,0.00026919,-0.00063154,0.00013937,0.00040310,0.00051414,-0.0
 0128958,-0.08154331,0.02662301,-0.08114363,0.01391888,-0.00550060,0.00
 501969,-0.00002937,-0.00006038,-0.00000999,0.00005744,0.00007135,-0.00
 000820,0.00001567,0.00005889,-0.00001923,-0.00013569,0.00012442,-0.000
 09217,-0.00004885,-0.00049517,0.00036945,0.00025429,0.00000889,0.00044
 592,-0.00004494,-0.00001606,-0.00005598,-0.00001514,0.00002495,0.00041
 028,-0.00019908,0.00003650,0.00010553,0.00007917,0.00007940,-0.0000427
 3,0.00002831,-0.00001779,0.00009300,0.00040499,0.00093655,-0.00246243,
 -0.00010393,-0.00007326,0.00004634,-0.02795921,0.00880377,-0.00952562,
 0.08801420,-0.02696278,0.08625335,0.00001149,-0.00000247,0.00000506,-0
 .00003733,0.00001886,-0.00000601,0.00001961,-0.00000691,0.00001349,0.0
 0000008,-0.00000588,-0.00001281,0.00000106,-0.00000173,-0.00000328,0.0
 0000182,0.00000664,-0.00001825,-0.00007096,0.00001616,-0.00001615,0.00
 001701,-0.00001650,0.00001116,-0.00000150,0.00000778,-0.00000404,0.000
 00721,-0.00000850,-0.00000077,-0.00000448,0.00000110,0.00000101,0.0000
 0374,-0.00000253,0.00000212,0.00001425,-0.00000325,-0.00000347,0.00000
 829,0.00000205,-0.00000155,0.00000275,-0.00000457,0.00000159,-0.000002
 65,0.00000007,0.00000181,0.00000178,-0.00000476,0.00000129,0.00001240,
 0.00000165,-0.00000127,0.00000425,0.00002488,0.00000880,0.00001627,-0.
 00001929,-0.00001746,-0.00000281,-0.00004257,0.00002294,0.00001437,-0.
 00000712,0.00000563,0.00007739,-0.00004792,0.00001280,-0.00000309,-0.0
 0000007,-0.00000253,0.00001271,0.00000249,-0.00000421,-0.00000342,0.00
 000309,0.00000027,-0.00003969,0.00005563,0.00002900,0.00025532,0.00018
 981,-0.00000581,-0.00025339,0.00140862,0.00058171,-0.00027576,0.000161
 21,0.00021968,-0.00016745,0.00023320,0.00020757,0.00002206,-0.00006826
 ,-0.00004075,0.00635272,0.00781585,-0.00259838,-0.17976335,-0.12571615
 ,0.05008691,0.00002558,0.00001806,-0.00000006,0.00001250,0.00001181,0.
 00001106,-0.00000390,0.00000398,-0.00000027,-0.00000252,-0.00000850,0.
 00000025,0.00000818,-0.00001847,-0.00001709,0.00004509,-0.00005662,-0.
 00006483,0.00041672,-0.00016455,-0.00005858,0.00013712,-0.00016900,-0.
 00004094,0.00002947,-0.00004718,-0.00002917,0.00007625,-0.00010002,-0.
 00018219,-0.00000709,-0.00000189,0.00001224,-0.00000129,-0.00000168,-0
 .00000478,0.00003946,-0.00001772,0.00002444,0.00030177,-0.00044561,-0.
 00039575,0.00067622,-0.00019300,-0.00033218,0.18779883,0.00001264,-0.0
 0000406,-0.00000509,-0.00002895,0.00001721,0.00000571,-0.00007697,-0.0
 0007923,-0.00001079,0.00002875,0.00006102,0.00000821,0.00003863,0.0000
 6318,0.00000604,-0.00004662,-0.00015389,-0.00000401,0.00020130,-0.0000
 4019,0.00004424,-0.00002999,0.00004398,-0.00001106,0.00001056,0.000037
 19,-0.00003035,0.00001398,0.00000209,0.00000899,-0.00002361,0.00000219
 ,0.00002243,0.00000559,-0.00000101,0.00000098,-0.00002421,-0.00005009,
 0.00001681,0.00001612,-0.00000715,-0.00000162,-0.00002368,0.00002438,0
 .00000188,-0.00000243,-0.00000782,-0.00000411,-0.00003115,0.00003073,0
 .00000476,0.00001275,-0.00000732,-0.00001040,-0.00001696,0.00001490,0.
 00000383,-0.00000445,0.00003442,0.00001351,0.00004648,0.00005041,-0.00
 002118,-0.00002839,0.00000901,-0.00001467,-0.00007391,-0.00005672,-0.0
 0000843,0.00002405,-0.00001499,-0.00001459,-0.00003768,0.00000110,-0.0
 0000032,0.00003755,0.00002401,0.00001702,0.00043461,-0.00036107,-0.000
 36279,-0.00142047,-0.00092166,0.00047825,0.00385635,-0.00304588,-0.002
 93246,0.00057586,-0.00003620,0.00014570,0.00031369,0.00022091,-0.00063
 584,-0.00011196,0.00002445,0.00001349,-0.02159754,-0.01952758,0.008475
 99,-0.12436327,-0.16555024,0.04857625,-0.00009714,-0.00022431,0.000007
 43,-0.00003420,0.00002951,-0.00000148,-0.00000869,0.00001651,0.0000386
 4,-0.00000865,0.00001325,-0.00009021,0.00003714,0.00000094,0.00006679,
 -0.00004238,0.00001201,-0.00005471,-0.00013151,0.00013754,0.00005811,-
 0.00016538,0.00005717,-0.00001628,-0.00004495,-0.00003352,0.00009716,0
 .00003692,0.00007370,0.00004130,0.00003959,-0.00001839,0.00006154,-0.0
 0001262,0.00001864,-0.00002520,-0.00000264,-0.00000939,-0.00002100,-0.
 00026214,0.00112135,-0.00030312,0.00019252,0.00055564,0.00069909,0.134
 08714,0.17957857,0.00000602,0.00000145,0.00000301,-0.00000553,-0.00000
 902,-0.00000844,0.00003384,0.00004043,0.00003671,-0.00000696,-0.000030
 57,-0.00002258,0.00001604,0.00000083,0.00002997,-0.00003371,-0.0000208
 9,-0.00003363,-0.00007791,0.00000435,-0.00004656,0.00001133,-0.0000063
 6,0.00003429,-0.00000447,-0.00001155,-0.00000351,-0.00000065,-0.000002
 09,0.00000029,-0.00000466,-0.00000531,-0.00000080,0.00000687,0.0000069
 1,-0.00000368,0.00000937,0.00001625,-0.00000788,-0.00000288,0.00000439
 ,0.00000332,0.00001055,-0.00001304,0.00000120,-0.00000421,0.00000642,-
 0.00000616,-0.00001569,0.00000158,-0.00001901,-0.00000948,0.00000362,0
 .00000078,-0.00000477,-0.00001544,0.00001229,0.00000183,-0.00000411,-0
 .00001129,0.00003304,0.00003342,0.00003631,-0.00001414,0.00001415,-0.0
 0001945,0.00004270,0.00002732,0.00006114,0.00000657,0.00000421,-0.0000
 1684,0.00001795,-0.00000093,-0.00001209,-0.00002630,-0.00002303,-0.000
 00381,0.00014762,-0.00013980,-0.00015340,-0.00051975,-0.00042647,0.000
 31257,0.00134592,-0.00205538,-0.00124047,0.00015235,-0.00011056,0.0001
 9190,0.00058187,-0.00018071,-0.00039636,0.00001929,0.00000347,0.000167
 34,-0.01126512,-0.01059700,0.00293509,0.05065321,0.04949640,-0.0678834
 7,-0.00003301,-0.00008526,0.00003049,-0.00000212,0.00001268,-0.0000013
 5,0.00000053,-0.00002015,0.00003017,-0.00003000,0.00002451,-0.00001407
 ,0.00003327,-0.00000287,0.00001085,-0.00000040,-0.00000356,-0.00002098
 ,0.00009633,0.00001986,-0.00006451,0.00000293,-0.00004981,-0.00003396,
 -0.00014163,0.00023060,0.00015685,-0.00049446,0.00038354,0.00024111,0.
 00002342,-0.00001168,0.00001346,0.00013066,-0.00003845,0.00000754,-0.0
 0004323,0.00007301,-0.00002743,-0.00071158,0.00006026,0.00048917,0.000
 13369,0.00069060,0.00028394,-0.05534422,-0.04982064,0.06807447,0.00001
 836,0.00000446,0.00000467,-0.00002107,0.00000048,-0.00000323,0.0000290
 2,0.00002695,0.00002783,-0.00000391,-0.00002270,-0.00002161,0.00000960
 ,-0.00001370,0.00003165,-0.00000733,0.00000657,-0.00003285,-0.00006518
 ,0.00001525,-0.00003376,0.00001701,-0.00002496,0.00001652,-0.00000383,
 -0.00000887,0.00000756,-0.00000284,-0.00001168,-0.00000602,0.00000267,
 -0.00001113,-0.00001482,-0.00001125,0.00001207,-0.00001995,0.00002075,
 0.00001994,0.00001242,0.00000212,0.00000355,0.00000172,0.00001001,-0.0
 0001363,0.00000028,-0.00000588,0.00000609,-0.00000640,-0.00000859,-0.0
 0000199,-0.00001707,-0.00001154,0.00000563,-0.00000614,0.00000394,-0.0
 0002127,0.00001588,0.00000104,-0.00000170,-0.00001006,0.00002795,0.000
 00160,0.00001326,-0.00003095,0.00001561,-0.00003201,0.00003604,-0.0000
 0542,0.00008114,0.00001060,0.00000626,-0.00001987,0.00001922,0.0000070
 4,-0.00001073,-0.00001456,-0.00001312,0.00000431,-0.00003870,-0.000004
 03,-0.00001812,0.00005157,-0.00010419,0.00014328,-0.00002294,-0.000052
 98,-0.00062959,-0.00028373,-0.00011912,0.00005761,0.00028733,-0.000895
 92,-0.00008028,0.00028048,0.00023425,0.00013194,-0.00088991,-0.0006198
 9,0.00799549,-0.04965970,0.00023111,0.00253828,0.00000002,0.00001327,0
 .00000871,0.00000537,-0.00000341,-0.00000561,0.00002488,-0.00000482,-0
 .00000777,-0.00003459,0.00001937,-0.00001527,-0.00003585,0.00000578,-0
 .00000068,-0.00002373,0.00011932,0.00009743,0.00010505,0.00001490,-0.0
 0015077,0.00003603,-0.00008274,-0.00002534,-0.00005981,0.00017049,-0.0
 0008340,-0.00074438,-0.00104774,0.00030980,-0.00003640,-0.00006174,0.0
 0000305,-0.00028008,0.00026196,-0.00013229,-0.00015289,-0.00004501,-0.
 00003086,0.00045188,0.00180691,0.00075942,0.00010953,-0.00037642,0.000
 46835,0.00083990,0.00042790,0.02275727,0.04703606,0.00000067,0.0000018
 1,-0.00001143,-0.00001302,0.00000643,0.00000936,0.00000956,0.00001423,
 -0.00002084,-0.00000825,-0.00000453,0.00001455,-0.00000941,0.00001922,
 -0.00003411,0.00002086,-0.00005658,0.00003831,-0.00001108,-0.00000689,
 0.00000350,-0.00000280,0.00000875,0.00000446,-0.00000520,-0.00002142,0
 .00000234,-0.00000513,0.00000271,0.00000553,-0.00000108,0.00001026,0.0
 0001177,0.00002826,-0.00000974,0.00002409,0.00000990,0.00001210,-0.000
 04891,-0.00000672,-0.00000047,0.,0.00000204,-0.00000059,-0.00000267,0.
 00000583,0.00000029,0.00000563,0.00001046,-0.00000862,0.00000310,0.000
 01954,-0.00000847,0.00001594,-0.00001100,0.00008958,-0.00001755,0.0000
 0338,0.00000066,-0.00000026,-0.00003882,-0.00003536,0.00000237,0.00001
 028,0.00000792,0.00000801,0.00000148,0.00000085,-0.00000969,-0.0000015
 7,-0.00000870,-0.00000066,-0.00000098,-0.00000111,-0.00000093,-0.00000
 252,-0.00000458,0.00000571,-0.00002491,0.00001892,0.00017012,0.0001137
 3,0.00001067,0.00000917,0.00003082,0.00121345,-0.00047846,0.00001002,-
 0.00009951,0.00004045,-0.00076898,-0.00134636,0.00008640,-0.00027064,-
 0.00038484,0.00021059,0.00025170,0.00342586,-0.03121494,0.00032560,-0.
 04905893,0.01365848,0.00000482,0.00001815,0.00001432,-0.00000617,-0.00
 000764,-0.00000405,-0.00003116,-0.00009672,0.00001253,-0.00005406,0.00
 012733,0.00025162,0.00004018,0.00002979,-0.00004140,0.00011074,0.00000
 484,0.00011516,-0.00005772,0.00004078,0.00002032,-0.00007131,0.0000185
 6,0.00001286,0.00004412,0.00024477,0.00010330,-0.00118740,-0.00111368,
 0.00045944,0.00004019,0.00004443,-0.00001185,0.00057523,-0.00038409,0.
 00017726,0.00006133,0.00024868,-0.00008996,0.00143346,-0.00552295,-0.0
 0262605,-0.00010483,0.00130561,0.00062796,0.00184764,-0.00054834,0.020
 86207,-0.00064464,0.05306948,0.00000958,-0.00000119,-0.00000763,-0.000
 04548,0.00002706,0.00000355,-0.00000263,-0.00001907,-0.00002445,-0.000
 00135,0.00001372,0.00001650,-0.00002900,0.00001848,-0.00004643,0.00001
 478,-0.00001890,0.00003751,-0.00000810,0.00000774,0.00000588,-0.000000
 85,0.00000583,-0.00001192,-0.00000601,-0.00000930,-0.00000346,0.000002
 30,-0.00000145,0.00000554,-0.00000511,0.00001597,0.00001837,0.00003842
 ,-0.00002315,0.00003591,0.00001391,-0.00001076,-0.00005972,-0.00000036
 ,-0.00000224,-0.00000238,-0.00000398,0.00000533,-0.00000224,0.00000765
 ,-0.00000415,0.00001333,0.00001971,-0.00001155,0.00001734,0.00002479,-
 0.00000703,0.00001304,0.00000247,0.00008017,-0.00000889,0.00001170,-0.
 00000027,0.00000322,-0.00005987,-0.00004179,-0.00000712,0.00003792,-0.
 00001418,0.00003800,0.00000646,-0.00001608,-0.00006809,-0.00001413,-0.
 00000629,0.00001992,-0.00000416,-0.00000343,0.00000668,0.00000772,0.00
 001357,-0.00000328,0.00004820,0.00001781,-0.00002154,-0.00019223,-0.00
 010484,0.00004100,0.00067635,0.00059984,-0.00055313,-0.00009761,-0.000
 17849,0.00011755,0.00070255,0.00016008,-0.00041055,0.00008592,0.000169
 55,0.00024640,0.00020044,0.00071349,-0.01128391,0.00272229,0.01246337,
 -0.31611635,-0.00001284,-0.00003908,0.00002494,-0.00000463,-0.00000446
 ,0.00000028,-0.00002235,-0.00006581,0.00007287,-0.00003482,0.00005822,
 0.00016947,0.00001351,0.00003176,-0.00002928,0.00006964,0.00007881,0.0
 0015288,0.00006606,-0.00000270,-0.00012838,-0.00006387,-0.00009374,-0.
 00002077,-0.00017248,0.00031318,0.00025882,-0.00032896,0.00099113,0.00
 050655,0.00006151,0.00003566,-0.00000536,0.00000238,-0.00010120,0.0000
 7942,-0.00004249,0.00008859,-0.00003025,0.00072410,-0.00262179,0.00047
 707,0.00020405,-0.00012294,0.00064674,-0.00084107,-0.00023399,-0.00587
 060,-0.00527149,-0.01226297,0.33866203,-0.00002818,0.00000617,-0.00000
 838,0.00007852,-0.00004114,0.00001961,-0.00002598,-0.00000890,-0.00002
 219,0.00000148,0.00001357,0.00001902,0.00000711,0.00000128,0.00000802,
 0.00001727,-0.00001178,0.00001053,0.00012047,-0.00003265,0.00003681,-0
 .00002118,0.00002529,-0.00001766,0.00000749,-0.00000002,0.00000051,-0.
 00000900,0.00001817,0.00000241,0.00000421,-0.00000296,0.00000058,-0.00
 001535,0.00000790,-0.00000613,-0.00004163,0.00000773,0.00000775,-0.000
 00912,-0.00000507,0.00000107,-0.00000664,0.00001387,-0.00000027,0.0000
 0296,-0.00000276,-0.00000459,-0.00000738,0.00001699,-0.00000012,-0.000
 01705,-0.00000461,-0.00000326,-0.00001603,-0.00004902,-0.00001752,-0.0
 0002857,0.00002097,0.00002713,0.00003237,0.00003412,-0.00003732,-0.000
 01379,0.00000395,-0.00000448,-0.00003228,-0.00000177,-0.00001182,0.000
 00874,-0.00000310,0.00000180,-0.00002709,-0.00000136,0.00000578,0.0000
 1783,0.00000184,0.00000305,-0.00007390,0.00000282,0.00004057,0.0001034
 3,0.00009867,-0.00018526,-0.00039172,-0.00058966,0.00024098,-0.0005475
 6,-0.00058321,-0.00010412,0.00008767,0.00020458,0.00006742,0.00000600,
 -0.00013496,-0.00002806,-0.00464319,0.00219697,-0.00151057,-0.25959598
 ,0.08051967,-0.07544199,0.00001955,0.00003689,0.00000570,0.00006400,0.
 00000750,0.00000970,0.00000682,0.00000211,-0.00000220,-0.00002443,-0.0
 0001533,0.00000004,0.00007813,-0.00002418,0.00003318,0.00000548,0.0000
 8722,0.00000857,-0.00027701,-0.00151617,-0.00052306,0.00026583,-0.0001
 3349,0.00005818,0.00002052,0.00007402,-0.00004702,-0.00004860,0.000084
 38,-0.00004440,0.00002270,0.00003122,-0.00001834,0.00003223,0.00001614
 ,0.00004996,0.00000717,-0.00001612,0.00002767,0.00011526,0.00012016,0.
 00035400,0.00096119,0.00098180,0.00113735,-0.01662298,0.00830237,-0.00
 747760,0.00301317,-0.00167243,0.00149151,0.27741706,0.00006217,-0.0000
 0331,0.00001098,-0.00016885,0.00008573,-0.00000116,-0.00001528,-0.0000
 4381,0.00000278,0.00001386,0.00002616,-0.00000871,-0.00000560,0.000033
 95,-0.00001740,-0.00002352,-0.00007532,-0.00004782,-0.00003475,0.00003
 217,-0.00000120,0.00001138,-0.00001339,0.00000234,-0.00000666,-0.00000
 512,0.00000768,0.00000124,-0.00003371,-0.00000797,-0.00000179,0.000004
 83,-0.00000434,0.00004703,-0.00003221,0.00002260,0.00004638,0.00000701
 ,-0.00004625,0.00001707,-0.00000312,-0.00000151,-0.00000283,-0.0000020
 1,-0.00000119,-0.00000087,-0.00000171,0.00000592,0.00000906,-0.0000111
 8,0.00000725,0.00002864,-0.00000476,0.00000130,0.00003439,0.00012374,0
 .00004410,0.00005626,-0.00000223,-0.00003031,-0.00004908,-0.00006226,0
 .00002452,0.00001660,-0.00000602,0.00001227,0.00000461,-0.00007813,-0.
 00001627,0.00000194,-0.00000642,-0.00000411,0.00000530,0.00000969,-0.0
 0000392,0.00001417,0.00001907,0.00000890,-0.00014671,0.00006927,-0.000
 02028,-0.00003404,-0.00003298,-0.00009810,0.00087489,0.00109012,0.0007
 1487,0.00005958,-0.00083209,-0.00046285,0.00001383,-0.00017700,-0.0000
 8022,0.00006987,0.00016030,0.00000702,0.02702567,-0.00863446,0.0110531
 7,0.07977613,-0.07828783,0.02884653,-0.00001202,0.00002369,-0.00000409
 ,-0.00006485,-0.00009766,-0.00001631,0.00000049,-0.00001244,0.00000058
 ,0.00004319,0.00003870,0.00002883,-0.00024834,0.00021150,-0.00003205,-
 0.00001241,0.00001425,0.00004756,-0.00148367,-0.00061033,-0.00011853,-
 0.00018413,0.00042563,0.00010269,-0.00008682,0.00001839,0.00007723,0.0
 0001537,0.00002705,0.00020165,-0.00006987,-0.00002839,-0.00000611,-0.0
 0010286,-0.00000925,-0.00015595,-0.00005581,0.00003842,-0.00004325,-0.
 00055150,0.00112019,0.00000209,0.00115967,-0.00522869,-0.00308039,-0.0
 1873498,0.00842301,-0.00833763,0.00077608,-0.00126600,0.00011351,-0.08
 808765,0.08359894,0.00001751,0.00000011,0.00000567,-0.00005589,0.00002
 736,0.00000877,-0.00001385,-0.00001945,0.00000456,0.00000660,0.0000127
 1,-0.00000141,-0.00000267,0.00001455,-0.00001029,-0.00001860,-0.000022
 72,-0.00002175,-0.00000387,0.00000650,0.00000019,0.00000017,0.00000497
 ,0.00000293,-0.00000183,-0.00000184,-0.00000174,0.00000004,-0.00000823
 ,0.00000013,-0.00000352,0.00000503,0.00000468,0.00003001,-0.00002054,0
 .00001910,0.00001129,0.00000024,-0.00005076,0.00000494,-0.00000219,-0.
 00000002,-0.00000315,0.00000305,0.00000039,0.00000111,-0.00000215,0.00
 000270,0.00000255,-0.00000077,0.00000624,0.00001051,-0.00000258,0.0000
 0226,0.00001444,0.00003759,0.00001975,0.00002618,-0.00000497,-0.000014
 02,-0.00001706,-0.00001034,0.00001919,0.00002505,-0.00001015,0.0000191
 4,-0.00001107,-0.00001091,-0.00004193,-0.00000439,-0.00000365,0.000005
 79,-0.00000309,-0.00000027,0.00000124,0.00000581,0.00000788,-0.0000017
 4,-0.00007210,0.00002918,-0.00002162,0.00009985,0.00012415,-0.00004110
 ,-0.00050846,0.00032329,0.00030846,-0.00031520,-0.00007680,0.00026634,
 -0.00031496,0.00013147,0.00004102,-0.00016802,-0.00008211,0.00001983,0
 .01387315,-0.00368728,0.00514959,-0.07573907,0.02930246,-0.07746938,0.
 00000847,0.00000761,-0.00000240,-0.00000274,-0.00002255,0.00001064,-0.
 00000408,0.00000221,0.00000243,0.00003339,-0.00001875,-0.00003162,-0.0
 0003690,0.00005645,-0.00002073,0.00004661,-0.00006891,-0.00020865,-0.0
 0015788,-0.00042024,0.00022672,0.00005104,0.00000629,-0.00009152,0.000
 06304,-0.00002083,0.00002795,-0.00005314,-0.00010813,-0.00014385,0.000
 00315,0.00001199,0.00000610,0.00021082,-0.00014284,0.00008338,0.000128
 68,0.00010701,0.00000054,0.00034129,0.00067720,0.00052500,0.00066322,-
 0.00304182,-0.00040666,0.00878704,-0.00427983,0.00275806,-0.02880191,0
 .00989002,-0.00697512,0.08184747,-0.02869846,0.07600750\\-0.00000040,-
 0.00000045,-0.00000064,-0.00000011,-0.00000022,-0.00000027,-0.00000023
 ,-0.00000042,-0.00000023,0.00000012,-0.00000088,-0.00000027,0.00000010
 ,-0.00000033,-0.00000024,-0.00000031,0.00000028,-0.00000009,-0.0000001
 1,-0.00000095,0.00000032,0.00000049,-0.00000037,0.00000011,-0.00000034
 ,-0.00000029,-0.00000067,-0.00000045,-0.00000039,-0.00000063,-0.000000
 38,0.00000002,-0.00000055,0.00000009,-0.00000067,-0.00000031,-0.000000
 06,-0.00000036,-0.00000005,-0.00000009,-0.00000082,-0.00000030,-0.0000
 0029,-0.00000071,-0.00000061,-0.00000006,-0.00000097,-0.00000037,-0.00
 000031,-0.00000008,-0.00000041,-0.00000009,-0.00000018,-0.00000002,0.,
 0.00000022,-0.00000011,-0.00000012,0.00000036,-0.00000005,0.00000016,0
 .00000016,0.00000023,0.00000031,-0.00000075,0.00000008,0.00000040,0.00
 000016,0.00000011,0.00000028,-0.00000032,0.00000031,0.00000026,-0.0000
 0075,0.00000015,0.00000050,-0.00000065,0.00000049,-0.00000054,0.000000
 32,-0.00000035,0.00000004,0.00000022,-0.00000037,0.00000009,0.00000030
 ,0.00000029,-0.00000010,0.00000084,0.00000018,-0.00000017,0.00000031,0
 .00000016,0.00000032,-0.00000021,0.00000015,0.00000036,0.00000042,0.00
 000017,0.00000032,0.00000044,0.00000078,-0.00000052,0.00000061,-0.0000
 0052,-0.00000040,0.00000084,-0.00000028,-0.00000035,0.00000040,-0.0000
 0041,-0.00000029,0.00000066,-0.00000004,-0.00000028,0.00000086,0.00000
 018,0.00000001,0.00000096,0.00000034,0.00000024,0.00000077,0.00000050,
 -0.00000004,0.00000083,0.00000020,0.,0.00000030,0.,0.00000025,0.000000
 20,0.00000031,0.00000010,-0.00000031,0.,0.00000017,-0.00000031,0.00000
 013,-0.00000019,-0.00000014,-0.00000018,0.00000012,0.00000053,0.000000
 40,0.00000006,-0.00000023,0.00000029,0.00000049,0.00000024,0.00000070,
 0.00000049,0.00000006,0.00000061,0.00000049,0.00000048,0.00000079\\\@


 WHERE THERE IS MUCH DESIRE TO LEARN, THERE OF NECESSITY WILL BE
 MUCH ARGUING, MUCH WRITING, MANY OPINIONS; FOR OPINION IN GOOD MEN
 IS BUT KNOWLEDGE IN THE MAKING. -- JOHN MILTON.
 File lengths (MBytes):  RWF=    534 Int=      0 D2E=      0 Chk=      9 Scr=      1
 Normal termination of Gaussian 16 at Sun Feb  5 19:20:31 2023.
real 14167.76
user 56169.51
sys 59.44
