 Entering Gaussian System, Link 0=g16
 Input=gaussian_test.inp
 Output=gaussian_test.log
 Initial command:
 /sw/restricted/lms/sw/Gaussian/g16_B01/g16/l1.exe "/scratch/user/peterchao1/peterchao1/6991770_1675632262000000094419443/Gau-226900.inp" -scrdir="/scratch/user/peterchao1/peterchao1/6991770_1675632262000000094419443/"
 Entering Link 1 = /sw/restricted/lms/sw/Gaussian/g16_B01/g16/l1.exe PID=    226941.
  
 Copyright (c) 1988-2017, Gaussian, Inc.  All Rights Reserved.
  
 This is part of the Gaussian(R) 16 program.  It is based on
 the Gaussian(R) 09 system (copyright 2009, Gaussian, Inc.),
 the Gaussian(R) 03 system (copyright 2003, Gaussian, Inc.),
 the Gaussian(R) 98 system (copyright 1998, Gaussian, Inc.),
 the Gaussian(R) 94 system (copyright 1995, Gaussian, Inc.),
 the Gaussian 92(TM) system (copyright 1992, Gaussian, Inc.),
 the Gaussian 90(TM) system (copyright 1990, Gaussian, Inc.),
 the Gaussian 88(TM) system (copyright 1988, Gaussian, Inc.),
 the Gaussian 86(TM) system (copyright 1986, Carnegie Mellon
 University), and the Gaussian 82(TM) system (copyright 1983,
 Carnegie Mellon University). Gaussian is a federally registered
 trademark of Gaussian, Inc.
  
 This software contains proprietary and confidential information,
 including trade secrets, belonging to Gaussian, Inc.
  
 This software is provided under written license and may be
 used, copied, transmitted, or stored only in accord with that
 written license.
  
 The following legend is applicable only to US Government
 contracts under FAR:
  
                    RESTRICTED RIGHTS LEGEND
  
 Use, reproduction and disclosure by the US Government is
 subject to restrictions as set forth in subparagraphs (a)
 and (c) of the Commercial Computer Software - Restricted
 Rights clause in FAR 52.227-19.
  
 Gaussian, Inc.
 340 Quinnipiac St., Bldg. 40, Wallingford CT 06492
  
  
 ---------------------------------------------------------------
 Warning -- This program may not be used in any manner that
 competes with the business of Gaussian, Inc. or will provide
 assistance to any competitor of Gaussian, Inc.  The licensee
 of this program is prohibited from giving any competitor of
 Gaussian, Inc. access to this program.  By using this program,
 the user acknowledges that Gaussian, Inc. is engaged in the
 business of creating and licensing software in the field of
 computational chemistry and represents and warrants to the
 licensee that it is not a competitor of Gaussian, Inc. and that
 it will not use this program in any manner prohibited above.
 ---------------------------------------------------------------
  

 Cite this work as:
 Gaussian 16, Revision B.01,
 M. J. Frisch, G. W. Trucks, H. B. Schlegel, G. E. Scuseria, 
 M. A. Robb, J. R. Cheeseman, G. Scalmani, V. Barone, 
 G. A. Petersson, H. Nakatsuji, X. Li, M. Caricato, A. V. Marenich, 
 J. Bloino, B. G. Janesko, R. Gomperts, B. Mennucci, H. P. Hratchian, 
 J. V. Ortiz, A. F. Izmaylov, J. L. Sonnenberg, D. Williams-Young, 
 F. Ding, F. Lipparini, F. Egidi, J. Goings, B. Peng, A. Petrone, 
 T. Henderson, D. Ranasinghe, V. G. Zakrzewski, J. Gao, N. Rega, 
 G. Zheng, W. Liang, M. Hada, M. Ehara, K. Toyota, R. Fukuda, 
 J. Hasegawa, M. Ishida, T. Nakajima, Y. Honda, O. Kitao, H. Nakai, 
 T. Vreven, K. Throssell, J. A. Montgomery, Jr., J. E. Peralta, 
 F. Ogliaro, M. J. Bearpark, J. J. Heyd, E. N. Brothers, K. N. Kudin, 
 V. N. Staroverov, T. A. Keith, R. Kobayashi, J. Normand, 
 K. Raghavachari, A. P. Rendell, J. C. Burant, S. S. Iyengar, 
 J. Tomasi, M. Cossi, J. M. Millam, M. Klene, C. Adamo, R. Cammi, 
 J. W. Ochterski, R. L. Martin, K. Morokuma, O. Farkas, 
 J. B. Foresman, and D. J. Fox, Gaussian, Inc., Wallingford CT, 2016.
 
 ******************************************
 Gaussian 16:  ES64L-G16RevB.01 20-Dec-2017
                 5-Feb-2023 
 ******************************************
 %nprocshared=4
 Will use up to    4 processors via shared memory.
 %mem=8000mb
 %chk=15.chk
 %nprocshared=4
 Will use up to    4 processors via shared memory.
 %mem=8000mb
 ----------------------------------------------------------------------
 #T wB97XD/def2svpp opt=tight freq int(grid=ultrafine) scf=(verytight,q
 c) Volume=tight
 ----------------------------------------------------------------------
 -----
 Dimer
 -----
 Symbolic Z-matrix:
 Charge =  0 Multiplicity = 1
 C                     2.45652  -2.29313  -0.30467 
 C                     2.30975  -0.90466  -0.91941 
 C                     2.78389   0.26963  -0.04175 
 C                     4.31278   0.34964  -0.05574 
 C                     2.22683   1.583    -0.63441 
 O                     0.82428   1.68952  -0.56571 
 C                     2.33763   0.14816   1.43261 
 O                     0.94593   0.20296   1.64848 
 H                     1.7682   -2.44143   0.52346 
 H                     3.47137  -2.46689   0.04583 
 H                     2.22948  -3.0434   -1.05861 
 H                     1.26727  -0.74919  -1.19482 
 H                     2.88789  -0.86894  -1.84623 
 H                     4.7474   -0.56498   0.33868 
 H                     4.66259   1.18114   0.55236 
 H                     4.67442   0.49341  -1.07109 
 H                     2.49108   1.65522  -1.69313 
 H                     2.68337   2.4339   -0.10723 
 H                     0.59485   1.43653   0.35018 
 H                     2.7434    1.00148   1.98704 
 H                     2.75984  -0.76341   1.86946 
 H                     0.51357  -0.61657   1.33834 
 C                    -2.457     2.29325   0.30393 
 C                    -2.30953   0.90502   0.91905 
 C                    -2.78379  -0.26962   0.04192 
 C                    -4.31267  -0.34967   0.05632 
 C                    -2.33775  -0.14865  -1.43254 
 O                    -0.94608  -0.20308  -1.64861 
 C                    -2.2266   -1.58278   0.63492 
 O                    -0.8241   -1.68954   0.56565 
 H                    -3.47187   2.46633  -0.04686 
 H                    -1.76859   2.44174  -0.52409 
 H                    -2.23061   3.04387   1.05771 
 H                    -2.8872    0.86936   1.84616 
 H                    -1.26689   0.74989   1.19399 
 H                    -4.7474    0.565    -0.33786 
 H                    -4.67404  -0.49357   1.07175 
 H                    -4.66264  -1.18108  -0.55182 
 H                    -2.76033   0.76261  -1.86972 
 H                    -2.74333  -1.00233  -1.98656 
 H                    -0.51385   0.61652  -1.3385 
 H                    -2.68351  -2.43386   0.10835 
 H                    -2.49037  -1.65449   1.69381 
 H                    -0.59489  -1.43677  -0.35034 
 
 Add virtual bond connecting atoms O30        and H22        Dist= 3.55D+00.
 Add virtual bond connecting atoms H41        and O6         Dist= 3.56D+00.

 GradGradGradGradGradGradGradGradGradGradGradGradGradGradGradGradGradGrad
 Initialization pass.
                           ----------------------------
                           !    Initial Parameters    !
                           ! (Angstroms and Degrees)  !
 --------------------------                            --------------------------
 ! Name  Definition              Value          Derivative Info.                !
 --------------------------------------------------------------------------------
 ! R1    R(1,2)                  1.5255         estimate D2E/DX2                !
 ! R2    R(1,9)                  1.087          estimate D2E/DX2                !
 ! R3    R(1,10)                 1.0876         estimate D2E/DX2                !
 ! R4    R(1,11)                 1.0876         estimate D2E/DX2                !
 ! R5    R(2,3)                  1.5408         estimate D2E/DX2                !
 ! R6    R(2,12)                 1.0894         estimate D2E/DX2                !
 ! R7    R(2,13)                 1.0929         estimate D2E/DX2                !
 ! R8    R(3,4)                  1.531          estimate D2E/DX2                !
 ! R9    R(3,5)                  1.5448         estimate D2E/DX2                !
 ! R10   R(3,7)                  1.5452         estimate D2E/DX2                !
 ! R11   R(4,14)                 1.0867         estimate D2E/DX2                !
 ! R12   R(4,15)                 1.0879         estimate D2E/DX2                !
 ! R13   R(4,16)                 1.0874         estimate D2E/DX2                !
 ! R14   R(5,6)                  1.4083         estimate D2E/DX2                !
 ! R15   R(5,17)                 1.0936         estimate D2E/DX2                !
 ! R16   R(5,18)                 1.1002         estimate D2E/DX2                !
 ! R17   R(6,19)                 0.9775         estimate D2E/DX2                !
 ! R18   R(6,41)                 1.8813         estimate D2E/DX2                !
 ! R19   R(7,8)                  1.4094         estimate D2E/DX2                !
 ! R20   R(7,20)                 1.0955         estimate D2E/DX2                !
 ! R21   R(7,21)                 1.0955         estimate D2E/DX2                !
 ! R22   R(8,22)                 0.9771         estimate D2E/DX2                !
 ! R23   R(22,30)                1.8809         estimate D2E/DX2                !
 ! R24   R(23,24)                1.5256         estimate D2E/DX2                !
 ! R25   R(23,31)                1.0876         estimate D2E/DX2                !
 ! R26   R(23,32)                1.087          estimate D2E/DX2                !
 ! R27   R(23,33)                1.0876         estimate D2E/DX2                !
 ! R28   R(24,25)                1.5408         estimate D2E/DX2                !
 ! R29   R(24,34)                1.0929         estimate D2E/DX2                !
 ! R30   R(24,35)                1.0894         estimate D2E/DX2                !
 ! R31   R(25,26)                1.531          estimate D2E/DX2                !
 ! R32   R(25,27)                1.5452         estimate D2E/DX2                !
 ! R33   R(25,29)                1.5448         estimate D2E/DX2                !
 ! R34   R(26,36)                1.0867         estimate D2E/DX2                !
 ! R35   R(26,37)                1.0874         estimate D2E/DX2                !
 ! R36   R(26,38)                1.0879         estimate D2E/DX2                !
 ! R37   R(27,28)                1.4094         estimate D2E/DX2                !
 ! R38   R(27,39)                1.0955         estimate D2E/DX2                !
 ! R39   R(27,40)                1.0955         estimate D2E/DX2                !
 ! R40   R(28,41)                0.9771         estimate D2E/DX2                !
 ! R41   R(29,30)                1.4083         estimate D2E/DX2                !
 ! R42   R(29,42)                1.1002         estimate D2E/DX2                !
 ! R43   R(29,43)                1.0936         estimate D2E/DX2                !
 ! R44   R(30,44)                0.9775         estimate D2E/DX2                !
 ! A1    A(2,1,9)              111.7308         estimate D2E/DX2                !
 ! A2    A(2,1,10)             111.4092         estimate D2E/DX2                !
 ! A3    A(2,1,11)             109.1738         estimate D2E/DX2                !
 ! A4    A(9,1,10)             108.8769         estimate D2E/DX2                !
 ! A5    A(9,1,11)             107.5672         estimate D2E/DX2                !
 ! A6    A(10,1,11)            107.9368         estimate D2E/DX2                !
 ! A7    A(1,2,3)              115.7542         estimate D2E/DX2                !
 ! A8    A(1,2,12)             108.8948         estimate D2E/DX2                !
 ! A9    A(1,2,13)             108.6974         estimate D2E/DX2                !
 ! A10   A(3,2,12)             109.2507         estimate D2E/DX2                !
 ! A11   A(3,2,13)             107.1784         estimate D2E/DX2                !
 ! A12   A(12,2,13)            106.6874         estimate D2E/DX2                !
 ! A13   A(2,3,4)              109.9934         estimate D2E/DX2                !
 ! A14   A(2,3,5)              108.5693         estimate D2E/DX2                !
 ! A15   A(2,3,7)              113.2484         estimate D2E/DX2                !
 ! A16   A(4,3,5)              108.1891         estimate D2E/DX2                !
 ! A17   A(4,3,7)              107.5314         estimate D2E/DX2                !
 ! A18   A(5,3,7)              109.1922         estimate D2E/DX2                !
 ! A19   A(3,4,14)             110.6139         estimate D2E/DX2                !
 ! A20   A(3,4,15)             110.8497         estimate D2E/DX2                !
 ! A21   A(3,4,16)             110.3381         estimate D2E/DX2                !
 ! A22   A(14,4,15)            108.1673         estimate D2E/DX2                !
 ! A23   A(14,4,16)            108.492          estimate D2E/DX2                !
 ! A24   A(15,4,16)            108.2972         estimate D2E/DX2                !
 ! A25   A(3,5,6)              113.8738         estimate D2E/DX2                !
 ! A26   A(3,5,17)             109.902          estimate D2E/DX2                !
 ! A27   A(3,5,18)             108.9096         estimate D2E/DX2                !
 ! A28   A(6,5,17)             106.4329         estimate D2E/DX2                !
 ! A29   A(6,5,18)             109.3547         estimate D2E/DX2                !
 ! A30   A(17,5,18)            108.2129         estimate D2E/DX2                !
 ! A31   A(5,6,19)             105.0633         estimate D2E/DX2                !
 ! A32   A(5,6,41)             130.1829         estimate D2E/DX2                !
 ! A33   A(19,6,41)             94.0331         estimate D2E/DX2                !
 ! A34   A(3,7,8)              115.3576         estimate D2E/DX2                !
 ! A35   A(3,7,20)             108.3419         estimate D2E/DX2                !
 ! A36   A(3,7,21)             109.5481         estimate D2E/DX2                !
 ! A37   A(8,7,20)             104.9477         estimate D2E/DX2                !
 ! A38   A(8,7,21)             110.5999         estimate D2E/DX2                !
 ! A39   A(20,7,21)            107.6725         estimate D2E/DX2                !
 ! A40   A(7,8,22)             110.8367         estimate D2E/DX2                !
 ! A41   A(8,22,30)            157.4513         estimate D2E/DX2                !
 ! A42   A(24,23,31)           111.4105         estimate D2E/DX2                !
 ! A43   A(24,23,32)           111.7299         estimate D2E/DX2                !
 ! A44   A(24,23,33)           109.1754         estimate D2E/DX2                !
 ! A45   A(31,23,32)           108.876          estimate D2E/DX2                !
 ! A46   A(31,23,33)           107.9352         estimate D2E/DX2                !
 ! A47   A(32,23,33)           107.5677         estimate D2E/DX2                !
 ! A48   A(23,24,25)           115.75           estimate D2E/DX2                !
 ! A49   A(23,24,34)           108.7009         estimate D2E/DX2                !
 ! A50   A(23,24,35)           108.8964         estimate D2E/DX2                !
 ! A51   A(25,24,34)           107.1781         estimate D2E/DX2                !
 ! A52   A(25,24,35)           109.2512         estimate D2E/DX2                !
 ! A53   A(34,24,35)           106.6865         estimate D2E/DX2                !
 ! A54   A(24,25,26)           109.991          estimate D2E/DX2                !
 ! A55   A(24,25,27)           113.246          estimate D2E/DX2                !
 ! A56   A(24,25,29)           108.5718         estimate D2E/DX2                !
 ! A57   A(26,25,27)           107.5367         estimate D2E/DX2                !
 ! A58   A(26,25,29)           108.1867         estimate D2E/DX2                !
 ! A59   A(27,25,29)           109.1915         estimate D2E/DX2                !
 ! A60   A(25,26,36)           110.613          estimate D2E/DX2                !
 ! A61   A(25,26,37)           110.3383         estimate D2E/DX2                !
 ! A62   A(25,26,38)           110.8506         estimate D2E/DX2                !
 ! A63   A(36,26,37)           108.4913         estimate D2E/DX2                !
 ! A64   A(36,26,38)           108.1667         estimate D2E/DX2                !
 ! A65   A(37,26,38)           108.2981         estimate D2E/DX2                !
 ! A66   A(25,27,28)           115.3592         estimate D2E/DX2                !
 ! A67   A(25,27,39)           109.547          estimate D2E/DX2                !
 ! A68   A(25,27,40)           108.3419         estimate D2E/DX2                !
 ! A69   A(28,27,39)           110.6003         estimate D2E/DX2                !
 ! A70   A(28,27,40)           104.947          estimate D2E/DX2                !
 ! A71   A(39,27,40)           107.6723         estimate D2E/DX2                !
 ! A72   A(27,28,41)           110.8389         estimate D2E/DX2                !
 ! A73   A(25,29,30)           113.8765         estimate D2E/DX2                !
 ! A74   A(25,29,42)           108.9086         estimate D2E/DX2                !
 ! A75   A(25,29,43)           109.9029         estimate D2E/DX2                !
 ! A76   A(30,29,42)           109.3544         estimate D2E/DX2                !
 ! A77   A(30,29,43)           106.431          estimate D2E/DX2                !
 ! A78   A(42,29,43)           108.2124         estimate D2E/DX2                !
 ! A79   A(22,30,29)           130.1529         estimate D2E/DX2                !
 ! A80   A(22,30,44)            94.0531         estimate D2E/DX2                !
 ! A81   A(29,30,44)           105.071          estimate D2E/DX2                !
 ! A82   A(6,41,28)            157.4345         estimate D2E/DX2                !
 ! D1    D(9,1,2,3)             69.2807         estimate D2E/DX2                !
 ! D2    D(9,1,2,12)           -54.2264         estimate D2E/DX2                !
 ! D3    D(9,1,2,13)          -170.0913         estimate D2E/DX2                !
 ! D4    D(10,1,2,3)           -52.7501         estimate D2E/DX2                !
 ! D5    D(10,1,2,12)         -176.2571         estimate D2E/DX2                !
 ! D6    D(10,1,2,13)           67.878          estimate D2E/DX2                !
 ! D7    D(11,1,2,3)          -171.8646         estimate D2E/DX2                !
 ! D8    D(11,1,2,12)           64.6284         estimate D2E/DX2                !
 ! D9    D(11,1,2,13)          -51.2365         estimate D2E/DX2                !
 ! D10   D(1,2,3,4)             76.7917         estimate D2E/DX2                !
 ! D11   D(1,2,3,5)           -165.002          estimate D2E/DX2                !
 ! D12   D(1,2,3,7)            -43.5517         estimate D2E/DX2                !
 ! D13   D(12,2,3,4)          -159.8878         estimate D2E/DX2                !
 ! D14   D(12,2,3,5)           -41.6815         estimate D2E/DX2                !
 ! D15   D(12,2,3,7)            79.7688         estimate D2E/DX2                !
 ! D16   D(13,2,3,4)           -44.6536         estimate D2E/DX2                !
 ! D17   D(13,2,3,5)            73.5526         estimate D2E/DX2                !
 ! D18   D(13,2,3,7)          -164.997          estimate D2E/DX2                !
 ! D19   D(2,3,4,14)           -60.584          estimate D2E/DX2                !
 ! D20   D(2,3,4,15)           179.4344         estimate D2E/DX2                !
 ! D21   D(2,3,4,16)            59.4707         estimate D2E/DX2                !
 ! D22   D(5,3,4,14)          -179.0245         estimate D2E/DX2                !
 ! D23   D(5,3,4,15)            60.9938         estimate D2E/DX2                !
 ! D24   D(5,3,4,16)           -58.9699         estimate D2E/DX2                !
 ! D25   D(7,3,4,14)            63.1564         estimate D2E/DX2                !
 ! D26   D(7,3,4,15)           -56.8252         estimate D2E/DX2                !
 ! D27   D(7,3,4,16)          -176.789          estimate D2E/DX2                !
 ! D28   D(2,3,5,6)             66.1912         estimate D2E/DX2                !
 ! D29   D(2,3,5,17)           -53.0998         estimate D2E/DX2                !
 ! D30   D(2,3,5,18)          -171.4842         estimate D2E/DX2                !
 ! D31   D(4,3,5,6)           -174.4655         estimate D2E/DX2                !
 ! D32   D(4,3,5,17)            66.2436         estimate D2E/DX2                !
 ! D33   D(4,3,5,18)           -52.1408         estimate D2E/DX2                !
 ! D34   D(7,3,5,6)            -57.7152         estimate D2E/DX2                !
 ! D35   D(7,3,5,17)          -177.0061         estimate D2E/DX2                !
 ! D36   D(7,3,5,18)            64.6095         estimate D2E/DX2                !
 ! D37   D(2,3,7,8)            -64.6081         estimate D2E/DX2                !
 ! D38   D(2,3,7,20)           178.1441         estimate D2E/DX2                !
 ! D39   D(2,3,7,21)            60.9439         estimate D2E/DX2                !
 ! D40   D(4,3,7,8)            173.6585         estimate D2E/DX2                !
 ! D41   D(4,3,7,20)            56.4108         estimate D2E/DX2                !
 ! D42   D(4,3,7,21)           -60.7894         estimate D2E/DX2                !
 ! D43   D(5,3,7,8)             56.4915         estimate D2E/DX2                !
 ! D44   D(5,3,7,20)           -60.7562         estimate D2E/DX2                !
 ! D45   D(5,3,7,21)          -177.9564         estimate D2E/DX2                !
 ! D46   D(3,5,6,19)            47.1923         estimate D2E/DX2                !
 ! D47   D(3,5,6,41)           -61.63           estimate D2E/DX2                !
 ! D48   D(17,5,6,19)          168.4345         estimate D2E/DX2                !
 ! D49   D(17,5,6,41)           59.6122         estimate D2E/DX2                !
 ! D50   D(18,5,6,19)          -74.8872         estimate D2E/DX2                !
 ! D51   D(18,5,6,41)          176.2905         estimate D2E/DX2                !
 ! D52   D(5,6,41,28)           36.9813         estimate D2E/DX2                !
 ! D53   D(19,6,41,28)         -76.632          estimate D2E/DX2                !
 ! D54   D(3,7,8,22)            71.9652         estimate D2E/DX2                !
 ! D55   D(20,7,8,22)         -168.8938         estimate D2E/DX2                !
 ! D56   D(21,7,8,22)          -53.0437         estimate D2E/DX2                !
 ! D57   D(7,8,22,30)         -143.6493         estimate D2E/DX2                !
 ! D58   D(8,22,30,29)         -37.0054         estimate D2E/DX2                !
 ! D59   D(8,22,30,44)          76.6241         estimate D2E/DX2                !
 ! D60   D(31,23,24,25)         52.705          estimate D2E/DX2                !
 ! D61   D(31,23,24,34)        -67.9225         estimate D2E/DX2                !
 ! D62   D(31,23,24,35)        176.2108         estimate D2E/DX2                !
 ! D63   D(32,23,24,25)        -69.3249         estimate D2E/DX2                !
 ! D64   D(32,23,24,34)        170.0477         estimate D2E/DX2                !
 ! D65   D(32,23,24,35)         54.181          estimate D2E/DX2                !
 ! D66   D(33,23,24,25)        171.8194         estimate D2E/DX2                !
 ! D67   D(33,23,24,34)         51.1919         estimate D2E/DX2                !
 ! D68   D(33,23,24,35)        -64.6748         estimate D2E/DX2                !
 ! D69   D(23,24,25,26)        -76.7721         estimate D2E/DX2                !
 ! D70   D(23,24,25,27)         43.5748         estimate D2E/DX2                !
 ! D71   D(23,24,25,29)        165.0245         estimate D2E/DX2                !
 ! D72   D(34,24,25,26)         44.6747         estimate D2E/DX2                !
 ! D73   D(34,24,25,27)        165.0216         estimate D2E/DX2                !
 ! D74   D(34,24,25,29)        -73.5287         estimate D2E/DX2                !
 ! D75   D(35,24,25,26)        159.908          estimate D2E/DX2                !
 ! D76   D(35,24,25,27)        -79.7451         estimate D2E/DX2                !
 ! D77   D(35,24,25,29)         41.7046         estimate D2E/DX2                !
 ! D78   D(24,25,26,36)         60.5549         estimate D2E/DX2                !
 ! D79   D(24,25,26,37)        -59.4984         estimate D2E/DX2                !
 ! D80   D(24,25,26,38)       -179.4641         estimate D2E/DX2                !
 ! D81   D(27,25,26,36)        -63.1845         estimate D2E/DX2                !
 ! D82   D(27,25,26,37)        176.7622         estimate D2E/DX2                !
 ! D83   D(27,25,26,38)         56.7965         estimate D2E/DX2                !
 ! D84   D(29,25,26,36)        178.9957         estimate D2E/DX2                !
 ! D85   D(29,25,26,37)         58.9424         estimate D2E/DX2                !
 ! D86   D(29,25,26,38)        -61.0233         estimate D2E/DX2                !
 ! D87   D(24,25,27,28)         64.5914         estimate D2E/DX2                !
 ! D88   D(24,25,27,39)        -60.9616         estimate D2E/DX2                !
 ! D89   D(24,25,27,40)       -178.1609         estimate D2E/DX2                !
 ! D90   D(26,25,27,28)       -173.6761         estimate D2E/DX2                !
 ! D91   D(26,25,27,39)         60.7709         estimate D2E/DX2                !
 ! D92   D(26,25,27,40)        -56.4284         estimate D2E/DX2                !
 ! D93   D(29,25,27,28)        -56.5094         estimate D2E/DX2                !
 ! D94   D(29,25,27,39)        177.9376         estimate D2E/DX2                !
 ! D95   D(29,25,27,40)         60.7383         estimate D2E/DX2                !
 ! D96   D(24,25,29,30)        -66.21           estimate D2E/DX2                !
 ! D97   D(24,25,29,42)        171.4647         estimate D2E/DX2                !
 ! D98   D(24,25,29,43)         53.081          estimate D2E/DX2                !
 ! D99   D(26,25,29,30)        174.4495         estimate D2E/DX2                !
 ! D100  D(26,25,29,42)         52.1241         estimate D2E/DX2                !
 ! D101  D(26,25,29,43)        -66.2595         estimate D2E/DX2                !
 ! D102  D(27,25,29,30)         57.6946         estimate D2E/DX2                !
 ! D103  D(27,25,29,42)        -64.6308         estimate D2E/DX2                !
 ! D104  D(27,25,29,43)        176.9856         estimate D2E/DX2                !
 ! D105  D(25,27,28,41)        -71.938          estimate D2E/DX2                !
 ! D106  D(39,27,28,41)         53.071          estimate D2E/DX2                !
 ! D107  D(40,27,28,41)        168.9206         estimate D2E/DX2                !
 ! D108  D(27,28,41,6)         143.6467         estimate D2E/DX2                !
 ! D109  D(25,29,30,22)         61.6659         estimate D2E/DX2                !
 ! D110  D(25,29,30,44)        -47.1753         estimate D2E/DX2                !
 ! D111  D(42,29,30,22)       -176.2543         estimate D2E/DX2                !
 ! D112  D(42,29,30,44)         74.9045         estimate D2E/DX2                !
 ! D113  D(43,29,30,22)        -59.5776         estimate D2E/DX2                !
 ! D114  D(43,29,30,44)       -168.4189         estimate D2E/DX2                !
 --------------------------------------------------------------------------------
 Number of steps in this run=    250 maximum allowed number of steps=    264.
 GradGradGradGradGradGradGradGradGradGradGradGradGradGradGradGradGradGrad

                    Distance matrix (angstroms):
                    1          2          3          4          5
     1  C    0.000000
     2  C    1.525545   0.000000
     3  C    2.596929   1.540800   0.000000
     4  C    3.239122   2.516214   1.531047   0.000000
     5  C    3.896907   2.505311   1.544833   2.491433   0.000000
     6  O    4.312058   3.010235   2.476027   3.771606   1.408267
     7  C    2.998700   2.577054   1.545194   2.481331   2.518645
     8  O    3.511001   3.111411   2.497881   3.776449   2.959187
     9  H    1.086998   2.176415   2.949730   3.821046   4.212721
    10  H    1.087647   2.172926   2.822910   2.941275   4.291062
    11  H    1.087601   2.144768   3.509638   4.105924   4.645813
    12  H    2.142528   1.089392   2.160481   3.432203   2.583390
    13  H    2.142614   1.092939   2.136191   2.592508   2.813813
    14  H    2.940841   2.764110   2.167175   1.086729   3.451663
    15  H    4.203788   3.471681   2.171021   1.087916   2.739133
    16  H    3.642983   2.751238   2.164196   1.087377   2.714523
    17  H    4.185508   2.680395   2.175468   2.775637   1.093595
    18  H    4.736594   3.456194   2.167599   2.646091   1.100175
    19  H    4.219596   3.167633   2.511404   3.894753   1.911597
    20  H    4.023525   3.502703   2.157139   2.657223   2.734413
    21  H    2.675613   2.828485   2.172661   2.712361   3.472618
    22  H    3.047189   2.899426   2.800775   4.160651   3.415420
    23  C    6.748924   5.868998   5.628633   7.052445   4.829409
    24  C    5.868636   5.290807   5.222051   6.716675   4.842671
    25  C    5.628103   5.222218   5.594357   7.124206   5.384783
    26  C    7.051900   6.716883   7.124208   8.654480   6.854003
    27  C    5.371773   4.736470   5.323579   6.809807   4.946819
    28  O    4.213329   3.409453   4.088782   5.522531   3.779689
    29  C    4.828982   4.842961   5.384639   6.853816   5.609491
    30  O    3.447347   3.555619   4.150283   5.561645   4.632259
    31  H    7.606886   6.749227   6.630240   8.067298   5.796608
    32  H    6.349700   5.290326   5.067130   6.448204   4.088150
    33  H    7.232479   6.333617   5.835270   7.163418   4.986591
    34  H    6.571363   6.148485   6.007095   7.465061   5.728509
    35  H    5.036840   4.471729   4.262222   5.731909   4.030281
    36  H    7.750254   7.231975   7.542896   9.067132   7.054371
    37  H    7.481834   7.273723   7.579124   9.096442   7.405750
    38  H    7.209723   6.987538   7.603651   9.118516   7.423725
    39  H    6.245193   5.421126   5.858577   7.313686   5.202964
    40  H    5.615452   5.165455   5.995859   7.439392   5.763221
    41  H    4.284621   3.234557   3.560479   5.001308   2.990178
    42  H    5.158513   5.322342   6.101131   7.531456   6.387348
    43  H    5.373406   5.516547   5.876412   7.304815   6.176883
    44  H    3.169624   3.007305   3.797783   5.230988   4.142676
                    6          7          8          9         10
     6  O    0.000000
     7  C    2.942663   0.000000
     8  O    2.669700   1.409405   0.000000
     9  H    4.375157   2.802997   2.989077   0.000000
    10  H    4.965562   3.169703   4.009288   1.769055   0.000000
    11  H    4.961664   4.050181   4.417544   1.754448   1.759107
    12  H    2.557206   2.975609   3.015654   2.463144   3.057410
    13  H    3.527598   3.476789   4.139222   3.056439   2.544362
    14  H    4.614276   2.740845   4.093462   3.525734   2.308951
    15  H    4.030035   2.692082   3.996480   4.636950   3.870876
    16  H    4.063217   3.442138   4.624077   4.427412   3.384998
    17  H    2.012589   3.473471   3.957644   4.713633   4.580033
    18  H    2.054398   2.777633   3.328415   5.000418   4.966099
    19  H    0.977489   2.422562   1.824980   4.055284   4.858359
    20  H    3.266953   1.095539   1.995788   3.866102   4.040772
    21  H    3.961475   1.095475   2.067111   2.368716   2.594944
    22  H    3.006657   1.980125   0.977115   2.359709   3.720593
    23  C    3.447833   5.372505   4.213921   6.349627   7.607310
    24  C    3.555378   4.736315   3.409255   5.289908   6.749157
    25  C    4.150367   5.323294   4.088419   5.066486   6.629861
    26  C    5.561782   6.809442   5.522073   6.447537   8.066850
    27  C    3.758813   5.491481   4.516516   5.093297   6.426957
    28  O    2.808695   4.516636   3.823005   4.134658   5.244981
    29  C    4.632201   4.946177   3.779037   4.087566   5.796172
    30  O    3.926215   3.758361   2.808392   2.699468   4.396080
    31  H    4.396536   6.427520   5.245383   7.202065   8.517855
    32  H    2.700098   5.094133   4.135318   6.119772   7.202544
    33  H    3.715110   5.421661   4.302346   6.809139   7.994051
    34  H    4.501650   5.290560   3.895652   5.863762   7.402921
    35  H    2.890053   3.662182   2.324283   4.454880   5.840983
    36  H    5.688590   7.314776   6.040751   7.227280   8.768567
    37  H    6.138294   7.050219   5.692267   6.752579   8.443594
    38  H    6.192475   7.396524   6.181661   6.640815   8.256670
    39  H    3.925435   6.105089   5.140754   6.041588   7.275515
    40  H    4.689635   6.231409   5.317601   5.359581   6.700600
    41  H    1.881255   4.003667   3.350236   4.245672   5.225496
    42  H    5.455374   5.799336   4.743166   4.471031   6.155287
    43  H    5.222516   5.160171   3.906448   4.486029   6.238445
    44  H    3.440068   3.780285   3.009668   2.712392   4.213380
                   11         12         13         14         15
    11  H    0.000000
    12  H    2.491552   0.000000
    13  H    2.404605   1.750735   0.000000
    14  H    3.799330   3.807466   2.885133   0.000000
    15  H    5.134397   4.278665   3.620175   1.761189   0.000000
    16  H    4.299646   3.628778   2.376669   1.764359   1.763159
    17  H    4.748483   2.743572   2.559740   3.761445   3.159500
    18  H    5.577818   3.649692   3.738282   3.667742   2.433472
    19  H    4.972574   2.759801   3.923954   4.609749   4.080758
    20  H    5.089326   3.920208   4.267711   3.030990   2.402884
    21  H    3.748766   3.408479   3.719392   2.516555   3.022658
    22  H    3.818273   2.646227   3.980269   4.350546   4.589540
    23  C    7.231842   5.037151   6.571948   7.750745   7.210208
    24  C    6.332758   4.471952   6.148731   7.231734   6.987217
    25  C    5.834205   4.262699   6.007680   7.542815   7.603537
    26  C    7.162336   5.732428   7.465748   9.067024   9.118374
    27  C    5.420249   3.662428   5.291248   7.315047   7.396822
    28  O    4.301130   2.324455   3.896376   6.041189   6.182033
    29  C    4.985799   4.031127   5.729197   7.054102   7.423410
    30  O    3.714230   2.890907   4.502153   5.688382   6.192310
    31  H    7.992885   5.840961   7.403263   8.768913   8.257133
    32  H    6.808605   4.455149   5.864424   7.227919   6.641381
    33  H    7.837477   5.629944   7.066959   7.888807   7.158299
    34  H    7.065969   5.396937   7.071573   7.913088   7.666191
    35  H    5.629203   3.791519   5.396827   6.215473   5.979665
    36  H    7.887771   6.215928   7.913849   9.585705   9.472067
    37  H    7.661510   6.364109   8.114080   9.450186   9.499848
    38  H    7.157262   5.980286   7.667031   9.472134   9.682931
    39  H    6.327864   4.354610   5.879193   7.937602   7.819300
    40  H    5.454897   4.095835   5.634544   7.855506   8.127811
    41  H    4.582496   2.249046   3.746495   5.647089   5.539830
    42  H    5.086336   4.488320   6.108173   7.665775   8.199420
    43  H    5.637544   4.825309   6.486495   7.443701   7.778722
    44  H    3.325656   2.157208   3.832732   5.456625   5.942169
                   16         17         18         19         20
    16  H    0.000000
    17  H    2.550236   0.000000
    18  H    2.942591   1.777195   0.000000
    19  H    4.421808   2.796183   2.359215   0.000000
    20  H    3.652284   3.746296   2.537995   2.735849   0.000000
    21  H    3.727206   4.314399   3.759781   3.440219   1.768880
    22  H    4.934583   4.273337   4.012869   2.279977   2.830384
    23  C    7.482470   5.373910   5.158709   3.170163   5.616562
    24  C    7.273634   5.516542   5.321640   3.006922   5.165471
    25  C    7.579310   5.877047   6.100910   3.797520   5.995751
    26  C    9.096688   7.305562   7.531244   5.230739   7.439187
    27  C    7.050782   5.161348   5.799803   3.780348   6.231734
    28  O    5.692865   3.907604   4.743677   3.009640   5.318010
    29  C    7.405756   6.177461   6.386890   4.142207   5.762602
    30  O    6.138236   5.223022   5.455082   3.439792   4.689245
    31  H    8.444146   6.238988   6.155626   4.213831   6.701656
    32  H    6.753343   4.486660   4.471443   2.713053   5.360804
    33  H    7.662640   5.638247   5.086875   3.326762   5.456717
    34  H    8.113564   6.486152   6.106950   3.832018   5.633918
    35  H    6.363616   4.824673   4.487052   2.156287   4.095692
    36  H    9.450585   7.444531   7.665664   5.456430   7.855434
    37  H    9.641563   7.975019   8.005727   5.657491   7.621776
    38  H    9.500226   7.779648   8.199368   5.941941   8.127659
    39  H    7.482373   5.329666   5.961002   4.079140   6.724791
    40  H    7.622229   5.877733   6.692435   4.748876   7.064632
    41  H    5.196621   3.199109   3.878293   2.180201   4.670886
    42  H    8.006193   6.836831   7.248790   5.077991   6.691966
    43  H    7.974486   6.873166   6.835664   4.569281   5.876441
    44  H    5.657801   4.570195   5.078207   3.187794   4.748959
                   21         22         23         24         25
    21  H    0.000000
    22  H    2.312870   0.000000
    23  C    6.245758   4.285021   0.000000
    24  C    5.420835   3.234341   1.525556   0.000000
    25  C    5.857945   3.560008   2.596868   1.540788   0.000000
    26  C    7.312938   5.000744   3.238802   2.516167   1.531045
    27  C    6.104636   4.003346   2.998733   2.577008   1.545193
    28  O    5.140485   3.350134   3.510976   3.111228   2.497895
    29  C    5.201927   2.989464   3.896951   2.505336   1.544827
    30  O    3.924566   1.880866   4.312487   3.010508   2.476063
    31  H    7.275830   5.225593   1.087644   2.172949   2.822539
    32  H    6.042245   4.246197   1.087001   2.176417   2.949990
    33  H    6.329204   4.583459   1.087596   2.144794   3.509559
    34  H    5.878398   3.745819   2.142668   1.092938   2.136177
    35  H    4.354411   2.249026   2.142552   1.089384   2.160470
    36  H    7.936974   5.646555   2.940184   2.763807   2.167161
    37  H    7.481428   5.195917   3.642966   2.751412   2.164200
    38  H    7.818580   5.539359   4.203345   3.471649   2.171030
    39  H    6.839772   4.786672   2.675748   2.828557   2.172650
    40  H    6.723898   4.670241   4.023579   3.502673   2.157139
    41  H    4.786677   3.121154   3.047104   2.899008   2.800612
    42  H    5.960028   3.877719   4.736570   3.456176   2.167579
    43  H    5.328187   3.198014   4.185395   2.680301   2.175475
    44  H    4.078616   2.180145   4.220021   3.167856   2.511454
                   26         27         28         29         30
    26  C    0.000000
    27  C    2.481413   0.000000
    28  O    3.776531   1.409397   0.000000
    29  C    2.491389   2.518629   2.959357   0.000000
    30  O    3.771586   2.942501   2.669718   1.408271   0.000000
    31  H    2.940648   3.169291   4.008859   4.290775   4.965598
    32  H    3.821148   2.803448   2.989338   4.213052   4.375742
    33  H    4.105345   4.050303   4.417784   4.645921   4.962416
    34  H    2.592593   3.476799   4.139022   2.813622   3.527623
    35  H    3.432216   2.975361   3.015199   2.583591   2.557680
    36  H    1.086725   2.741170   4.093658   3.451615   4.614284
    37  H    1.087380   3.442191   4.624112   2.714248   4.063076
    38  H    1.087913   2.691965   3.996525   2.739339   4.030098
    39  H    2.712291   1.095480   2.067113   3.472595   3.961452
    40  H    2.657472   1.095541   1.995773   2.734244   3.266421
    41  H    4.160538   1.980137   0.977106   3.415382   3.006659
    42  H    2.645888   2.777781   3.328947   1.100173   2.054397
    43  H    2.775736   3.473458   3.957668   1.093596   2.012569
    44  H    3.894750   2.422395   1.825050   1.911691   0.977485
                   31         32         33         34         35
    31  H    0.000000
    32  H    1.769045   0.000000
    33  H    1.759083   1.754451   0.000000
    34  H    2.544736   3.056430   2.404424   0.000000
    35  H    3.057417   2.462893   2.491914   1.750719   0.000000
    36  H    2.307967   3.525643   3.798246   2.884948   3.807190
    37  H    3.384893   4.427686   4.299310   2.376995   3.629027
    38  H    3.869946   4.636927   5.133765   3.620332   4.278738
    39  H    2.594564   2.369338   3.748946   3.719580   3.408348
    40  H    4.040396   3.866595   5.089418   4.267752   3.919955
    41  H    3.720216   2.359886   3.818518   3.979803   2.645444
    42  H    4.965621   5.000847   5.577800   3.738013   3.649887
    43  H    4.579781   4.713716   4.748331   2.559396   2.743679
    44  H    4.858321   4.055932   4.973355   3.923974   2.760077
                   36         37         38         39         40
    36  H    0.000000
    37  H    1.764351   0.000000
    38  H    1.761177   1.763169   0.000000
    39  H    2.516761   3.727264   3.022174   0.000000
    40  H    3.031673   3.652361   2.402952   1.768883   0.000000
    41  H    4.350504   4.934451   4.589408   2.313053   2.830411
    42  H    3.667678   2.941950   2.433561   3.759789   2.538005
    43  H    3.761378   2.550120   3.160015   4.314388   3.746251
    44  H    4.609836   4.421704   4.080755   3.440191   2.735278
                   41         42         43         44
    41  H    0.000000
    42  H    4.013176   0.000000
    43  H    4.273058   1.777188   0.000000
    44  H    2.280137   2.359432   2.796212   0.000000
 Framework group  C1[X(C12H28O4)]
 Deg. of freedom   126
                         Standard orientation:                         
 ---------------------------------------------------------------------
 Center     Atomic      Atomic             Coordinates (Angstroms)
 Number     Number       Type             X           Y           Z
 ---------------------------------------------------------------------
      1          6           0       -2.479503   -2.273200    0.265326
      2          6           0       -2.320878   -0.895238    0.900421
      3          6           0       -2.781241    0.296158    0.038617
      4          6           0       -4.309313    0.390876    0.049909
      5          6           0       -2.213014    1.595350    0.651584
      6          8           0       -0.809315    1.689151    0.587970
      7          6           0       -2.332256    0.191612   -1.436208
      8          8           0       -0.939523    0.235924   -1.647758
      9          1           0       -1.790461   -2.416254   -0.563120
     10          1           0       -3.495062   -2.431970   -0.090210
     11          1           0       -2.261782   -3.036444    1.008920
     12          1           0       -1.277677   -0.753929    1.180672
     13          1           0       -2.901109   -0.867241    1.826198
     14          1           0       -4.751749   -0.513672   -0.358776
     15          1           0       -4.649398    1.234435   -0.547008
     16          1           0       -4.672244    0.523518    1.066313
     17          1           0       -2.479375    1.654870    1.710574
     18          1           0       -2.659857    2.458181    0.135601
     19          1           0       -0.579923    1.447164   -0.330892
     20          1           0       -2.728236    1.056756   -1.979286
     21          1           0       -2.762145   -0.709403   -1.887244
     22          1           0       -0.515979   -0.592173   -1.348393
     23          6           0        2.479983    2.273303   -0.264576
     24          6           0        2.320662    0.895585   -0.900053
     25          6           0        2.781135   -0.296143   -0.038788
     26          6           0        4.309200   -0.390897   -0.050482
     27          6           0        2.332373   -0.192094    1.436138
     28          8           0        0.939666   -0.236055    1.647884
     29          6           0        2.212789   -1.595115   -0.652096
     30          8           0        0.809129   -1.689177   -0.587913
     31          1           0        3.495550    2.431389    0.091236
     32          1           0        1.790845    2.416550    0.563761
     33          1           0        2.262903    3.036882   -1.008005
     34          1           0        2.900424    0.867665   -1.826125
     35          1           0        1.277296    0.754627   -1.179833
     36          1           0        4.751752    0.513701    0.357959
     37          1           0        4.671859   -0.523668   -1.066969
     38          1           0        4.649445   -1.234368    0.546465
     39          1           0        2.762627    0.708591    1.887497
     40          1           0        2.728151   -1.057598    1.978791
     41          1           0        0.516254    0.592114    1.348561
     42          1           0        2.659993   -2.458118   -0.136716
     43          1           0        2.478666   -1.654126   -1.711237
     44          1           0        0.579952   -1.447407    0.331055
 ---------------------------------------------------------------------
 Rotational constants (GHZ):           0.8450181           0.3012479           0.2750378
   280 basis functions,   512 primitive gaussians,   296 cartesian basis functions
    66 alpha electrons       66 beta electrons
       nuclear repulsion energy      1352.1020643182 Hartrees.
 NAtoms=   44 NActive=   44 NUniq=   44 SFac= 1.00D+00 NAtFMM=   60 NAOKFM=F Big=F
 Nuclear repulsion after empirical dispersion term =     1352.0582939763 Hartrees.
   1 Symmetry operations used in ECPInt.
 ECPInt:  NShTT=   11628 NPrTT=   46652 LenC2=   11252 LenP2D=   32038.
 LDataN:  DoStor=T MaxTD1= 4 Len=   56
 ExpMin= 1.22D-01 ExpMax= 2.27D+03 ExpMxC= 3.41D+02 IAcc=3 IRadAn=         5 AccDes= 0.00D+00
 Harris functional with IExCor= 4639 and IRadAn=       5 diagonalized for initial guess.
 HarFok:  IExCor= 4639 AccDes= 0.00D+00 IRadAn=         5 IDoV= 1 UseB2=F ITyADJ=14
 ICtDFT=  3500011 ScaDFX=  1.000000  1.000000  1.000000  1.000000
 FoFCou: FMM=F IPFlag=           0 FMFlag=      100000 FMFlg1=           0
         NFxFlg=           0 DoJE=T BraDBF=F KetDBF=T FulRan=T
         wScrn=  0.000000 ICntrl=       500 IOpCl=  0 I1Cent=   200000004 NGrid=           0
         NMat0=    1 NMatS0=      1 NMatT0=    0 NMatD0=    1 NMtDS0=    0 NMtDT0=    0
 Petite list used in FoFCou.
     Minimum is close to point  3 DX= -2.63D-02 DF= -2.77D-04 DXR=  4.58D-02 DFR=  2.09D-03 which will be used.
     Accept linear search using points  2 and  3.
     Accept linear search using points  1 and  2.
     Accept linear search using points  2 and  3.
     Accept linear search using points  1 and  2.
     Minimum is close to point  2 DX= -6.60D-05 DF=  0.00D+00 DXR=  6.60D-05 DFR=  0.00D+00 which will be used.
 SCF Done:  E(RwB97XD) =  -774.180809382     a.u. after    7 cycles
            Convg  =    0.6946D-06                    24 Fock formations.
              S**2 =  0.0000                  -V/T =  2.0091

 **********************************************************************

            Population analysis using the SCF Density.

 **********************************************************************

 Orbital symmetries:
       Occupied  (A) (A) (A) (A) (A) (A) (A) (A) (A) (A) (A) (A)
                 (A) (A) (A) (A) (A) (A) (A) (A) (A) (A) (A) (A)
                 (A) (A) (A) (A) (A) (A) (A) (A) (A) (A) (A) (A)
                 (A) (A) (A) (A) (A) (A) (A) (A) (A) (A) (A) (A)
                 (A) (A) (A) (A) (A) (A) (A) (A) (A) (A) (A) (A)
                 (A) (A) (A) (A) (A) (A)
       Virtual   (A) (A) (A) (A) (A) (A) (A) (A) (A) (A) (A) (A)
                 (A) (A) (A) (A) (A) (A) (A) (A) (A) (A) (A) (A)
                 (A) (A) (A) (A) (A) (A) (A) (A) (A) (A) (A) (A)
                 (A) (A) (A) (A) (A) (A) (A) (A) (A) (A) (A) (A)
                 (A) (A) (A) (A) (A) (A) (A) (A) (A) (A) (A) (A)
                 (A) (A) (A) (A) (A) (A) (A) (A) (A) (A) (A) (A)
                 (A) (A) (A) (A) (A) (A) (A) (A) (A) (A) (A) (A)
                 (A) (A) (A) (A) (A) (A) (A) (A) (A) (A) (A) (A)
                 (A) (A) (A) (A) (A) (A) (A) (A) (A) (A) (A) (A)
                 (A) (A) (A) (A) (A) (A) (A) (A) (A) (A) (A) (A)
                 (A) (A) (A) (A) (A) (A) (A) (A) (A) (A) (A) (A)
                 (A) (A) (A) (A) (A) (A) (A) (A) (A) (A) (A) (A)
                 (A) (A) (A) (A) (A) (A) (A) (A) (A) (A) (A) (A)
                 (A) (A) (A) (A) (A) (A) (A) (A) (A) (A) (A) (A)
                 (A) (A) (A) (A) (A) (A) (A) (A) (A) (A) (A) (A)
                 (A) (A) (A) (A) (A) (A) (A) (A) (A) (A) (A) (A)
                 (A) (A) (A) (A) (A) (A) (A) (A) (A) (A) (A) (A)
                 (A) (A) (A) (A) (A) (A) (A) (A) (A) (A)
 The electronic state is 1-A.
 Alpha  occ. eigenvalues --  -19.25408 -19.25404 -19.25101 -19.25098 -10.33652
 Alpha  occ. eigenvalues --  -10.33650 -10.33388 -10.33386 -10.30542 -10.30540
 Alpha  occ. eigenvalues --  -10.28403 -10.28401 -10.28258 -10.28256 -10.27538
 Alpha  occ. eigenvalues --  -10.27537  -1.13240  -1.12214  -1.10850  -1.09835
 Alpha  occ. eigenvalues --   -0.91873  -0.91784  -0.83528  -0.83178  -0.77210
 Alpha  occ. eigenvalues --   -0.77120  -0.76854  -0.76574  -0.72041  -0.71780
 Alpha  occ. eigenvalues --   -0.65178  -0.64814  -0.62552  -0.62274  -0.57732
 Alpha  occ. eigenvalues --   -0.57594  -0.56650  -0.55564  -0.54547  -0.53863
 Alpha  occ. eigenvalues --   -0.53760  -0.53147  -0.50739  -0.50571  -0.49930
 Alpha  occ. eigenvalues --   -0.49605  -0.48933  -0.48745  -0.47663  -0.47558
 Alpha  occ. eigenvalues --   -0.46823  -0.46590  -0.44615  -0.44288  -0.43452
 Alpha  occ. eigenvalues --   -0.43348  -0.42527  -0.42171  -0.40589  -0.40365
 Alpha  occ. eigenvalues --   -0.39798  -0.38703  -0.36232  -0.35574  -0.34579
 Alpha  occ. eigenvalues --   -0.34138
 Alpha virt. eigenvalues --    0.12844   0.13051   0.14545   0.15490   0.16462
 Alpha virt. eigenvalues --    0.16852   0.17273   0.18233   0.19065   0.19336
 Alpha virt. eigenvalues --    0.20893   0.20920   0.21386   0.21883   0.22113
 Alpha virt. eigenvalues --    0.22599   0.23429   0.23864   0.24901   0.24928
 Alpha virt. eigenvalues --    0.25169   0.25636   0.25990   0.26040   0.27553
 Alpha virt. eigenvalues --    0.28187   0.29339   0.29388   0.29759   0.30198
 Alpha virt. eigenvalues --    0.30855   0.31103   0.31555   0.32310   0.32769
 Alpha virt. eigenvalues --    0.33091   0.34802   0.35198   0.35527   0.36683
 Alpha virt. eigenvalues --    0.37575   0.37647   0.49249   0.50320   0.50516
 Alpha virt. eigenvalues --    0.51389   0.52742   0.53592   0.54665   0.56110
 Alpha virt. eigenvalues --    0.57000   0.58201   0.59419   0.59480   0.60953
 Alpha virt. eigenvalues --    0.61935   0.65142   0.65691   0.66957   0.67047
 Alpha virt. eigenvalues --    0.67410   0.67815   0.69403   0.69791   0.71133
 Alpha virt. eigenvalues --    0.72006   0.72704   0.72954   0.73726   0.73928
 Alpha virt. eigenvalues --    0.75220   0.75755   0.76750   0.77140   0.77930
 Alpha virt. eigenvalues --    0.78132   0.78526   0.78697   0.79722   0.80097
 Alpha virt. eigenvalues --    0.80307   0.81093   0.81363   0.82016   0.82289
 Alpha virt. eigenvalues --    0.82356   0.82629   0.83086   0.83910   0.84184
 Alpha virt. eigenvalues --    0.84791   0.85086   0.85332   0.85452   0.85778
 Alpha virt. eigenvalues --    0.85966   0.86506   0.87357   0.87723   0.89326
 Alpha virt. eigenvalues --    0.90609   0.92072   0.95310   0.96415   0.97617
 Alpha virt. eigenvalues --    1.00461   1.01249   1.04175   1.06306   1.09497
 Alpha virt. eigenvalues --    1.13991   1.14211   1.15636   1.15926   1.18518
 Alpha virt. eigenvalues --    1.19112   1.24273   1.26678   1.28185   1.28220
 Alpha virt. eigenvalues --    1.30879   1.32347   1.34201   1.35758   1.37121
 Alpha virt. eigenvalues --    1.40301   1.43089   1.44655   1.47957   1.49758
 Alpha virt. eigenvalues --    1.52664   1.54429   1.55715   1.57482   1.63582
 Alpha virt. eigenvalues --    1.64195   1.66012   1.68428   1.74724   1.75328
 Alpha virt. eigenvalues --    1.77519   1.78225   1.82134   1.83219   1.87302
 Alpha virt. eigenvalues --    1.87902   1.90260   1.90601   1.94496   1.95543
 Alpha virt. eigenvalues --    1.96266   1.96753   1.98800   2.00059   2.02292
 Alpha virt. eigenvalues --    2.02961   2.07336   2.07637   2.08373   2.08404
 Alpha virt. eigenvalues --    2.11393   2.13304   2.13847   2.14943   2.17748
 Alpha virt. eigenvalues --    2.18144   2.20259   2.20919   2.21140   2.21434
 Alpha virt. eigenvalues --    2.25088   2.25985   2.27534   2.27591   2.28179
 Alpha virt. eigenvalues --    2.28347   2.31978   2.32409   2.36816   2.36860
 Alpha virt. eigenvalues --    2.38803   2.39210   2.49851   2.49900   2.57560
 Alpha virt. eigenvalues --    2.57562   2.68208   2.68680   2.69473   2.70083
 Alpha virt. eigenvalues --    2.70978   2.71281   2.74760   2.75148   2.78205
 Alpha virt. eigenvalues --    2.78461   2.82060   2.82322   2.91014   2.91130
 Alpha virt. eigenvalues --    2.94857   2.95333   3.03576   3.04539   3.08187
 Alpha virt. eigenvalues --    3.09081   3.10593   3.12461   3.14406   3.14888
 Alpha virt. eigenvalues --    3.47272   3.47959   3.50919   3.51483
          Condensed to atoms (all electrons):
 Mulliken charges:
               1
     1  C   -0.310070
     2  C   -0.227192
     3  C   -0.335351
     4  C   -0.259928
     5  C    0.101482
     6  O   -0.535422
     7  C    0.051012
     8  O   -0.536502
     9  H    0.125287
    10  H    0.111481
    11  H    0.122738
    12  H    0.128210
    13  H    0.096766
    14  H    0.121826
    15  H    0.113749
    16  H    0.118128
    17  H    0.099788
    18  H    0.088220
    19  H    0.362370
    20  H    0.097881
    21  H    0.107581
    22  H    0.357904
    23  C   -0.310052
    24  C   -0.227197
    25  C   -0.335368
    26  C   -0.259935
    27  C    0.051000
    28  O   -0.536472
    29  C    0.101511
    30  O   -0.535416
    31  H    0.111485
    32  H    0.125282
    33  H    0.122744
    34  H    0.096775
    35  H    0.128195
    36  H    0.121832
    37  H    0.118135
    38  H    0.113756
    39  H    0.107581
    40  H    0.097895
    41  H    0.357915
    42  H    0.088228
    43  H    0.099794
    44  H    0.362352
 Sum of Mulliken charges =   0.00000
 Mulliken charges with hydrogens summed into heavy atoms:
               1
     1  C    0.049435
     2  C   -0.002216
     3  C   -0.335351
     4  C    0.093775
     5  C    0.289490
     6  O   -0.173052
     7  C    0.256475
     8  O   -0.178598
    23  C    0.049460
    24  C   -0.002227
    25  C   -0.335368
    26  C    0.093788
    27  C    0.256476
    28  O   -0.178556
    29  C    0.289533
    30  O   -0.173064
 Electronic spatial extent (au):  <R**2>=           4544.9757
 Charge=              0.0000 electrons
 Dipole moment (field-independent basis, Debye):
    X=              0.0013    Y=             -0.0004    Z=             -0.0004  Tot=              0.0015
 Evaluate density.
 Using the total density.
 Monte-Carlo method of calculating molar volume:
 based on  0.001 e/bohr**3 density envelope.
 Number of points per bohr**3 =  100 CutOff= 1.00D-04
 Using the SCF density.
 There are      2269 points.  Will hold      2269 in memory.
 LenV=  1047812004 MDV=  1048576000.
 Box volume =11692.934 fraction occupied=0.188
 Integrated density= 3.1436068457965348D+02 error= 1.8236068457965348D+02
 Molar volume = 2200.477 bohr**3/mol (196.368 cm**3/mol)
 Recommended a0 for SCRF calculation =  5.20 angstrom (  9.83 bohr)
   1 Symmetry operations used in ECPInt.
 ECPInt:  NShTT=   11628 NPrTT=   46652 LenC2=   11252 LenP2D=   32038.
 LDataN:  DoStor=T MaxTD1= 5 Len=  102
 Calling FoFJK, ICntrl=      2127 FMM=F ISym2X=0 I1Cent= 0 IOpClX= 0 NMat=1 NMatS=1 NMatT=0.

 GradGradGradGradGradGradGradGradGradGradGradGradGradGradGradGradGradGrad
 FormGI is forming the generalized inverse of G from B-inverse, IUseBI=4.
 Internal  Forces:  Max     0.011330863 RMS     0.003200814
 Step number   1 out of a maximum of  250
 All quantities printed in internal units (Hartrees-Bohrs-Radians)
 Mixed Optimization -- RFO/linear search
 Second derivative matrix not updated -- first step.
 ITU=  0
     Eigenvalues ---    0.00230   0.00230   0.00355   0.00355   0.00392
     Eigenvalues ---    0.00408   0.00428   0.00428   0.00527   0.00569
     Eigenvalues ---    0.00922   0.00982   0.01588   0.02274   0.03037
     Eigenvalues ---    0.03235   0.03235   0.03298   0.03870   0.03950
     Eigenvalues ---    0.04087   0.04328   0.04577   0.04579   0.04622
     Eigenvalues ---    0.04761   0.04761   0.04935   0.05078   0.05206
     Eigenvalues ---    0.05273   0.05278   0.05436   0.05436   0.05532
     Eigenvalues ---    0.05571   0.05571   0.05589   0.05607   0.05607
     Eigenvalues ---    0.05738   0.05767   0.05768   0.07320   0.07809
     Eigenvalues ---    0.08815   0.08816   0.09671   0.09853   0.09975
     Eigenvalues ---    0.09988   0.11585   0.12009   0.12082   0.12554
     Eigenvalues ---    0.12555   0.13525   0.13724   0.14125   0.14139
     Eigenvalues ---    0.14154   0.14422   0.14937   0.15376   0.15993
     Eigenvalues ---    0.16000   0.16000   0.16000   0.16000   0.16000
     Eigenvalues ---    0.16000   0.16000   0.16000   0.16000   0.16000
     Eigenvalues ---    0.16000   0.16000   0.16064   0.18112   0.19727
     Eigenvalues ---    0.20551   0.21984   0.21984   0.22169   0.27724
     Eigenvalues ---    0.27946   0.28064   0.28095   0.28448   0.28449
     Eigenvalues ---    0.29327   0.29327   0.29838   0.29839   0.33663
     Eigenvalues ---    0.33663   0.34180   0.34180   0.34187   0.34187
     Eigenvalues ---    0.34400   0.34400   0.34475   0.34475   0.34883
     Eigenvalues ---    0.34884   0.35055   0.35055   0.35086   0.35086
     Eigenvalues ---    0.35091   0.35092   0.35117   0.35118   0.35161
     Eigenvalues ---    0.35162   0.35193   0.35194   0.41438   0.44097
     Eigenvalues ---    0.44182   0.44277   0.49931   0.51876   0.51876
     Eigenvalues ---    0.51950
 Linear search not attempted -- first point.
 Iteration  1 RMS(Cart)=  0.03681150 RMS(Int)=  0.00042261
 Iteration  2 RMS(Cart)=  0.00058298 RMS(Int)=  0.00005701
 Iteration  3 RMS(Cart)=  0.00000031 RMS(Int)=  0.00005701
 Variable       Old X    -DE/DX   Delta X   Delta X   Delta X     New X
                                 (Linear)    (Quad)   (Total)
    R1        2.88286   0.00437   0.00000   0.01425   0.01425   2.89711
    R2        2.05413   0.01090   0.00000   0.03028   0.03028   2.08441
    R3        2.05535   0.01099   0.00000   0.03061   0.03061   2.08596
    R4        2.05527   0.01042   0.00000   0.02900   0.02900   2.08427
    R5        2.91169   0.00409   0.00000   0.01397   0.01397   2.92566
    R6        2.05865   0.00738   0.00000   0.02066   0.02066   2.07931
    R7        2.06536   0.00804   0.00000   0.02276   0.02276   2.08812
    R8        2.89326   0.00327   0.00000   0.01085   0.01085   2.90411
    R9        2.91931   0.00053   0.00000   0.00183   0.00183   2.92114
   R10        2.91999  -0.00110   0.00000  -0.00379  -0.00379   2.91620
   R11        2.05362   0.01133   0.00000   0.03146   0.03146   2.08508
   R12        2.05586   0.01131   0.00000   0.03153   0.03153   2.08740
   R13        2.05484   0.01108   0.00000   0.03082   0.03082   2.08567
   R14        2.66124   0.00549   0.00000   0.01217   0.01217   2.67341
   R15        2.06660   0.00663   0.00000   0.01881   0.01881   2.08541
   R16        2.07903   0.00622   0.00000   0.01803   0.01803   2.09706
   R17        1.84719   0.00233   0.00000   0.00442   0.00442   1.85161
   R18        3.55506  -0.00156   0.00000  -0.02552  -0.02552   3.52954
   R19        2.66339   0.00215   0.00000   0.00479   0.00479   2.66818
   R20        2.07027   0.00574   0.00000   0.01639   0.01639   2.08666
   R21        2.07015   0.00738   0.00000   0.02106   0.02106   2.09121
   R22        1.84648   0.00312   0.00000   0.00591   0.00591   1.85239
   R23        3.55432  -0.00155   0.00000  -0.02545  -0.02545   3.52888
   R24        2.88288   0.00437   0.00000   0.01423   0.01423   2.89712
   R25        2.05535   0.01099   0.00000   0.03061   0.03061   2.08596
   R26        2.05413   0.01090   0.00000   0.03028   0.03028   2.08442
   R27        2.05526   0.01042   0.00000   0.02901   0.02901   2.08427
   R28        2.91167   0.00410   0.00000   0.01399   0.01399   2.92566
   R29        2.06535   0.00804   0.00000   0.02276   0.02276   2.08812
   R30        2.05864   0.00738   0.00000   0.02067   0.02067   2.07930
   R31        2.89326   0.00327   0.00000   0.01085   0.01085   2.90410
   R32        2.91999  -0.00110   0.00000  -0.00380  -0.00380   2.91619
   R33        2.91930   0.00053   0.00000   0.00184   0.00184   2.92114
   R34        2.05361   0.01133   0.00000   0.03146   0.03146   2.08507
   R35        2.05485   0.01108   0.00000   0.03082   0.03082   2.08567
   R36        2.05586   0.01132   0.00000   0.03154   0.03154   2.08739
   R37        2.66337   0.00215   0.00000   0.00479   0.00479   2.66816
   R38        2.07016   0.00737   0.00000   0.02106   0.02106   2.09122
   R39        2.07027   0.00574   0.00000   0.01639   0.01639   2.08666
   R40        1.84646   0.00312   0.00000   0.00591   0.00591   1.85237
   R41        2.66125   0.00549   0.00000   0.01217   0.01217   2.67342
   R42        2.07903   0.00622   0.00000   0.01803   0.01803   2.09706
   R43        2.06660   0.00663   0.00000   0.01881   0.01881   2.08541
   R44        1.84718   0.00233   0.00000   0.00443   0.00443   1.85161
    A1        1.95007   0.00089   0.00000   0.00421   0.00419   1.95426
    A2        1.94446   0.00188   0.00000   0.01191   0.01184   1.95630
    A3        1.90544   0.00216   0.00000   0.01320   0.01314   1.91858
    A4        1.90026  -0.00162   0.00000  -0.01025  -0.01027   1.88999
    A5        1.87740  -0.00177   0.00000  -0.01201  -0.01203   1.86537
    A6        1.88385  -0.00177   0.00000  -0.00834  -0.00846   1.87540
    A7        2.02029   0.00192   0.00000   0.01328   0.01320   2.03349
    A8        1.90057  -0.00041   0.00000   0.00033   0.00028   1.90086
    A9        1.89713  -0.00006   0.00000   0.00362   0.00356   1.90069
   A10        1.90679  -0.00030   0.00000   0.00083   0.00078   1.90757
   A11        1.87062  -0.00045   0.00000   0.00041   0.00033   1.87094
   A12        1.86205  -0.00091   0.00000  -0.02147  -0.02147   1.84058
   A13        1.91975   0.00063   0.00000   0.00623   0.00623   1.92597
   A14        1.89489   0.00064   0.00000   0.00878   0.00872   1.90361
   A15        1.97656  -0.00087   0.00000  -0.00811  -0.00814   1.96842
   A16        1.88826  -0.00055   0.00000  -0.00160  -0.00165   1.88661
   A17        1.87678  -0.00009   0.00000  -0.00292  -0.00291   1.87387
   A18        1.90576   0.00024   0.00000  -0.00236  -0.00228   1.90348
   A19        1.93058   0.00186   0.00000   0.01087   0.01083   1.94141
   A20        1.93469   0.00158   0.00000   0.01013   0.01008   1.94477
   A21        1.92576   0.00082   0.00000   0.00432   0.00430   1.93006
   A22        1.88787  -0.00165   0.00000  -0.00869  -0.00876   1.87911
   A23        1.89354  -0.00158   0.00000  -0.01086  -0.01088   1.88267
   A24        1.89014  -0.00120   0.00000  -0.00680  -0.00682   1.88332
   A25        1.98747   0.00082   0.00000   0.00559   0.00550   1.99297
   A26        1.91815  -0.00062   0.00000  -0.00345  -0.00355   1.91460
   A27        1.90083  -0.00034   0.00000  -0.00372  -0.00366   1.89717
   A28        1.85760   0.00041   0.00000   0.00908   0.00913   1.86673
   A29        1.90860   0.00028   0.00000   0.00388   0.00388   1.91248
   A30        1.88867  -0.00061   0.00000  -0.01212  -0.01217   1.87650
   A31        1.83370   0.00283   0.00000   0.02224   0.02222   1.85592
   A32        2.27212  -0.00111   0.00000   0.00170   0.00164   2.27376
   A33        1.64119  -0.00119   0.00000  -0.00275  -0.00291   1.63828
   A34        2.01337  -0.00386   0.00000  -0.01969  -0.01974   1.99363
   A35        1.89092   0.00070   0.00000   0.00455   0.00471   1.89564
   A36        1.91198   0.00139   0.00000   0.00550   0.00543   1.91740
   A37        1.83168   0.00201   0.00000   0.01646   0.01650   1.84818
   A38        1.93033   0.00118   0.00000   0.00408   0.00411   1.93444
   A39        1.87924  -0.00132   0.00000  -0.01035  -0.01039   1.86885
   A40        1.93446   0.00334   0.00000   0.01488   0.01486   1.94933
   A41        2.74804   0.00258   0.00000   0.01248   0.01222   2.76027
   A42        1.94448   0.00188   0.00000   0.01191   0.01184   1.95632
   A43        1.95006   0.00089   0.00000   0.00418   0.00416   1.95422
   A44        1.90547   0.00216   0.00000   0.01320   0.01313   1.91860
   A45        1.90024  -0.00162   0.00000  -0.01023  -0.01025   1.88999
   A46        1.88382  -0.00177   0.00000  -0.00833  -0.00844   1.87538
   A47        1.87741  -0.00177   0.00000  -0.01202  -0.01203   1.86538
   A48        2.02022   0.00193   0.00000   0.01334   0.01326   2.03348
   A49        1.89719  -0.00007   0.00000   0.00363   0.00357   1.90076
   A50        1.90060  -0.00042   0.00000   0.00027   0.00023   1.90083
   A51        1.87061  -0.00045   0.00000   0.00043   0.00035   1.87096
   A52        1.90679  -0.00031   0.00000   0.00080   0.00075   1.90754
   A53        1.86203  -0.00091   0.00000  -0.02148  -0.02148   1.84056
   A54        1.91971   0.00064   0.00000   0.00630   0.00629   1.92600
   A55        1.97652  -0.00087   0.00000  -0.00809  -0.00813   1.96839
   A56        1.89494   0.00063   0.00000   0.00874   0.00868   1.90361
   A57        1.87687  -0.00010   0.00000  -0.00299  -0.00298   1.87389
   A58        1.88821  -0.00055   0.00000  -0.00158  -0.00163   1.88659
   A59        1.90575   0.00024   0.00000  -0.00235  -0.00227   1.90349
   A60        1.93056   0.00186   0.00000   0.01091   0.01087   1.94143
   A61        1.92577   0.00082   0.00000   0.00430   0.00428   1.93004
   A62        1.93471   0.00158   0.00000   0.01012   0.01007   1.94478
   A63        1.89353  -0.00158   0.00000  -0.01085  -0.01087   1.88266
   A64        1.88787  -0.00165   0.00000  -0.00869  -0.00876   1.87910
   A65        1.89016  -0.00120   0.00000  -0.00681  -0.00684   1.88332
   A66        2.01340  -0.00386   0.00000  -0.01971  -0.01977   1.99363
   A67        1.91196   0.00139   0.00000   0.00553   0.00546   1.91742
   A68        1.89092   0.00070   0.00000   0.00455   0.00471   1.89563
   A69        1.93034   0.00118   0.00000   0.00408   0.00412   1.93446
   A70        1.83167   0.00201   0.00000   0.01645   0.01649   1.84816
   A71        1.87924  -0.00132   0.00000  -0.01035  -0.01039   1.86885
   A72        1.93450   0.00334   0.00000   0.01486   0.01484   1.94934
   A73        1.98752   0.00082   0.00000   0.00555   0.00547   1.99299
   A74        1.90081  -0.00033   0.00000  -0.00370  -0.00364   1.89717
   A75        1.91817  -0.00062   0.00000  -0.00345  -0.00356   1.91461
   A76        1.90859   0.00028   0.00000   0.00387   0.00387   1.91247
   A77        1.85757   0.00042   0.00000   0.00910   0.00915   1.86672
   A78        1.88866  -0.00061   0.00000  -0.01211  -0.01216   1.87650
   A79        2.27160  -0.00110   0.00000   0.00178   0.00172   2.27332
   A80        1.64154  -0.00119   0.00000  -0.00280  -0.00295   1.63858
   A81        1.83383   0.00283   0.00000   0.02220   0.02218   1.85601
   A82        2.74775   0.00259   0.00000   0.01249   0.01224   2.75999
    D1        1.20918   0.00001   0.00000  -0.00237  -0.00238   1.20679
    D2       -0.94643  -0.00065   0.00000  -0.01343  -0.01344  -0.95987
    D3       -2.96865   0.00069   0.00000   0.00993   0.00994  -2.95871
    D4       -0.92066   0.00012   0.00000  -0.00066  -0.00064  -0.92130
    D5       -3.07627  -0.00055   0.00000  -0.01171  -0.01170  -3.08796
    D6        1.18469   0.00079   0.00000   0.01164   0.01168   1.19638
    D7       -2.99960  -0.00024   0.00000  -0.00614  -0.00618  -3.00578
    D8        1.12798  -0.00091   0.00000  -0.01720  -0.01724   1.11074
    D9       -0.89425   0.00044   0.00000   0.00615   0.00615  -0.88810
   D10        1.34027  -0.00021   0.00000  -0.01975  -0.01977   1.32050
   D11       -2.87983  -0.00014   0.00000  -0.01289  -0.01288  -2.89271
   D12       -0.76012   0.00005   0.00000  -0.01498  -0.01498  -0.77510
   D13       -2.79057   0.00040   0.00000  -0.00888  -0.00890  -2.79947
   D14       -0.72748   0.00048   0.00000  -0.00202  -0.00200  -0.72948
   D15        1.39223   0.00066   0.00000  -0.00412  -0.00410   1.38813
   D16       -0.77935  -0.00106   0.00000  -0.03345  -0.03348  -0.81283
   D17        1.28374  -0.00098   0.00000  -0.02659  -0.02658   1.25715
   D18       -2.87974  -0.00080   0.00000  -0.02869  -0.02868  -2.90842
   D19       -1.05739   0.00069   0.00000   0.01219   0.01221  -1.04518
   D20        3.13172   0.00051   0.00000   0.00933   0.00932   3.14104
   D21        1.03796   0.00045   0.00000   0.00846   0.00845   1.04641
   D22       -3.12457  -0.00011   0.00000  -0.00102  -0.00095  -3.12552
   D23        1.06454  -0.00030   0.00000  -0.00388  -0.00384   1.06070
   D24       -1.02922  -0.00035   0.00000  -0.00476  -0.00471  -1.03393
   D25        1.10229  -0.00005   0.00000   0.00419   0.00415   1.10644
   D26       -0.99179  -0.00023   0.00000   0.00133   0.00126  -0.99052
   D27       -3.08555  -0.00029   0.00000   0.00045   0.00039  -3.08516
   D28        1.15525  -0.00074   0.00000  -0.01906  -0.01906   1.13619
   D29       -0.92677  -0.00138   0.00000  -0.03193  -0.03190  -0.95866
   D30       -2.99296  -0.00007   0.00000  -0.01298  -0.01299  -3.00596
   D31       -3.04500   0.00006   0.00000  -0.00755  -0.00755  -3.05255
   D32        1.15617  -0.00057   0.00000  -0.02042  -0.02039   1.13578
   D33       -0.91003   0.00073   0.00000  -0.00147  -0.00148  -0.91151
   D34       -1.00732  -0.00023   0.00000  -0.01320  -0.01315  -1.02047
   D35       -3.08934  -0.00086   0.00000  -0.02607  -0.02598  -3.11532
   D36        1.12765   0.00044   0.00000  -0.00712  -0.00708   1.12057
   D37       -1.12762   0.00001   0.00000  -0.00944  -0.00944  -1.13707
   D38        3.10920  -0.00064   0.00000  -0.02135  -0.02135   3.08785
   D39        1.06367  -0.00023   0.00000  -0.01460  -0.01462   1.04905
   D40        3.03091  -0.00016   0.00000  -0.01009  -0.01010   3.02081
   D41        0.98455  -0.00082   0.00000  -0.02200  -0.02201   0.96254
   D42       -1.06097  -0.00041   0.00000  -0.01525  -0.01528  -1.07626
   D43        0.98596   0.00042   0.00000  -0.00531  -0.00535   0.98062
   D44       -1.06040  -0.00024   0.00000  -0.01722  -0.01726  -1.07765
   D45       -3.10593   0.00017   0.00000  -0.01047  -0.01052  -3.11645
   D46        0.82366  -0.00003   0.00000  -0.00874  -0.00865   0.81501
   D47       -1.07565  -0.00048   0.00000  -0.02767  -0.02756  -1.10321
   D48        2.93974  -0.00002   0.00000  -0.00331  -0.00325   2.93648
   D49        1.04043  -0.00047   0.00000  -0.02224  -0.02217   1.01826
   D50       -1.30703  -0.00037   0.00000  -0.01068  -0.01064  -1.31766
   D51        3.07685  -0.00083   0.00000  -0.02960  -0.02955   3.04730
   D52        0.64545   0.00193   0.00000   0.04953   0.04958   0.69503
   D53       -1.33748  -0.00035   0.00000   0.02064   0.02077  -1.31671
   D54        1.25603  -0.00058   0.00000  -0.01963  -0.01978   1.23625
   D55       -2.94775  -0.00052   0.00000  -0.01381  -0.01399  -2.96175
   D56       -0.92579  -0.00040   0.00000  -0.01497  -0.01506  -0.94085
   D57       -2.50715  -0.00044   0.00000   0.03177   0.03171  -2.47544
   D58       -0.64587  -0.00193   0.00000  -0.04956  -0.04962  -0.69548
   D59        1.33734   0.00035   0.00000  -0.02075  -0.02087   1.31647
   D60        0.91988  -0.00012   0.00000   0.00087   0.00085   0.92073
   D61       -1.18547  -0.00080   0.00000  -0.01151  -0.01155  -1.19702
   D62        3.07546   0.00055   0.00000   0.01188   0.01187   3.08733
   D63       -1.20995  -0.00001   0.00000   0.00258   0.00259  -1.20736
   D64        2.96789  -0.00069   0.00000  -0.00980  -0.00982   2.95808
   D65        0.94564   0.00066   0.00000   0.01360   0.01360   0.95924
   D66        2.99881   0.00024   0.00000   0.00638   0.00641   3.00523
   D67        0.89347  -0.00043   0.00000  -0.00600  -0.00600   0.88747
   D68       -1.12879   0.00091   0.00000   0.01739   0.01742  -1.11136
   D69       -1.33993   0.00021   0.00000   0.01941   0.01943  -1.32050
   D70        0.76052  -0.00005   0.00000   0.01461   0.01460   0.77512
   D71        2.88022   0.00013   0.00000   0.01251   0.01249   2.89272
   D72        0.77972   0.00106   0.00000   0.03318   0.03321   0.81293
   D73        2.88017   0.00079   0.00000   0.02838   0.02838   2.90855
   D74       -1.28332   0.00098   0.00000   0.02628   0.02627  -1.25704
   D75        2.79092  -0.00040   0.00000   0.00860   0.00861   2.79953
   D76       -1.39181  -0.00067   0.00000   0.00380   0.00378  -1.38803
   D77        0.72788  -0.00048   0.00000   0.00170   0.00168   0.72956
   D78        1.05688  -0.00069   0.00000  -0.01209  -0.01210   1.04478
   D79       -1.03844  -0.00045   0.00000  -0.00837  -0.00837  -1.04681
   D80       -3.13224  -0.00051   0.00000  -0.00921  -0.00920  -3.14144
   D81       -1.10278   0.00005   0.00000  -0.00409  -0.00406  -1.10684
   D82        3.08508   0.00029   0.00000  -0.00038  -0.00033   3.08476
   D83        0.99129   0.00024   0.00000  -0.00122  -0.00115   0.99013
   D84        3.12406   0.00011   0.00000   0.00112   0.00106   3.12512
   D85        1.02874   0.00035   0.00000   0.00484   0.00479   1.03353
   D86       -1.06506   0.00030   0.00000   0.00400   0.00396  -1.06109
   D87        1.12733  -0.00001   0.00000   0.00950   0.00950   1.13683
   D88       -1.06398   0.00023   0.00000   0.01464   0.01466  -1.04932
   D89       -3.10949   0.00064   0.00000   0.02138   0.02138  -3.08811
   D90       -3.03122   0.00016   0.00000   0.01019   0.01020  -3.02102
   D91        1.06065   0.00041   0.00000   0.01533   0.01537   1.07602
   D92       -0.98486   0.00082   0.00000   0.02207   0.02209  -0.96277
   D93       -0.98628  -0.00041   0.00000   0.00541   0.00544  -0.98084
   D94        3.10560  -0.00017   0.00000   0.01055   0.01060   3.11620
   D95        1.06008   0.00024   0.00000   0.01729   0.01732   1.07741
   D96       -1.15558   0.00075   0.00000   0.01912   0.01912  -1.13646
   D97        2.99262   0.00007   0.00000   0.01306   0.01307   3.00569
   D98        0.92644   0.00138   0.00000   0.03199   0.03196   0.95839
   D99        3.04472  -0.00006   0.00000   0.00754   0.00754   3.05226
   D100       0.90974  -0.00074   0.00000   0.00148   0.00149   0.91123
   D101      -1.15645   0.00057   0.00000   0.02041   0.02038  -1.13607
   D102       1.00696   0.00023   0.00000   0.01326   0.01320   1.02017
   D103      -1.12802  -0.00044   0.00000   0.00719   0.00716  -1.12086
   D104       3.08898   0.00087   0.00000   0.02612   0.02604   3.11502
   D105      -1.25555   0.00058   0.00000   0.01947   0.01962  -1.23594
   D106       0.92626   0.00040   0.00000   0.01483   0.01492   0.94118
   D107       2.94822   0.00052   0.00000   0.01367   0.01385   2.96207
   D108       2.50711   0.00045   0.00000  -0.03167  -0.03162   2.47549
   D109       1.07627   0.00048   0.00000   0.02760   0.02750   1.10377
   D110      -0.82336   0.00003   0.00000   0.00875   0.00866  -0.81471
   D111      -3.07622   0.00082   0.00000   0.02953   0.02948  -3.04674
   D112       1.30733   0.00037   0.00000   0.01068   0.01064   1.31797
   D113      -1.03983   0.00047   0.00000   0.02219   0.02212  -1.01771
   D114      -2.93946   0.00002   0.00000   0.00333   0.00327  -2.93619
         Item               Value     Threshold  Converged?
 Maximum Force            0.011331     0.000015     NO 
 RMS     Force            0.003201     0.000010     NO 
 Maximum Displacement     0.111629     0.000060     NO 
 RMS     Displacement     0.037142     0.000040     NO 
 GradGradGradGradGradGradGradGradGradGradGradGradGradGradGradGradGradGrad

                    Distance matrix (angstroms):
                    1          2          3          4          5
     1  C    0.000000
     2  C    1.533085   0.000000
     3  C    2.620332   1.548193   0.000000
     4  C    3.261110   2.532472   1.536787   0.000000
     5  C    3.923729   2.519951   1.545802   2.495370   0.000000
     6  O    4.345070   3.023234   2.486568   3.785377   1.414706
     7  C    3.021091   2.574612   1.543189   2.481682   2.515760
     8  O    3.531072   3.091966   2.482576   3.771153   2.932907
     9  H    1.103022   2.198260   2.984868   3.849140   4.256051
    10  H    1.103844   2.200343   2.866526   2.975835   4.335274
    11  H    1.102949   2.172422   3.549842   4.150583   4.688702
    12  H    2.157431   1.100324   2.175645   3.458013   2.606080
    13  H    2.160760   1.104985   2.151624   2.627555   2.821545
    14  H    2.966364   2.791298   2.192584   1.103375   3.475380
    15  H    4.244273   3.506212   2.195940   1.104602   2.756701
    16  H    3.672947   2.782127   2.184611   1.103688   2.730818
    17  H    4.220780   2.710562   2.181130   2.769583   1.103550
    18  H    4.767237   3.476976   2.172768   2.648925   1.109717
    19  H    4.254804   3.179674   2.540337   3.932984   1.934233
    20  H    4.048865   3.513020   2.165274   2.652322   2.746685
    21  H    2.687158   2.825484   2.183188   2.727514   3.483371
    22  H    3.072372   2.870548   2.786406   4.163190   3.380756
    23  C    6.844682   5.919287   5.678000   7.099205   4.845132
    24  C    5.919326   5.284640   5.219854   6.719942   4.801969
    25  C    5.677968   5.219994   5.600141   7.136352   5.360817
    26  C    7.099155   6.720099   7.136350   8.672765   6.843180
    27  C    5.453070   4.772311   5.360941   6.847679   4.955701
    28  O    4.293596   3.447149   4.122747   5.555804   3.784739
    29  C    4.845164   4.802162   5.360668   6.842999   5.558106
    30  O    3.456852   3.496994   4.111263   5.539292   4.566196
    31  H    7.726190   6.827153   6.704734   8.138942   5.843066
    32  H    6.480372   5.377606   5.153502   6.525264   4.137616
    33  H    7.324641   6.378491   5.875434   7.198879   4.990197
    34  H    6.589097   6.115756   5.975731   7.440515   5.669477
    35  H    5.075043   4.442741   4.234574   5.712637   3.954517
    36  H    7.832176   7.272648   7.588880   9.116422   7.077223
    37  H    7.524578   7.273957   7.589091   9.114589   7.394387
    38  H    7.266395   7.004347   7.632057   9.153041   7.432195
    39  H    6.339119   5.473829   5.907518   7.359010   5.224761
    40  H    5.712207   5.217589   6.049269   7.495008   5.788441
    41  H    4.344459   3.257769   3.578579   5.016654   2.984345
    42  H    5.172944   5.285560   6.084467   7.526816   6.346428
    43  H    5.389489   5.482086   5.861470   7.305442   6.136952
    44  H    3.183432   2.943945   3.747135   5.191722   4.064361
                    6          7          8          9         10
     6  O    0.000000
     7  C    2.956031   0.000000
     8  O    2.652687   1.411938   0.000000
     9  H    4.429500   2.831324   3.024836   0.000000
    10  H    5.019335   3.216123   4.057780   1.788656   0.000000
    11  H    5.003044   4.085275   4.443478   1.771889   1.779113
    12  H    2.569458   2.977057   2.987956   2.491839   3.093226
    13  H    3.523810   3.489146   4.126007   3.090205   2.583615
    14  H    4.649393   2.759670   4.113299   3.552516   2.337608
    15  H    4.058896   2.707447   4.007130   4.681430   3.922014
    16  H    4.085450   3.459152   4.630906   4.469882   3.420209
    17  H    2.032196   3.478734   3.946723   4.771076   4.623216
    18  H    2.070010   2.772131   3.304560   5.042953   5.012900
    19  H    0.979829   2.457893   1.815437   4.105635   4.923476
    20  H    3.302089   1.104212   2.016615   3.895277   4.082419
    21  H    3.982718   1.106622   2.080790   2.369966   2.632883
    22  H    2.967347   1.994347   0.980245   2.410051   3.780242
    23  C    3.456880   5.453255   4.293705   6.480598   7.726463
    24  C    3.496879   4.772152   3.446950   5.377845   6.827431
    25  C    4.111396   5.360700   4.122448   5.153630   6.704842
    26  C    5.539463   6.847382   5.555443   6.525365   8.139008
[...]
 2946,0.01006031,0.00785062,0.05031652,0.11173906,0.12926292,0.00049465
 ,0.00007926,-0.00013272,-0.00038694,-0.00036329,0.00015658,0.00006020,
 0.00064795,-0.00063320,-0.00004690,-0.00063951,0.00036182,-0.00980441,
 0.00095670,0.00132189,0.00265450,0.00319563,0.00574529,0.00002733,0.00
 026049,-0.00105874,-0.00126197,-0.00265323,0.00220182,0.00011621,-0.00
 007305,0.00023494,0.00000268,-0.00023375,0.00015330,0.00006365,-0.0002
 8809,-0.00007589,-0.00038968,0.00243872,0.00032445,0.00011516,-0.00004
 496,0.00002525,0.00034594,-0.00012922,0.00007173,-0.00003021,0.0000622
 8,-0.00002505,-0.00008883,0.00006300,-0.00003055,0.00047372,-0.0003407
 9,-0.00030169,0.00252932,0.00026682,0.00045590,0.00300467,0.00164838,-
 0.00482141,-0.00009180,0.00005261,-0.00003564,0.00002710,-0.00019013,0
 .00026541,0.00211465,0.00158899,0.00025248,-0.00072189,-0.00039808,-0.
 00001650,0.00038525,0.00041718,0.00121454,0.00082642,-0.00047799,0.000
 93116,-0.00009497,0.00013922,-0.00086620,-0.02579054,-0.03019046,-0.01
 033596,-0.12279083,-0.11854449,-0.04332475,0.00013781,-0.00075087,0.00
 027912,-0.00185312,0.00081111,-0.00379255,-0.00006404,0.00003739,-0.00
 001351,0.00058082,0.00109769,0.00018723,0.00035800,-0.00023082,-0.0004
 8225,0.00006834,-0.00013267,-0.00032667,0.00023065,0.00013279,0.000138
 09,-0.00008189,-0.00001442,0.00005383,0.00037897,0.00017459,-0.0001129
 5,0.00004706,0.00006815,0.00008145,0.00226699,-0.00048295,-0.00099101,
 -0.00347763,0.00137988,0.00125827,0.14666402,-0.00047854,-0.00028535,-
 0.00032751,0.00125685,0.00015821,0.00077394,0.00072993,0.00126561,-0.0
 0002968,0.00002108,-0.00101163,0.00013520,-0.00691856,0.00251415,0.003
 98498,0.00644192,-0.00777356,-0.00062265,0.00012436,0.00007198,-0.0005
 1854,-0.00083140,-0.00243830,0.00110684,0.00013920,-0.00000868,0.00012
 541,-0.00013377,0.00021644,-0.00005834,0.00005732,-0.00015874,-0.00001
 026,0.00131391,-0.00094151,-0.00007429,-0.00037384,0.00001943,-0.00001
 693,0.00035901,-0.00007936,0.00006729,-0.00022312,-0.00003226,-0.00009
 815,-0.00005802,0.00008630,-0.00001236,0.00031168,-0.00005567,-0.00038
 923,0.00221542,-0.00011613,0.00021443,0.00173300,0.00349512,-0.0029183
 0,-0.00011197,-0.00003938,-0.00016801,0.00003010,-0.00013075,0.0002290
 3,0.00158899,0.00104390,0.00109685,0.00064144,0.00032832,-0.00117144,0
 .00001126,0.00111890,0.00039714,0.00162802,-0.00004192,0.00079716,-0.0
 0013764,-0.00003630,-0.00108309,-0.00018451,0.00948510,0.00463829,-0.1
 5726264,-0.30649681,-0.11048985,-0.00106425,-0.00084988,0.00010980,0.0
 0020652,0.00167939,-0.00205162,-0.00042724,0.00000809,0.00032864,0.000
 74993,-0.00106821,0.00041608,-0.00018289,-0.00023913,0.00018325,-0.000
 12932,-0.00047481,-0.00011240,0.00013726,0.00020761,-0.00029835,0.0000
 9791,-0.00005113,0.00014658,0.00040549,0.00005788,-0.00021285,-0.00015
 214,-0.00012657,0.00004937,0.00228538,0.00038233,0.00032942,0.00409377
 ,0.00184081,0.00026270,0.14233906,0.30467379,-0.00012745,-0.00010183,-
 0.00020857,0.00018666,0.00013203,-0.00013815,0.00042271,0.00037839,-0.
 00033377,-0.00003421,-0.00047533,0.00008898,-0.00530581,0.00276016,0.0
 0353540,0.00739919,0.00021679,-0.00875423,-0.00122019,0.00005234,-0.00
 032580,0.00091257,-0.00093277,0.00156113,0.00002252,0.00007948,0.00000
 385,-0.00001834,0.00004289,-0.00000886,0.00002908,-0.00016515,-0.00002
 484,-0.00016979,0.00047756,0.00144480,0.00044867,-0.00012601,-0.000067
 42,0.00020644,-0.00006234,0.00003650,-0.00008718,0.00000469,-0.0000348
 8,0.00003265,0.00004689,-0.00005677,0.00085015,0.00002454,-0.00044631,
 0.00216043,0.00008094,0.00009902,-0.00376584,-0.00343372,-0.00596178,0
 .00007655,0.00006480,-0.00007619,0.00019972,-0.00013868,0.00008828,0.0
 0025248,0.00109685,-0.00068641,-0.00001195,-0.00051277,-0.00018841,0.0
 0112354,-0.00015767,0.00019085,0.00178715,0.00172689,0.00139751,0.0002
 1284,-0.00023498,-0.00092418,0.00132132,0.00918085,0.00081891,-0.05531
 578,-0.11327464,-0.05656874,0.00126288,0.00017700,-0.00002935,-0.00159
 384,-0.00078651,-0.00253805,-0.00039659,0.00019858,0.00011384,0.000320
 29,-0.00031450,0.00051080,-0.00000572,0.00002146,-0.00009516,-0.000556
 99,0.00010371,-0.00006565,-0.00021835,-0.00001545,-0.00118676,-0.00011
 019,0.00006976,0.00008890,0.00023131,-0.00003872,-0.00019119,-0.000237
 40,-0.00014403,-0.00005228,0.00063956,-0.00124941,0.00019097,0.0004666
 1,-0.00008139,0.00042548,0.04690182,0.10301774,0.06524845,0.00004955,0
 .00000848,-0.00011339,0.00008369,-0.00001963,0.00009312,-0.00004498,0.
 00006343,-0.00004127,0.00001739,-0.00002941,0.00007104,0.00006101,0.00
 011311,-0.00004580,0.00007770,-0.00027024,0.00026312,0.00089887,-0.000
 20358,-0.00025070,-0.00178972,-0.00179048,-0.00082295,0.00010518,-0.00
 013608,0.00006512,-0.00005106,0.00001208,0.00003276,-0.00003340,0.0000
 2457,0.00006567,-0.00002017,0.00002242,-0.00017622,-0.00010198,0.00000
 535,0.00002892,0.00000764,0.00000708,-0.00000792,-0.00000271,-0.000005
 11,-0.00001245,-0.00003399,-0.00000235,0.00002451,-0.00000897,-0.00000
 959,0.00003455,-0.00001201,-0.00001568,-0.00001433,-0.00011980,0.00046
 139,-0.00026957,-0.00023644,-0.00004651,0.00002167,-0.00007028,0.00006
 567,0.00002715,0.00252931,0.00221543,0.00216044,0.00032654,0.00052296,
 0.00056826,-0.00068523,0.00228402,-0.00142945,0.00427995,0.00827893,0.
 00417454,0.00071524,0.00160287,0.00032328,-0.00087127,-0.00033651,0.00
 018195,0.00093138,-0.00049905,0.00092629,-0.07745517,-0.07182347,-0.03
 984587,-0.03882967,-0.02659273,-0.01451515,0.00001086,-0.00006072,0.00
 001702,-0.00000749,0.00003219,-0.00006363,-0.00000211,0.00026879,-0.00
 006446,0.00003061,-0.00013787,-0.00009362,-0.00006711,0.00008050,-0.00
 001347,0.00010965,-0.00006992,0.00017370,0.00007576,-0.00013404,0.0001
 1946,-0.00032855,0.00033668,-0.00039018,0.00008583,-0.00000317,0.00011
 313,0.00011146,-0.00018889,0.00012314,-0.00017963,0.00014980,-0.000274
 13,0.10582806,0.00000442,-0.00000240,-0.00003526,0.00000176,-0.0000080
 6,0.00000607,-0.00003566,-0.00000780,-0.00000859,0.00000594,0.00001421
 ,0.00001625,0.00016624,0.00000336,-0.00001962,-0.00020186,0.00006549,0
 .00014293,0.00022434,0.00001180,-0.00004910,-0.00035256,0.00011774,0.0
 0002589,0.00003251,-0.00001892,0.00002394,-0.00000975,0.00000154,0.000
 00863,-0.00000665,0.00001639,0.00001417,0.00000458,-0.00000462,-0.0000
 3721,-0.00002145,0.00000095,0.00000875,-0.00000739,0.00000472,-0.00000
 565,0.00000519,0.00000016,-0.00000061,-0.00000811,-0.00000431,0.000007
 86,-0.00002236,-0.00000108,0.00001685,-0.00001568,0.00000096,-0.000006
 06,0.00020152,0.00001979,-0.00007383,-0.00002422,-0.00000867,0.0000077
 0,-0.00004487,0.00002078,0.00000248,0.00026683,-0.00011612,0.00008094,
 -0.00054270,-0.00069090,-0.00155284,0.00249027,-0.00377880,0.00428343,
 -0.00922438,-0.02296696,-0.01478621,-0.00140172,0.00030701,-0.00075281
 ,-0.00053384,0.00053298,-0.00195719,0.00007965,0.00019062,0.00057640,-
 0.07242925,-0.20883374,-0.09311567,-0.00169443,0.00908378,0.00433384,0
 .00014640,-0.00003110,0.00006829,-0.00004064,-0.00003725,0.00009880,0.
 00005760,-0.00059342,0.00025632,0.00014980,0.00016581,-0.00008711,0.00
 004281,0.00042804,0.00024190,0.00005052,0.00047320,0.00029128,0.000118
 34,-0.00006653,0.00000758,0.00113593,0.00031550,0.00058237,0.00030080,
 0.00037882,0.00006768,0.00010131,0.00021748,0.00120576,-0.00000019,-0.
 00008667,-0.00026024,0.08021548,0.22204755,-0.00000334,0.00000556,-0.0
 0002942,0.00003686,-0.00001290,0.00001547,-0.00003740,0.00001445,-0.00
 000480,0.00000584,-0.00000593,0.00001146,0.00007264,0.00001918,-0.0000
 1808,-0.00008270,-0.00008112,0.00003860,0.00022236,0.00000737,-0.00001
 263,-0.00021453,-0.00011527,0.00004554,0.00003094,-0.00003113,0.000024
 08,-0.00001994,0.00000173,0.00000247,0.00000274,-0.00000171,0.00001637
 ,0.00000988,0.00001899,-0.00003432,-0.00002283,0.00000157,0.00000651,-
 0.00000075,0.00000419,-0.00000313,-0.00000222,-0.00000338,-0.00000441,
 -0.00000697,-0.00000150,0.00000742,-0.00000426,0.00000046,0.00001087,-
 0.00001433,-0.00000606,-0.00000711,0.00001166,0.00008607,-0.00005057,-
 0.00002270,-0.00001249,-0.00000175,-0.00002157,0.00001508,0.00000240,0
 .00045590,0.00021443,0.00009902,0.00005177,0.00056008,0.00074083,-0.00
 082831,0.00099820,-0.00085171,0.00317544,0.01169819,0.00552241,0.00051
 049,0.00021739,0.00043263,0.00046029,0.00077825,0.00132808,0.00010251,
 -0.00024944,-0.00005293,-0.04264665,-0.09449698,-0.11376583,0.00011068
 ,0.00462145,0.00841870,0.00003063,-0.00010306,0.00003198,0.00002442,-0
 .00012946,0.00003198,0.00000073,0.00021625,-0.00006860,-0.00015846,0.0
 0029400,0.00032984,0.00019562,0.00017108,-0.00010442,0.00025877,0.0000
 3735,-0.00005221,-0.00013197,-0.00014426,-0.00011656,-0.00000896,-0.00
 011536,0.00014904,-0.00006449,-0.00019450,0.00014801,-0.00016999,-0.00
 017778,-0.00009596,0.00005371,0.00008518,-0.00004118,0.04944720,0.0994
 1679,0.10972375,-0.00000835,-0.00004681,-0.00004945,0.00013352,-0.0000
 2411,0.00011922,0.00000150,0.00006835,0.00003949,0.00000341,-0.0000320
 9,-0.00003555,0.00002608,0.00003744,-0.00002342,-0.00000875,-0.0001032
 4,-0.00003399,-0.00000629,-0.00003262,0.00002285,-0.00006558,-0.000099
 31,-0.00037783,0.00008719,-0.00003573,0.00008043,-0.00005163,0.0000064
 3,0.00000853,0.00002661,-0.00001640,-0.00001191,-0.00002618,0.00008522
 ,-0.00013539,-0.00008898,-0.00000595,-0.00000936,0.00000394,0.00000590
 ,0.00000505,-0.00001902,-0.00001366,-0.00000662,0.00000619,0.00000354,
 -0.00000036,-0.00000332,0.00000866,-0.00000065,-0.00000897,-0.00002236
 ,-0.00000426,0.00000003,0.00009001,0.00007110,-0.00002080,-0.00001450,
 -0.00001109,-0.00000537,0.00000985,0.00001409,0.00047372,0.00031167,0.
 00085015,-0.00006926,-0.00002946,-0.00007937,0.00014214,-0.00033408,0.
 00002303,0.00307400,-0.00026378,-0.01061741,0.00093446,-0.00004811,-0.
 00103821,-0.00190394,0.00253834,-0.00073047,0.00112217,-0.00117635,0.0
 0115684,-0.05682463,-0.00374148,0.04126614,-0.02189052,-0.00449122,0.0
 4171993,0.00000616,0.00001163,-0.00003487,-0.00002579,-0.00001136,-0.0
 0001831,0.00000207,-0.00002173,0.00002779,0.00006411,0.00000292,0.0001
 5225,-0.00007545,0.00005721,0.00021918,0.00005731,-0.00011183,0.000194
 91,-0.00032731,0.00027679,0.00023051,0.00002001,0.00004422,-0.00000992
 ,0.00063611,0.00021287,-0.00072773,0.00002217,0.00004316,0.00034881,0.
 00001640,0.00017214,-0.00013822,0.00458970,0.00150214,-0.01088595,0.07
 672407,-0.00000041,-0.00001255,-0.00000772,-0.00000147,0.00001566,0.00
 000319,0.00003335,-0.00000666,0.00001243,-0.00000425,0.00000427,-0.000
 01838,-0.00000056,-0.00001613,0.00000132,-0.00002317,-0.00002786,-0.00
 012027,-0.00017306,0.00002513,0.00002502,0.00035387,0.00011998,-0.0000
 4332,-0.00000461,0.00001596,-0.00001273,0.00000656,0.00000814,0.000001
 40,-0.00000868,0.00000352,0.00000129,0.00001348,-0.00002819,0.00002137
 ,0.00000780,-0.00000577,-0.00000450,-0.00000093,-0.00000124,0.00000151
 ,-0.00000182,-0.00000011,0.00000192,0.00000816,0.00000051,-0.00000497,
 0.00000866,0.00000183,-0.00000770,-0.00000959,-0.00000108,0.00000046,-
 0.00005246,-0.00004205,0.00010760,0.00002505,0.00000489,-0.00000190,0.
 00002984,-0.00001356,-0.00000407,-0.00034079,-0.00005567,0.00002454,0.
 00008945,0.00018865,-0.00019750,-0.00045945,0.00116687,0.00131848,-0.0
 0534757,-0.00236718,0.02839976,-0.00137925,0.00053282,-0.00005189,0.00
 365607,-0.00488550,0.00056917,-0.00078266,0.00035398,-0.00078800,-0.00
 405839,-0.05331293,0.01221110,0.00088544,0.00252012,-0.00074215,-0.000
 07738,0.00011811,-0.00001145,0.00003707,0.00016838,-0.00005844,-0.0000
 0765,0.00002954,-0.00003065,0.00050905,-0.00052607,-0.00043968,-0.0002
 6165,-0.00006543,-0.00010483,-0.00011851,-0.00004819,-0.00022467,0.000
 44250,0.00024308,-0.00033577,0.00013775,-0.00005463,-0.00007232,-0.000
 34614,-0.00009570,0.00187715,0.00016220,0.00011624,0.00013486,0.000178
 12,0.00020579,0.00009608,0.00507410,0.00310698,-0.02465266,0.00182742,
 0.05255707,0.00002342,0.00000417,0.00002717,-0.00007985,-0.00000254,-0
 .00002108,0.00001558,-0.00002876,-0.00001465,-0.00000509,0.00000836,0.
 00001482,-0.00012068,-0.00000610,0.00003119,0.00018414,0.00013757,0.00
 010521,-0.00008688,0.00006832,-0.00001027,0.00024444,0.00023756,0.0002
 4720,-0.00004234,0.00002639,-0.00003810,0.00003458,-0.00000501,-0.0000
 0164,-0.00001460,0.00001027,-0.00000128,0.00000356,-0.00000808,0.00002
 059,0.00002491,0.00000041,0.00000265,0.00000281,-0.00000761,-0.0000011
 6,0.00000935,0.00001042,0.00000415,-0.00000237,-0.00000102,-0.00000170
 ,-0.00000065,-0.00000770,-0.00000224,0.00003455,0.00001685,0.00001087,
 0.00001846,-0.00006037,-0.00009234,0.00003745,0.00001416,0.00000182,0.
 00000826,-0.00002076,-0.00000486,-0.00030169,-0.00038923,-0.00044631,-
 0.00015515,0.00007607,0.00028312,0.00011349,-0.00160592,0.00075701,0.0
 0232373,0.00005903,-0.01194778,0.00040517,-0.00019622,0.00012725,-0.00
 217683,0.00256987,0.00070138,0.00056771,0.00006344,0.00011600,0.053128
 42,0.01398302,-0.30582627,0.00475057,0.00109517,0.00295114,0.00004294,
 -0.00005997,-0.00002114,-0.00004599,-0.00016891,0.00008064,-0.00000008
 ,0.00003269,0.00001382,-0.00001730,0.00056729,0.00055340,0.00011955,0.
 00023980,-0.00002396,-0.00018456,0.00004578,0.00032925,-0.00082960,0.0
 0016236,0.00024339,0.00008077,0.00008721,0.00002814,0.00026993,0.00023
 984,-0.00083973,-0.00001079,-0.00006624,0.00040444,-0.00028113,-0.0002
 9844,-0.00011730,0.00216502,0.00161789,-0.01174940,-0.05989944,-0.0173
 0475,0.32196304,0.00017276,0.00055293,0.00012792,-0.00227129,0.0004290
 8,-0.00150002,0.00019819,-0.00069057,-0.00042247,-0.00001748,0.0004490
 5,0.00034040,0.00048306,-0.00055669,0.00006256,-0.00134818,0.00061275,
 -0.00021362,0.00031222,-0.00005814,-0.00065317,-0.00191949,-0.00099524
 ,0.00115176,0.00002720,0.00023377,-0.00046666,0.00039309,-0.00019618,0
 .00001603,-0.00011513,0.00006235,0.00002416,-0.00093190,-0.00161035,0.
 00271358,0.00113841,0.00002181,0.00009138,-0.00006505,-0.00004339,-0.0
 0004366,0.00021938,0.00011741,0.00007256,-0.00004519,-0.00003650,-0.00
 000631,0.00000003,-0.00005246,0.00001846,-0.00011980,0.00020153,0.0000
 1166,0.00040431,-0.00059398,-0.00022855,-0.00007786,0.00010735,0.00015
 875,-0.00004709,0.00002677,-0.00007150,0.00300465,0.00173301,-0.003765
 82,-0.00003168,-0.00010202,-0.00021893,0.00017660,0.00046514,0.0003590
 7,0.00091718,0.00157809,0.00087360,0.00014819,-0.00087883,0.00003687,-
 0.00478641,0.00546551,-0.00421132,-0.00719315,-0.00492885,0.00223930,-
 0.02053810,-0.01112629,0.04524866,-0.06676998,-0.01407473,0.04598085,-
 0.00001604,0.00000857,0.00004523,0.00007385,0.00003026,0.00007014,0.00
 002527,-0.00012461,-0.00004260,0.00002867,-0.00017530,-0.00018456,0.00
 009210,0.00004981,-0.00002451,0.00040093,-0.00005035,-0.00006060,0.000
 26520,0.00000049,-0.00018675,-0.00006271,-0.00000438,0.00001628,-0.000
 41947,-0.00041708,0.00028928,-0.00018489,-0.00006946,-0.00026951,0.003
 16479,-0.00057092,0.00212082,0.00002636,-0.00068668,0.00007727,-0.0067
 4293,-0.00002550,-0.00035376,0.10203140,0.00019256,0.00026981,-0.00052
 735,-0.00051774,0.00008344,-0.00064248,-0.00002085,0.00004061,-0.00007
 018,-0.00001308,-0.00015320,0.00004906,-0.00204017,0.00010327,0.000220
 06,0.00270485,0.00156536,0.00074928,-0.00065320,0.00000145,-0.00028159
 ,-0.00048367,-0.00191035,0.00150882,0.00040766,-0.00015713,0.00086058,
 -0.00031960,-0.00035549,0.00025683,0.00029795,-0.00032518,-0.00026753,
 -0.00132309,0.00177478,0.00119161,0.00019949,-0.00025499,0.00010975,0.
 00014421,-0.00004515,0.00004721,0.00000129,-0.00001360,-0.00000816,-0.
 00000983,0.00002679,0.00000025,0.00009001,-0.00004205,-0.00006037,0.00
 046140,0.00001979,0.00008607,-0.00059398,-0.00084573,-0.00133006,0.000
 00489,-0.00001861,-0.00000244,0.00021866,-0.00009138,0.00014650,0.0016
 4839,0.00349515,-0.00343370,0.00007619,0.00000394,-0.00008924,0.000336
 58,-0.00095817,0.00027090,-0.00019567,0.00117826,-0.00175222,0.0001499
 8,-0.00052680,0.00110375,0.01227026,0.00038104,0.00080562,-0.00729174,
 -0.00096989,-0.00643485,-0.00319968,0.00473007,-0.00390357,-0.02650469
 ,-0.04864516,0.10981627,-0.00002639,0.00000185,-0.00000750,-0.00005555
 ,-0.00028412,0.00008537,-0.00002157,0.00001066,0.00011941,-0.00041657,
 0.00032087,0.00028717,0.00002844,0.00001191,-0.00050539,0.00017632,-0.
 00012996,0.00001592,-0.00055226,0.00001487,0.00020224,-0.00018126,-0.0
 0005544,-0.00018755,-0.00183460,0.00035086,0.00036383,-0.00110960,-0.0
 0042916,-0.00041435,-0.00185707,-0.00631641,0.00245571,0.00052965,-0.0
 0026829,0.00105169,0.00336027,0.00005896,-0.00113631,0.02592282,0.0483
 5248,-0.00037528,-0.00024276,0.00055879,0.00105297,-0.00039679,-0.0003
 2110,-0.00043008,0.00011591,0.00026273,-0.00000875,-0.00009415,-0.0004
 2794,0.00072236,-0.00028428,-0.00014961,-0.00179591,-0.00055240,-0.002
 10970,-0.00246767,-0.00004351,0.00078116,0.00331266,0.00256988,0.00083
 906,-0.00034111,0.00039043,-0.00040608,0.00008292,0.00020042,-0.000320
 33,0.00013592,-0.00014232,-0.00008493,0.00221012,0.00064246,0.00101416
 ,0.00010272,0.00005445,-0.00017131,-0.00005588,0.00003914,0.00001829,-
 0.00011194,-0.00005082,0.00000083,0.00013692,0.00001777,-0.00005452,0.
 00007110,0.00010760,-0.00009234,-0.00026957,-0.00007383,-0.00005057,-0
 .00022855,-0.00133007,0.00160347,0.00044480,0.00010095,-0.00008999,0.0
 0019908,-0.00007656,-0.00011183,-0.00482142,-0.00291830,-0.00596182,-0
 .00029930,-0.00018267,0.00024699,0.00034234,0.00000314,-0.00035783,-0.
 00169508,0.00012854,0.00210046,-0.00003642,0.00148456,-0.00169659,-0.0
 1300188,-0.00029753,0.00327980,0.00483849,-0.00653426,-0.00404183,0.01
 183732,0.00035471,-0.00184108,0.08634354,0.10613090,-0.37996207,-0.000
 10932,0.00017061,-0.00008900,0.00014496,0.00033682,-0.00009814,0.00004
 924,0.00011974,-0.00016830,-0.00010620,-0.00012858,-0.00024225,-0.0000
 7872,-0.00069794,-0.00016627,-0.00073457,0.00016499,-0.00001316,0.0005
 3651,-0.00008239,-0.00016833,-0.00008713,-0.00017707,0.00010541,0.0025
 8419,-0.00057754,-0.00092266,0.00058764,0.00026398,-0.00034916,0.00498
 828,0.00246697,0.00327857,-0.00277648,-0.00066281,-0.00007243,-0.00167
 050,0.00043169,0.00214355,-0.08922230,-0.10074903,0.38430788\\-0.00000
 044,-0.00000037,0.00000012,-0.00000027,-0.00000074,-0.00000005,-0.0000
 0009,-0.00000046,-0.00000041,0.00000075,-0.00000078,-0.00000077,0.0000
 0065,-0.00000075,-0.00000060,-0.00000001,0.00000032,-0.00000077,0.0000
 0109,-0.00000045,-0.00000083,-0.00000024,0.00000044,0.00000027,-0.0000
 0024,-0.00000019,0.00000026,-0.00000068,-0.00000068,0.,-0.00000072,-0.
 00000051,0.00000044,-0.00000048,-0.00000050,0.,-0.00000041,-0.00000089
 ,-0.00000023,-0.00000020,-0.00000071,-0.00000074,0.00000019,-0.0000009
 8,-0.00000117,-0.00000019,-0.00000118,-0.00000066,-0.00000011,-0.00000
 088,-0.00000075,0.00000031,-0.00000072,-0.00000102,0.00000026,-0.00000
 018,-0.00000031,0.00000032,-0.00000013,-0.00000072,-0.00000010,-0.0000
 0010,-0.00000036,0.00000042,0.00000008,0.00000012,0.00000038,0.0000004
 0,-0.00000014,0.00000027,0.00000079,0.,0.00000001,0.00000047,0.0000004
 1,-0.00000069,0.00000078,0.00000079,-0.00000102,0.00000053,0.00000094,
 0.00000017,-0.00000055,-0.00000028,-0.00000071,0.00000076,0.00000060,0
 .00000009,-0.00000030,0.00000060,0.00000067,0.00000068,0.00000003,0.00
 000022,0.00000020,-0.00000019,0.00000073,0.00000051,-0.00000045,0.0000
 0043,0.00000088,0.00000022,0.00000030,0.00000047,0.00000005,0.00000021
 ,0.00000070,0.00000075,0.00000019,0.00000117,0.00000067,-0.00000018,0.
 00000097,0.00000116,0.00000005,0.00000009,0.00000034,-0.00000032,0.000
 00011,0.00000073,-0.00000025,-0.00000014,-0.00000014,-0.00000030,0.000
 00071,0.00000102,0.00000014,0.00000088,0.00000074,-0.00000019,0.000000
 28,0.00000036\\\@


 THE ONLY EXISTING THINGS ARE ATOMS AND EMPTY SPACE;
 ALL ELSE IS MERE OPINION. -- DEMOCRITUS OF ABDERA D. 370 B.C.
 EXPERIMENTS ARE THE ONLY MEANS OF KNOWLEDGE AT OUR DISPOSAL
 THE REST IS POETRY, IMAGINATION. -- MAX PLANCK
 File lengths (MBytes):  RWF=    420 Int=      0 D2E=      0 Chk=      8 Scr=      1
 Normal termination of Gaussian 16 at Sun Feb  5 17:21:36 2023.
real 7034.17
user 26177.98
sys 24.53
