 Entering Gaussian System, Link 0=g16
 Input=gaussian_test.inp
 Output=gaussian_test.log
 Initial command:
 /sw/restricted/lms/sw/Gaussian/g16_B01/g16/l1.exe "/scratch/user/peterchao1/peterchao1/9982564_1711744447000000890710796/Gau-112625.inp" -scrdir="/scratch/user/peterchao1/peterchao1/9982564_1711744447000000890710796/"
 Entering Link 1 = /sw/restricted/lms/sw/Gaussian/g16_B01/g16/l1.exe PID=    112628.
  
 Copyright (c) 1988-2017, Gaussian, Inc.  All Rights Reserved.
  
 This is part of the Gaussian(R) 16 program.  It is based on
 the Gaussian(R) 09 system (copyright 2009, Gaussian, Inc.),
 the Gaussian(R) 03 system (copyright 2003, Gaussian, Inc.),
 the Gaussian(R) 98 system (copyright 1998, Gaussian, Inc.),
 the Gaussian(R) 94 system (copyright 1995, Gaussian, Inc.),
 the Gaussian 92(TM) system (copyright 1992, Gaussian, Inc.),
 the Gaussian 90(TM) system (copyright 1990, Gaussian, Inc.),
 the Gaussian 88(TM) system (copyright 1988, Gaussian, Inc.),
 the Gaussian 86(TM) system (copyright 1986, Carnegie Mellon
 University), and the Gaussian 82(TM) system (copyright 1983,
 Carnegie Mellon University). Gaussian is a federally registered
 trademark of Gaussian, Inc.
  
 This software contains proprietary and confidential information,
 including trade secrets, belonging to Gaussian, Inc.
  
 This software is provided under written license and may be
 used, copied, transmitted, or stored only in accord with that
 written license.
  
 The following legend is applicable only to US Government
 contracts under FAR:
  
                    RESTRICTED RIGHTS LEGEND
  
 Use, reproduction and disclosure by the US Government is
 subject to restrictions as set forth in subparagraphs (a)
 and (c) of the Commercial Computer Software - Restricted
 Rights clause in FAR 52.227-19.
  
 Gaussian, Inc.
 340 Quinnipiac St., Bldg. 40, Wallingford CT 06492
  
  
 ---------------------------------------------------------------
 Warning -- This program may not be used in any manner that
 competes with the business of Gaussian, Inc. or will provide
 assistance to any competitor of Gaussian, Inc.  The licensee
 of this program is prohibited from giving any competitor of
 Gaussian, Inc. access to this program.  By using this program,
 the user acknowledges that Gaussian, Inc. is engaged in the
 business of creating and licensing software in the field of
 computational chemistry and represents and warrants to the
 licensee that it is not a competitor of Gaussian, Inc. and that
 it will not use this program in any manner prohibited above.
 ---------------------------------------------------------------
  

 Cite this work as:
 Gaussian 16, Revision B.01,
 M. J. Frisch, G. W. Trucks, H. B. Schlegel, G. E. Scuseria, 
 M. A. Robb, J. R. Cheeseman, G. Scalmani, V. Barone, 
 G. A. Petersson, H. Nakatsuji, X. Li, M. Caricato, A. V. Marenich, 
 J. Bloino, B. G. Janesko, R. Gomperts, B. Mennucci, H. P. Hratchian, 
 J. V. Ortiz, A. F. Izmaylov, J. L. Sonnenberg, D. Williams-Young, 
 F. Ding, F. Lipparini, F. Egidi, J. Goings, B. Peng, A. Petrone, 
 T. Henderson, D. Ranasinghe, V. G. Zakrzewski, J. Gao, N. Rega, 
 G. Zheng, W. Liang, M. Hada, M. Ehara, K. Toyota, R. Fukuda, 
 J. Hasegawa, M. Ishida, T. Nakajima, Y. Honda, O. Kitao, H. Nakai, 
 T. Vreven, K. Throssell, J. A. Montgomery, Jr., J. E. Peralta, 
 F. Ogliaro, M. J. Bearpark, J. J. Heyd, E. N. Brothers, K. N. Kudin, 
 V. N. Staroverov, T. A. Keith, R. Kobayashi, J. Normand, 
 K. Raghavachari, A. P. Rendell, J. C. Burant, S. S. Iyengar, 
 J. Tomasi, M. Cossi, J. M. Millam, M. Klene, C. Adamo, R. Cammi, 
 J. W. Ochterski, R. L. Martin, K. Morokuma, O. Farkas, 
 J. B. Foresman, and D. J. Fox, Gaussian, Inc., Wallingford CT, 2016.
 
 ******************************************
 Gaussian 16:  ES64L-G16RevB.01 20-Dec-2017
                29-Mar-2024 
 ******************************************
 %nprocshared=4
 Will use up to    4 processors via shared memory.
 %mem=8000mb
 %chk=monomer.chk
 %nprocshared=4
 Will use up to    4 processors via shared memory.
 %mem=8000mb
 ----------------------------------------------------------------------
 #T wB97XD/def2svpp opt=tight freq int(grid=ultrafine) scf=(verytight,q
 c) Volume=tight
 ----------------------------------------------------------------------
 -------
 Monomer
 -------
 Symbolic Z-matrix:
 Charge =  0 Multiplicity = 1
 C                    -0.91541   1.8755   -0.54581 
 C                    -1.17368   0.4742    0.00641 
 C                    -1.12152   0.49669   1.53617 
 C                    -2.56851   0.0024   -0.46894 
 O                    -2.90952  -1.29016  -0.04045 
 C                    -0.16364  -0.52308  -0.55578 
 Br                    1.66939  -0.16165  -0.00113 
 H                     0.07794   2.21771  -0.26376 
 H                    -1.64339   2.5792   -0.14898 
 H                    -0.98844   1.88272  -1.63169 
 H                    -1.1882   -0.50961   1.94795 
 H                    -1.93884   1.09551   1.93401 
 H                    -0.18575   0.93453   1.87593 
 H                    -2.59042  -0.03883  -1.56127 
 H                    -3.32009   0.73326  -0.14003 
 H                    -3.01615  -1.28188   0.91741 
 H                    -0.1562   -0.49763  -1.64505 
 H                    -0.39077  -1.53449  -0.22003 
 

 GradGradGradGradGradGradGradGradGradGradGradGradGradGradGradGradGradGrad
 Initialization pass.
                           ----------------------------
                           !    Initial Parameters    !
                           ! (Angstroms and Degrees)  !
 --------------------------                            --------------------------
 ! Name  Definition              Value          Derivative Info.                !
 --------------------------------------------------------------------------------
 ! R1    R(1,2)                  1.5282         estimate D2E/DX2                !
 ! R2    R(1,8)                  1.0878         estimate D2E/DX2                !
 ! R3    R(1,9)                  1.0875         estimate D2E/DX2                !
 ! R4    R(1,10)                 1.0884         estimate D2E/DX2                !
 ! R5    R(2,3)                  1.5308         estimate D2E/DX2                !
 ! R6    R(2,4)                  1.5473         estimate D2E/DX2                !
 ! R7    R(2,6)                  1.5267         estimate D2E/DX2                !
 ! R8    R(3,11)                 1.0893         estimate D2E/DX2                !
 ! R9    R(3,12)                 1.0885         estimate D2E/DX2                !
 ! R10   R(3,13)                 1.0876         estimate D2E/DX2                !
 ! R11   R(4,5)                  1.4038         estimate D2E/DX2                !
 ! R12   R(4,14)                 1.0933         estimate D2E/DX2                !
 ! R13   R(4,15)                 1.0987         estimate D2E/DX2                !
 ! R14   R(5,16)                 0.9638         estimate D2E/DX2                !
 ! R15   R(6,7)                  1.9489         estimate D2E/DX2                !
 ! R16   R(6,17)                 1.0896         estimate D2E/DX2                !
 ! R17   R(6,18)                 1.0896         estimate D2E/DX2                !
 ! A1    A(2,1,8)              110.4316         estimate D2E/DX2                !
 ! A2    A(2,1,9)              110.388          estimate D2E/DX2                !
 ! A3    A(2,1,10)             110.8105         estimate D2E/DX2                !
 ! A4    A(8,1,9)              108.2463         estimate D2E/DX2                !
 ! A5    A(8,1,10)             108.534          estimate D2E/DX2                !
 ! A6    A(9,1,10)             108.3527         estimate D2E/DX2                !
 ! A7    A(1,2,3)              109.9916         estimate D2E/DX2                !
 ! A8    A(1,2,4)              108.7198         estimate D2E/DX2                !
 ! A9    A(1,2,6)              110.7397         estimate D2E/DX2                !
 ! A10   A(3,2,4)              110.0108         estimate D2E/DX2                !
 ! A11   A(3,2,6)              110.7961         estimate D2E/DX2                !
 ! A12   A(4,2,6)              106.5041         estimate D2E/DX2                !
 ! A13   A(2,3,11)             111.2292         estimate D2E/DX2                !
 ! A14   A(2,3,12)             110.3486         estimate D2E/DX2                !
 ! A15   A(2,3,13)             110.3296         estimate D2E/DX2                !
 ! A16   A(11,3,12)            108.9094         estimate D2E/DX2                !
 ! A17   A(11,3,13)            107.847          estimate D2E/DX2                !
 ! A18   A(12,3,13)            108.0829         estimate D2E/DX2                !
 ! A19   A(2,4,5)              113.9521         estimate D2E/DX2                !
 ! A20   A(2,4,14)             109.6638         estimate D2E/DX2                !
 ! A21   A(2,4,15)             108.7749         estimate D2E/DX2                !
 ! A22   A(5,4,14)             105.3888         estimate D2E/DX2                !
 ! A23   A(5,4,15)             110.7892         estimate D2E/DX2                !
 ! A24   A(14,4,15)            108.0873         estimate D2E/DX2                !
 ! A25   A(4,5,16)             108.8033         estimate D2E/DX2                !
 ! A26   A(2,6,7)              113.3471         estimate D2E/DX2                !
 ! A27   A(2,6,17)             110.9399         estimate D2E/DX2                !
 ! A28   A(2,6,18)             110.7915         estimate D2E/DX2                !
 ! A29   A(7,6,17)             105.8882         estimate D2E/DX2                !
 ! A30   A(7,6,18)             106.2898         estimate D2E/DX2                !
 ! A31   A(17,6,18)            109.339          estimate D2E/DX2                !
 ! D1    D(8,1,2,3)             61.9448         estimate D2E/DX2                !
 ! D2    D(8,1,2,4)           -177.5405         estimate D2E/DX2                !
 ! D3    D(8,1,2,6)            -60.8577         estimate D2E/DX2                !
 ! D4    D(9,1,2,3)            -57.7186         estimate D2E/DX2                !
 ! D5    D(9,1,2,4)             62.796          estimate D2E/DX2                !
 ! D6    D(9,1,2,6)            179.4788         estimate D2E/DX2                !
 ! D7    D(10,1,2,3)          -177.7591         estimate D2E/DX2                !
 ! D8    D(10,1,2,4)           -57.2444         estimate D2E/DX2                !
 ! D9    D(10,1,2,6)            59.4384         estimate D2E/DX2                !
 ! D10   D(1,2,3,11)          -173.4386         estimate D2E/DX2                !
 ! D11   D(1,2,3,12)            65.5722         estimate D2E/DX2                !
 ! D12   D(1,2,3,13)           -53.7982         estimate D2E/DX2                !
 ! D13   D(4,2,3,11)            66.8288         estimate D2E/DX2                !
 ! D14   D(4,2,3,12)           -54.1604         estimate D2E/DX2                !
 ! D15   D(4,2,3,13)          -173.5308         estimate D2E/DX2                !
 ! D16   D(6,2,3,11)           -50.6692         estimate D2E/DX2                !
 ! D17   D(6,2,3,12)          -171.6584         estimate D2E/DX2                !
 ! D18   D(6,2,3,13)            68.9712         estimate D2E/DX2                !
 ! D19   D(1,2,4,5)            178.9435         estimate D2E/DX2                !
 ! D20   D(1,2,4,14)            61.0976         estimate D2E/DX2                !
 ! D21   D(1,2,4,15)           -56.9168         estimate D2E/DX2                !
 ! D22   D(3,2,4,5)            -60.5537         estimate D2E/DX2                !
 ! D23   D(3,2,4,14)          -178.3996         estimate D2E/DX2                !
 ! D24   D(3,2,4,15)            63.586          estimate D2E/DX2                !
 ! D25   D(6,2,4,5)             59.5784         estimate D2E/DX2                !
 ! D26   D(6,2,4,14)           -58.2675         estimate D2E/DX2                !
 ! D27   D(6,2,4,15)          -176.2819         estimate D2E/DX2                !
 ! D28   D(1,2,6,7)             64.7321         estimate D2E/DX2                !
 ! D29   D(1,2,6,17)           -54.2432         estimate D2E/DX2                !
 ! D30   D(1,2,6,18)          -175.8824         estimate D2E/DX2                !
 ! D31   D(3,2,6,7)            -57.6022         estimate D2E/DX2                !
 ! D32   D(3,2,6,17)          -176.5776         estimate D2E/DX2                !
 ! D33   D(3,2,6,18)            61.7833         estimate D2E/DX2                !
 ! D34   D(4,2,6,7)           -177.2259         estimate D2E/DX2                !
 ! D35   D(4,2,6,17)            63.7988         estimate D2E/DX2                !
 ! D36   D(4,2,6,18)           -57.8404         estimate D2E/DX2                !
 ! D37   D(2,4,5,16)            66.9257         estimate D2E/DX2                !
 ! D38   D(14,4,5,16)         -172.7982         estimate D2E/DX2                !
 ! D39   D(15,4,5,16)          -56.1233         estimate D2E/DX2                !
 --------------------------------------------------------------------------------
 Number of steps in this run=     97 maximum allowed number of steps=    108.
 GradGradGradGradGradGradGradGradGradGradGradGradGradGradGradGradGradGrad

                    Distance matrix (angstroms):
                    1          2          3          4          5
     1  C    0.000000
     2  C    1.528163   0.000000
     3  C    2.505640   1.530815   0.000000
     4  C    2.499423   1.547289   2.521619   0.000000
     5  O    3.775346   2.475542   2.979177   1.403785   0.000000
     6  C    2.513653   1.526696   2.516690   2.463138   2.897207
     7  Br   3.335845   2.913309   3.253590   4.266790   4.716081
     8  H    1.087843   2.163178   2.764116   3.457359   4.613011
     9  H    1.087479   2.162357   2.729273   2.756461   4.072686
    10  H    1.088359   2.168317   3.460364   2.717383   4.036053
    11  H    3.461502   2.176623   1.089332   2.829980   2.743346
    12  H    2.793788   2.164979   1.088519   2.713951   3.245326
    13  H    2.698639   2.164030   1.087571   3.470566   4.005083
    14  H    2.738877   2.174386   3.469660   1.093321   1.995126
    15  H    2.692926   2.166946   2.774764   1.098735   2.067054
    16  H    4.064866   2.703413   2.671289   1.942096   0.963812
    17  H    2.723318   2.169563   3.469962   2.729918   3.283834
    18  H    3.465460   2.167730   2.782788   2.677039   2.536935
                    6          7          8          9         10
     6  C    0.000000
     7  Br   1.948914   0.000000
     8  H    2.766868   2.874550   0.000000
     9  H    3.461109   4.302164   1.762617   0.000000
    10  H    2.761473   3.728569   1.766526   1.764218   0.000000
    11  H    2.705293   3.476462   3.732696   3.760991   4.310101
    12  H    3.459801   4.283046   3.186983   2.574382   3.773212
    13  H    2.835204   2.857712   2.508853   2.988296   3.721126
    14  H    2.671091   4.538175   3.727679   3.121772   2.502725
    15  H    3.422635   5.071001   3.710188   2.493770   2.997152
    16  H    3.298917   4.904368   4.818259   4.234332   4.541385
    17  H    1.089585   2.479542   3.055457   3.730521   2.521674
    18  H    1.089617   2.485323   3.781609   4.300759   3.745304
                   11         12         13         14         15
    11  H    0.000000
    12  H    1.772022   0.000000
    13  H    1.759442   1.761419   0.000000
    14  H    3.808210   3.732052   4.306296   0.000000
    15  H    3.232543   2.518073   3.732116   1.774394   0.000000
    16  H    2.236026   2.801084   3.720538   2.805396   2.295940
    17  H    3.738290   4.304125   3.801218   2.478488   3.713538
    18  H    2.527138   3.735411   3.245175   2.978987   3.705405
                   16         17         18
    16  H    0.000000
    17  H    3.919247   0.000000
    18  H    2.872313   1.777858   0.000000
 Framework group  C1[X(C5H11BrO)]
 Deg. of freedom    48
                         Standard orientation:                         
 ---------------------------------------------------------------------
 Center     Atomic      Atomic             Coordinates (Angstroms)
 Number     Number       Type             X           Y           Z
 ---------------------------------------------------------------------
      1          6           0       -0.730066    1.845420   -0.505026
      2          6           0       -0.986474    0.428558    0.006873
      3          6           0       -0.942215    0.408870    1.536921
      4          6           0       -2.377274   -0.034354   -0.488596
      5          8           0       -2.716158   -1.339362   -0.097797
      6          6           0        0.029743   -0.549555   -0.577423
      7         35           0        1.858695   -0.197765   -0.003451
      8          1           0        0.260683    2.182859   -0.208455
      9          1           0       -1.462406    2.535538   -0.092684
     10          1           0       -0.797563    1.882452   -1.590658
     11          1           0       -1.007644   -0.608643    1.920365
     12          1           0       -1.763549    0.993844    1.946908
     13          1           0       -0.009662    0.840131    1.893529
     14          1           0       -2.393461   -0.045413   -1.581741
     15          1           0       -3.132965    0.684717   -0.143506
     16          1           0       -2.827710   -1.357934    0.859358
     17          1           0        0.042665   -0.493944   -1.665511
     18          1           0       -0.195723   -1.570587   -0.270953
 ---------------------------------------------------------------------
 Rotational constants (GHZ):           3.1482497           0.8851578           0.8218738
   138 basis functions,   274 primitive gaussians,   147 cartesian basis functions
    42 alpha electrons       42 beta electrons
       nuclear repulsion energy       536.3923937910 Hartrees.
 NAtoms=   18 NActive=   18 NUniq=   18 SFac= 1.00D+00 NAtFMM=   60 NAOKFM=F Big=F
 Nuclear repulsion after empirical dispersion term =      536.3796342194 Hartrees.
   1 Symmetry operations used in ECPInt.
 ECPInt:  NShTT=    2485 NPrTT=   10882 LenC2=    2449 LenP2D=    8455.
 LDataN:  DoStor=T MaxTD1= 4 Len=   56
 ExpMin= 1.22D-01 ExpMax= 1.13D+05 ExpMxC= 1.70D+04 IAcc=3 IRadAn=         5 AccDes= 0.00D+00
 Harris functional with IExCor= 4639 and IRadAn=       5 diagonalized for initial guess.
 HarFok:  IExCor= 4639 AccDes= 0.00D+00 IRadAn=         5 IDoV= 1 UseB2=F ITyADJ=14
 ICtDFT=  3500011 ScaDFX=  1.000000  1.000000  1.000000  1.000000
 FoFCou: FMM=F IPFlag=           0 FMFlag=      100000 FMFlg1=           0
         NFxFlg=           0 DoJE=T BraDBF=F KetDBF=T FulRan=T
         wScrn=  0.000000 ICntrl=       500 IOpCl=  0 I1Cent=   200000004 NGrid=           0
         NMat0=    1 NMatS0=      1 NMatT0=    0 NMatD0=    1 NMtDS0=    0 NMtDT0=    0
 Petite list used in FoFCou.
     Accept linear search using points  2 and  3.
     Accept linear search using points  1 and  2.
     Accept linear search using points  1 and  2.
     Minimum is close to point  2 DX= -8.56D-06 DF=  0.00D+00 DXR=  8.56D-06 DFR=  0.00D+00 which will be used.
 SCF Done:  E(RwB97XD) =  -2845.97656332     a.u. after    7 cycles
            Convg  =    0.3321D-09                    34 Fock formations.
              S**2 =  0.0000                  -V/T =  2.0019

 **********************************************************************

            Population analysis using the SCF Density.

 **********************************************************************

 Orbital symmetries:
       Occupied  (A) (A) (A) (A) (A) (A) (A) (A) (A) (A) (A) (A)
                 (A) (A) (A) (A) (A) (A) (A) (A) (A) (A) (A) (A)
                 (A) (A) (A) (A) (A) (A) (A) (A) (A) (A) (A) (A)
                 (A) (A) (A) (A) (A) (A)
       Virtual   (A) (A) (A) (A) (A) (A) (A) (A) (A) (A) (A) (A)
                 (A) (A) (A) (A) (A) (A) (A) (A) (A) (A) (A) (A)
                 (A) (A) (A) (A) (A) (A) (A) (A) (A) (A) (A) (A)
                 (A) (A) (A) (A) (A) (A) (A) (A) (A) (A) (A) (A)
                 (A) (A) (A) (A) (A) (A) (A) (A) (A) (A) (A) (A)
                 (A) (A) (A) (A) (A) (A) (A) (A) (A) (A) (A) (A)
                 (A) (A) (A) (A) (A) (A) (A) (A) (A) (A) (A) (A)
                 (A) (A) (A) (A) (A) (A) (A) (A) (A) (A) (A) (A)
 The electronic state is 1-A.
 Alpha  occ. eigenvalues -- -483.04326 -62.62547 -56.43309 -56.42960 -56.42954
 Alpha  occ. eigenvalues --  -19.25936 -10.34474 -10.33975 -10.32121 -10.28849
 Alpha  occ. eigenvalues --  -10.28508  -8.79496  -6.62017  -6.60746  -6.60722
 Alpha  occ. eigenvalues --   -2.72386  -2.72029  -2.72010  -2.70997  -2.70997
 Alpha  occ. eigenvalues --   -1.12503  -0.94263  -0.87291  -0.79441  -0.77987
 Alpha  occ. eigenvalues --   -0.75539  -0.64707  -0.60892  -0.56696  -0.55796
 Alpha  occ. eigenvalues --   -0.53985  -0.52525  -0.48108  -0.47354  -0.47179
 Alpha  occ. eigenvalues --   -0.44667  -0.43947  -0.42701  -0.41343  -0.36419
 Alpha  occ. eigenvalues --   -0.35231  -0.34877
 Alpha virt. eigenvalues --    0.08540   0.12634   0.14444   0.16875   0.18099
 Alpha virt. eigenvalues --    0.19305   0.20185   0.21026   0.22475   0.23680
 Alpha virt. eigenvalues --    0.25261   0.25837   0.26891   0.29322   0.30364
 Alpha virt. eigenvalues --    0.31282   0.31827   0.43522   0.45813   0.48577
 Alpha virt. eigenvalues --    0.50700   0.52231   0.55958   0.56275   0.58097
 Alpha virt. eigenvalues --    0.60797   0.62897   0.64830   0.65865   0.66686
 Alpha virt. eigenvalues --    0.68200   0.69526   0.71638   0.72228   0.75288
 Alpha virt. eigenvalues --    0.75491   0.76568   0.76996   0.78164   0.79804
 Alpha virt. eigenvalues --    0.80312   0.81267   0.82165   0.83060   0.83364
 Alpha virt. eigenvalues --    0.84199   0.85058   0.85725   0.88517   0.92208
 Alpha virt. eigenvalues --    0.97720   1.04516   1.06573   1.11157   1.14787
 Alpha virt. eigenvalues --    1.17630   1.22778   1.24940   1.27194   1.34430
 Alpha virt. eigenvalues --    1.48185   1.54062   1.63156   1.77721   1.78597
 Alpha virt. eigenvalues --    1.81809   1.87734   1.89986   1.93292   2.06529
 Alpha virt. eigenvalues --    2.08698   2.10942   2.12302   2.12706   2.17303
 Alpha virt. eigenvalues --    2.21739   2.24191   2.25589   2.26585   2.27723
 Alpha virt. eigenvalues --    2.30292   2.57587   2.61166   2.69742   2.71021
 Alpha virt. eigenvalues --    2.74934   2.78126   2.91539   3.06972   3.09532
 Alpha virt. eigenvalues --    3.47011   3.56553   3.56781   3.65419   3.65758
 Alpha virt. eigenvalues --    3.89891
          Condensed to atoms (all electrons):
 Mulliken charges:
               1
     1  C   -0.255949
     2  C   -0.305422
     3  C   -0.288201
     4  C    0.078971
     5  O   -0.485491
     6  C   -0.171055
     7  Br  -0.136320
     8  H    0.135933
     9  H    0.114803
    10  H    0.114007
    11  H    0.111636
    12  H    0.114734
    13  H    0.141770
    14  H    0.101719
    15  H    0.098038
    16  H    0.320224
    17  H    0.148278
    18  H    0.162325
 Sum of Mulliken charges =   0.00000
 Mulliken charges with hydrogens summed into heavy atoms:
               1
     1  C    0.108794
     2  C   -0.305422
     3  C    0.079939
     4  C    0.278728
     5  O   -0.165268
     6  C    0.139548
     7  Br  -0.136320
 Electronic spatial extent (au):  <R**2>=           1412.6800
 Charge=              0.0000 electrons
 Dipole moment (field-independent basis, Debye):
    X=             -1.7180    Y=              1.0308    Z=              0.7449  Tot=              2.1375
 Evaluate density.
 Using the total density.
 Monte-Carlo method of calculating molar volume:
 based on  0.001 e/bohr**3 density envelope.
 Number of points per bohr**3 =  100 CutOff= 1.00D-04
 Using the SCF density.
 There are      2122 points.  Will hold      2122 in memory.
 LenV=  1048235109 MDV=  1048576000.
 Box volume = 9558.223 fraction occupied=0.119
 Integrated density= 6.9414453064940901D+01 error=-1.4585546935059099D+01
 Molar volume = 1135.095 bohr**3/mol (101.295 cm**3/mol)
 Recommended a0 for SCRF calculation =  4.27 angstrom (  8.07 bohr)
   1 Symmetry operations used in ECPInt.
 ECPInt:  NShTT=    2485 NPrTT=   10882 LenC2=    2449 LenP2D=    8455.
 LDataN:  DoStor=T MaxTD1= 5 Len=  102
 Calling FoFJK, ICntrl=      2127 FMM=F ISym2X=0 I1Cent= 0 IOpClX= 0 NMat=1 NMatS=1 NMatT=0.

 GradGradGradGradGradGradGradGradGradGradGradGradGradGradGradGradGradGrad
 FormGI is forming the generalized inverse of G from B-inverse, IUseBI=4.
 Internal  Forces:  Max     0.011469525 RMS     0.003549807
 Step number   1 out of a maximum of   97
 All quantities printed in internal units (Hartrees-Bohrs-Radians)
 Mixed Optimization -- RFO/linear search
 Second derivative matrix not updated -- first step.
 ITU=  0
     Eigenvalues ---    0.00230   0.00358   0.00393   0.00413   0.01642
     Eigenvalues ---    0.04483   0.04644   0.04835   0.05198   0.05368
     Eigenvalues ---    0.05521   0.05597   0.05647   0.05653   0.05752
     Eigenvalues ---    0.05774   0.11863   0.14086   0.14179   0.14670
     Eigenvalues ---    0.16000   0.16000   0.16000   0.16000   0.16000
     Eigenvalues ---    0.16000   0.16000   0.16000   0.16000   0.16056
     Eigenvalues ---    0.22089   0.22290   0.27883   0.29348   0.29594
     Eigenvalues ---    0.29731   0.33822   0.34432   0.34857   0.34861
     Eigenvalues ---    0.34890   0.34984   0.35003   0.35063   0.35095
     Eigenvalues ---    0.35106   0.44999   0.54661
 Linear search not attempted -- first point.
 Iteration  1 RMS(Cart)=  0.03298299 RMS(Int)=  0.00050181
 Iteration  2 RMS(Cart)=  0.00049261 RMS(Int)=  0.00008704
 Iteration  3 RMS(Cart)=  0.00000015 RMS(Int)=  0.00008704
 Variable       Old X    -DE/DX   Delta X   Delta X   Delta X     New X
                                 (Linear)    (Quad)   (Total)
    R1        2.88781   0.00375   0.00000   0.01252   0.01252   2.90033
    R2        2.05573   0.00976   0.00000   0.02752   0.02752   2.08325
    R3        2.05504   0.01147   0.00000   0.03232   0.03232   2.08735
    R4        2.05670   0.01108   0.00000   0.03132   0.03132   2.08802
    R5        2.89282   0.00378   0.00000   0.01273   0.01273   2.90555
    R6        2.92395  -0.00056   0.00000  -0.00198  -0.00198   2.92197
    R7        2.88504   0.00669   0.00000   0.02222   0.02222   2.90726
    R8        2.05854   0.01038   0.00000   0.02942   0.02942   2.08795
    R9        2.05700   0.01131   0.00000   0.03198   0.03198   2.08898
   R10        2.05521   0.00953   0.00000   0.02687   0.02687   2.08208
   R11        2.65277   0.00188   0.00000   0.00414   0.00414   2.65690
   R12        2.06608   0.00651   0.00000   0.01870   0.01870   2.08478
   R13        2.07631   0.00718   0.00000   0.02100   0.02100   2.09731
   R14        1.82134   0.00242   0.00000   0.00439   0.00439   1.82573
   R15        3.68291   0.00236   0.00000   0.01434   0.01434   3.69725
   R16        2.05902   0.00726   0.00000   0.02060   0.02060   2.07962
   R17        2.05908   0.00595   0.00000   0.01688   0.01688   2.07596
    A1        1.92740   0.00114   0.00000   0.00701   0.00699   1.93438
    A2        1.92663   0.00072   0.00000   0.00468   0.00466   1.93130
    A3        1.93401   0.00111   0.00000   0.00638   0.00636   1.94037
    A4        1.88925  -0.00087   0.00000  -0.00458  -0.00460   1.88466
    A5        1.89428  -0.00124   0.00000  -0.00812  -0.00813   1.88614
    A6        1.89111  -0.00097   0.00000  -0.00607  -0.00608   1.88503
    A7        1.91972   0.00001   0.00000   0.00526   0.00474   1.92446
    A8        1.89752  -0.00079   0.00000  -0.01785  -0.01780   1.87972
    A9        1.93277   0.00096   0.00000   0.01702   0.01673   1.94951
   A10        1.92005  -0.00056   0.00000  -0.01450  -0.01445   1.90560
   A11        1.93376   0.00105   0.00000   0.01912   0.01888   1.95264
   A12        1.85885  -0.00073   0.00000  -0.01051  -0.01030   1.84854
   A13        1.94132   0.00150   0.00000   0.00861   0.00858   1.94990
   A14        1.92595   0.00007   0.00000   0.00080   0.00079   1.92674
   A15        1.92562   0.00184   0.00000   0.01140   0.01137   1.93699
   A16        1.90083  -0.00088   0.00000  -0.00577  -0.00577   1.89505
   A17        1.88229  -0.00182   0.00000  -0.01178  -0.01182   1.87046
   A18        1.88640  -0.00084   0.00000  -0.00406  -0.00408   1.88232
   A19        1.98884   0.00083   0.00000   0.00699   0.00699   1.99583
   A20        1.91399  -0.00057   0.00000  -0.00497  -0.00504   1.90896
   A21        1.89848  -0.00084   0.00000  -0.00717  -0.00723   1.89125
   A22        1.83938   0.00054   0.00000   0.00922   0.00923   1.84861
   A23        1.93364   0.00059   0.00000   0.00879   0.00880   1.94244
   A24        1.88648  -0.00060   0.00000  -0.01377  -0.01387   1.87261
   A25        1.89898   0.00126   0.00000   0.00770   0.00770   1.90667
   A26        1.97828   0.00867   0.00000   0.04120   0.04108   2.01936
   A27        1.93627  -0.00072   0.00000  -0.00472  -0.00480   1.93147
   A28        1.93368  -0.00100   0.00000  -0.00467  -0.00480   1.92887
   A29        1.84810  -0.00363   0.00000  -0.01340  -0.01347   1.83463
   A30        1.85511  -0.00312   0.00000  -0.00710  -0.00726   1.84784
   A31        1.90833  -0.00056   0.00000  -0.01300  -0.01308   1.89524
    D1        1.08114   0.00105   0.00000   0.01490   0.01491   1.09605
    D2       -3.09867  -0.00012   0.00000  -0.01078  -0.01075  -3.10942
    D3       -1.06217  -0.00093   0.00000  -0.02443  -0.02447  -1.08663
    D4       -1.00738   0.00095   0.00000   0.01311   0.01312  -0.99426
    D5        1.09600  -0.00023   0.00000  -0.01257  -0.01254   1.08345
    D6        3.13250  -0.00103   0.00000  -0.02622  -0.02626   3.10624
    D7       -3.10248   0.00097   0.00000   0.01350   0.01351  -3.08897
    D8       -0.99910  -0.00020   0.00000  -0.01218  -0.01215  -1.01125
    D9        1.03740  -0.00101   0.00000  -0.02583  -0.02586   1.01153
   D10       -3.02707  -0.00114   0.00000  -0.03166  -0.03169  -3.05876
   D11        1.14445  -0.00108   0.00000  -0.03064  -0.03066   1.11379
   D12       -0.93896  -0.00125   0.00000  -0.03335  -0.03336  -0.97232
   D13        1.16638   0.00018   0.00000  -0.00381  -0.00384   1.16254
   D14       -0.94528   0.00024   0.00000  -0.00280  -0.00281  -0.94809
   D15       -3.02868   0.00008   0.00000  -0.00550  -0.00551  -3.03420
   D16       -0.88434   0.00079   0.00000   0.00645   0.00648  -0.87787
   D17       -2.99600   0.00085   0.00000   0.00746   0.00750  -2.98850
   D18        1.20377   0.00068   0.00000   0.00476   0.00480   1.20858
   D19        3.12315   0.00049   0.00000   0.01937   0.01937  -3.14067
   D20        1.06636  -0.00033   0.00000   0.00665   0.00667   1.07303
   D21       -0.99339   0.00121   0.00000   0.03033   0.03028  -0.96310
   D22       -1.05686  -0.00033   0.00000   0.00589   0.00591  -1.05095
   D23       -3.11366  -0.00115   0.00000  -0.00683  -0.00678  -3.12044
   D24        1.10978   0.00039   0.00000   0.01685   0.01683   1.12661
   D25        1.03984   0.00018   0.00000   0.01457   0.01456   1.05440
   D26       -1.01696  -0.00064   0.00000   0.00185   0.00187  -1.01509
   D27       -3.07670   0.00090   0.00000   0.02553   0.02548  -3.05122
   D28        1.12979   0.00057   0.00000   0.01107   0.01116   1.14095
   D29       -0.94672  -0.00014   0.00000   0.00371   0.00382  -0.94290
   D30       -3.06973   0.00175   0.00000   0.02661   0.02674  -3.04298
   D31       -1.00535  -0.00082   0.00000  -0.02051  -0.02065  -1.02599
   D32       -3.08186  -0.00153   0.00000  -0.02788  -0.02799  -3.10985
   D33        1.07832   0.00036   0.00000  -0.00497  -0.00506   1.07326
   D34       -3.09317  -0.00029   0.00000  -0.00731  -0.00734  -3.10051
   D35        1.11350  -0.00099   0.00000  -0.01468  -0.01468   1.09882
   D36       -1.00951   0.00089   0.00000   0.00823   0.00824  -1.00126
   D37        1.16807   0.00026   0.00000   0.01497   0.01497   1.18304
   D38       -3.01590   0.00040   0.00000   0.01909   0.01912  -2.99677
   D39       -0.97954   0.00029   0.00000   0.01242   0.01240  -0.96714
         Item               Value     Threshold  Converged?
 Maximum Force            0.011470     0.000015     NO 
 RMS     Force            0.003550     0.000010     NO 
 Maximum Displacement     0.137744     0.000060     NO 
 RMS     Displacement     0.033072     0.000040     NO 
 GradGradGradGradGradGradGradGradGradGradGradGradGradGradGradGradGradGrad

                    Distance matrix (angstroms):
                    1          2          3          4          5
     1  C    0.000000
     2  C    1.534790   0.000000
     3  C    2.520755   1.537550   0.000000
     4  C    2.487863   1.546239   2.513422   0.000000
     5  O    3.774357   2.482031   2.970647   1.405973   0.000000
     6  C    2.543307   1.538455   2.548291   2.462152   2.906813
     7  Br   3.431408   2.967392   3.361160   4.296362   4.743154
     8  H    1.102409   2.185020   2.798534   3.465646   4.636546
     9  H    1.104580   2.184421   2.749532   2.746998   4.065801
    10  H    1.104933   2.191252   3.491912   2.720205   4.049011
    11  H    3.494680   2.200522   1.104898   2.832104   2.735206
    12  H    2.802448   2.184182   1.105443   2.711132   3.240106
    13  H    2.744402   2.188870   1.101787   3.483194   4.013625
    14  H    2.725221   2.177103   3.472466   1.103218   2.011126
    15  H    2.658923   2.168814   2.769261   1.109847   2.083707
    16  H    4.074338   2.724646   2.674115   1.950796   0.966136
    17  H    2.755001   2.184691   3.504524   2.721268   3.286705
    18  H    3.495278   2.181352   2.815166   2.670230   2.535799
                    6          7          8          9         10
     6  C    0.000000
     7  Br   1.956501   0.000000
     8  H    2.821710   3.006558   0.000000
     9  H    3.504398   4.427904   1.785297   0.000000
    10  H    2.793856   3.802322   1.786546   1.787584   0.000000
    11  H    2.751122   3.583272   3.790854   3.793520   4.358972
    12  H    3.502282   4.409793   3.211571   2.575289   3.798130
    13  H    2.886582   2.998897   2.568014   3.041375   3.783225
    14  H    2.663703   4.545822   3.732668   3.112499   2.490825
    15  H    3.431350   5.121540   3.693927   2.446193   2.975457
    16  H    3.331622   4.967389   4.853624   4.232590   4.565330
    17  H    1.100486   2.482331   3.116846   3.771331   2.549258
    18  H    1.098548   2.492076   3.843548   4.339495   3.777967
                   11         12         13         14         15
    11  H    0.000000
    12  H    1.794741   0.000000
    13  H    1.775800   1.783979   0.000000
    14  H    3.823485   3.738081   4.330848   0.000000
    15  H    3.243213   2.506186   3.742648   1.782350   0.000000
    16  H    2.235353   2.801165   3.735714   2.825126   2.314409
    17  H    3.786541   4.343291   3.865481   2.452360   3.708838
    18  H    2.570642   3.778570   3.295910   2.967913   3.715318
                   16         17         18
    16  H    0.000000
    17  H    3.944034   0.000000
    18  H    2.899507   1.785681   0.000000
 Framework group  C1[X(C5H11BrO)]
 Deg. of freedom    48
                         Standard orientation:                         
 ---------------------------------------------------------------------
 Center     Atomic      Atomic             Coordinates (Angstroms)
 Number     Number       Type             X           Y           Z
 ---------------------------------------------------------------------
      1          6           0       -0.811101    1.854373   -0.530540
      2          6           0       -1.007360    0.430370    0.007306
      3          6           0       -1.024467    0.439481    1.544734
      4          6           0       -2.369167   -0.085106   -0.512905
      5          8           0       -2.692208   -1.389139   -0.098292
      6          6           0        0.050631   -0.538430   -0.548504
      7         35           0        1.895047   -0.187217    0.001658
      8          1           0        0.163973    2.261331   -0.216023
      9          1           0       -1.600209    2.526935   -0.149664
     10          1           0       -0.850147    1.872912   -1.634627
     11          1           0       -1.080074   -0.583257    1.959118
     12          1           0       -1.889908    1.017831    1.916926
     13          1           0       -0.109814    0.903991    1.946699
     14          1           0       -2.352711   -0.113581   -1.615632
     15          1           0       -3.154786    0.639317   -0.213280
     16          1           0       -2.848174   -1.390680    0.855171
     17          1           0        0.067949   -0.505245   -1.648353
     18          1           0       -0.166290   -1.567966   -0.232581
 ---------------------------------------------------------------------
 Rotational constants (GHZ):           3.0733410           0.8639650           0.8010317
   138 basis functions,   274 primitive gaussians,   147 cartesian basis functions
    42 alpha electrons       42 beta electrons
       nuclear repulsion energy       530.6826782036 Hartrees.
 NAtoms=   18 NActive=   18 NUniq=   18 SFac= 1.00D+00 NAtFMM=   60 NAOKFM=F Big=F
 Nuclear repulsion after empirical dispersion term =      530.6698618708 Hartrees.
   1 Symmetry operations used in ECPInt.
 ECPInt:  NShTT=    2485 NPrTT=   10882 LenC2=    2448 LenP2D=    8421.
 LDataN:  DoStor=T MaxTD1= 4 Len=   56
 Initial guess from the checkpoint file:  "monomer.chk"
 B after Tr=     0.000000    0.000000    0.000000
         Rot=    0.999934    0.007192    0.004008   -0.008074 Ang=   1.32 deg.
 ExpMin= 1.22D-01 ExpMax= 1.13D+05 ExpMxC= 1.70D+04 IAcc=3 IRadAn=         5 AccDes= 0.00D+00
 Harris functional with IExCor= 4639 and IRadAn=       5 diagonalized for initial guess.
 HarFok:  IExCor= 4639 AccDes= 0.00D+00 IRadAn=         5 IDoV= 1 UseB2=F ITyADJ=14
 ICtDFT=  3500011 ScaDFX=  1.000000  1.000000  1.000000  1.000000
 FoFCou: FMM=F IPFlag=           0 FMFlag=      100000 FMFlg1=           0
         NFxFlg=           0 DoJE=T BraDBF=F KetDBF=T FulRan=T
         wScrn=  0.000000 ICntrl=       500 IOpCl=  0 I1Cent=   200000004 NGrid=           0
         NMat0=    1 NMatS0=      1 NMatT0=    0 NMatD0=    1 NMtDS0=    0 NMtDT0=    0
 Petite list used in FoFCou.
     Accept linear search using points  3 and  4.
     Minimum is close to point  4 DX= -1.84D-02 DF= -5.41D-08 DXR=  1.56D-02 DFR=  3.84D-05 which will be used.
     Accept linear search using points  2 and  3.
     Minimum is close to point  2 DX=  9.01D-03 DF= -8.99D-09 DXR=  8.93D-03 DFR=  7.98D-05 which will be used.
     Accept linear search using points  1 and  2.
     Minimum is close to point  2 DX=  2.98D-05 DF=  0.00D+00 DXR=  2.98D-05 DFR=  0.00D+00 which will be used.
 SCF Done:  E(RwB97XD) =  -2845.97815571     a.u. after    7 cycles
            Convg  =    0.1935D-08                    34 Fock formations.
              S**2 =  0.0000                  -V/T =  2.0020
   1 Symmetry operations used in ECPInt.
 ECPInt:  NShTT=    2485 NPrTT=   10882 LenC2=    2448 LenP2D=    8421.
 LDataN:  DoStor=T MaxTD1= 5 Len=  102
 Calling FoFJK, ICntrl=      2127 FMM=F ISym2X=0 I1Cent= 0 IOpClX= 0 NMat=1 NMatS=1 NMatT=0.

 GradGradGradGradGradGradGradGradGradGradGradGradGradGradGradGradGradGrad
 Using GEDIIS/GDIIS optimizer.
 FormGI is forming the generalized inverse of G from B-inverse, IUseBI=4.
 Internal  Forces:  Max     0.004382196 RMS     0.000869136
 Step number   2 out of a maximum of   97
 All quantities printed in internal units (Hartrees-Bohrs-Radians)
 Mixed Optimization -- En-DIIS/RFO-DIIS
 Trust test= 8.04D-01 RLast= 1.56D-01 DXMaxT set to 4.69D-01
 ITU=  1  0
 Use linear search instead of GDIIS.
     Eigenvalues ---    0.00230   0.00358   0.00394   0.00413   0.01633
     Eigenvalues ---    0.04563   0.04582   0.05076   0.05112   0.05313
     Eigenvalues ---    0.05451   0.05533   0.05569   0.05589   0.05789
     Eigenvalues ---    0.05855   0.11897   0.14109   0.14133   0.14690
     Eigenvalues ---    0.15786   0.16000   0.16000   0.16000   0.16000
     Eigenvalues ---    0.16000   0.16000   0.16000   0.16011   0.16307
     Eigenvalues ---    0.22015   0.23589   0.27818   0.29340   0.29443
     Eigenvalues ---    0.29656   0.33838   0.34447   0.34740   0.34859
     Eigenvalues ---    0.34882   0.34925   0.34995   0.35065   0.35078
     Eigenvalues ---    0.35805   0.45560   0.54650
 Quartic linear search produced a step of -0.13738.
 Iteration  1 RMS(Cart)=  0.01543588 RMS(Int)=  0.00011669
 Iteration  2 RMS(Cart)=  0.00013065 RMS(Int)=  0.00000959
 Iteration  3 RMS(Cart)=  0.00000001 RMS(Int)=  0.00000959
 Variable       Old X    -DE/DX   Delta X   Delta X   Delta X     New X
                                 (Linear)    (Quad)   (Total)
    R1        2.90033  -0.00174  -0.00172  -0.00256  -0.00428   2.89605
    R2        2.08325   0.00040  -0.00378   0.00649   0.00271   2.08596
    R3        2.08735  -0.00018  -0.00444   0.00605   0.00161   2.08897
    R4        2.08802  -0.00006  -0.00430   0.00613   0.00183   2.08985
    R5        2.90555  -0.00210  -0.00175  -0.00361  -0.00536   2.90019
    R6        2.92197   0.00117   0.00027   0.00323   0.00350   2.92547
    R7        2.90726  -0.00438  -0.00305  -0.00825  -0.01130   2.89595
    R8        2.08795  -0.00008  -0.00404   0.00571   0.00167   2.08962
    R9        2.08898  -0.00014  -0.00439   0.00608   0.00169   2.09067
   R10        2.08208   0.00053  -0.00369   0.00669   0.00300   2.08507
   R11        2.65690  -0.00212  -0.00057  -0.00324  -0.00380   2.65310
   R12        2.08478   0.00003  -0.00257   0.00382   0.00125   2.08603
   R13        2.09731   0.00019  -0.00288   0.00470   0.00181   2.09912
   R14        1.82573  -0.00002  -0.00060   0.00085   0.00024   1.82598
   R15        3.69725  -0.00209  -0.00197  -0.00838  -0.01035   3.68691
   R16        2.07962  -0.00015  -0.00283   0.00375   0.00092   2.08054
   R17        2.07596  -0.00015  -0.00232   0.00301   0.00070   2.07665
    A1        1.93438   0.00026  -0.00096   0.00256   0.00160   1.93599
    A2        1.93130  -0.00001  -0.00064   0.00123   0.00059   1.93189
    A3        1.94037   0.00006  -0.00087   0.00140   0.00053   1.94090
    A4        1.88466  -0.00008   0.00063  -0.00099  -0.00036   1.88430
    A5        1.88614  -0.00026   0.00112  -0.00372  -0.00260   1.88354
    A6        1.88503   0.00002   0.00084  -0.00073   0.00010   1.88514
    A7        1.92446   0.00005  -0.00065  -0.00187  -0.00258   1.92188
    A8        1.87972   0.00020   0.00245   0.00471   0.00716   1.88687
    A9        1.94951  -0.00032  -0.00230  -0.00466  -0.00699   1.94252
   A10        1.90560   0.00053   0.00198   0.00667   0.00867   1.91427
   A11        1.95264  -0.00080  -0.00259  -0.00769  -0.01031   1.94233
   A12        1.84854   0.00042   0.00142   0.00390   0.00534   1.85389
   A13        1.94990   0.00001  -0.00118   0.00145   0.00027   1.95017
   A14        1.92674  -0.00004  -0.00011   0.00046   0.00035   1.92709
   A15        1.93699   0.00027  -0.00156   0.00344   0.00188   1.93887
   A16        1.89505   0.00007   0.00079  -0.00030   0.00050   1.89555
   A17        1.87046  -0.00028   0.00162  -0.00488  -0.00325   1.86721
   A18        1.88232  -0.00004   0.00056  -0.00043   0.00013   1.88245
   A19        1.99583   0.00074  -0.00096   0.00472   0.00375   1.99958
   A20        1.90896   0.00040   0.00069   0.00210   0.00280   1.91175
   A21        1.89125  -0.00013   0.00099  -0.00139  -0.00039   1.89087
   A22        1.84861  -0.00059  -0.00127  -0.00133  -0.00261   1.84600
   A23        1.94244  -0.00025  -0.00121   0.00086  -0.00035   1.94208
   A24        1.87261  -0.00022   0.00190  -0.00556  -0.00365   1.86897
   A25        1.90667  -0.00066  -0.00106  -0.00205  -0.00311   1.90356
   A26        2.01936  -0.00368  -0.00564  -0.00700  -0.01264   2.00672
   A27        1.93147   0.00040   0.00066   0.00118   0.00184   1.93331
   A28        1.92887   0.00023   0.00066  -0.00051   0.00016   1.92903
   A29        1.83463   0.00155   0.00185   0.00266   0.00452   1.83915
   A30        1.84784   0.00154   0.00100   0.00254   0.00354   1.85138
   A31        1.89524   0.00021   0.00180   0.00170   0.00351   1.89875
    D1        1.09605  -0.00061  -0.00205  -0.00597  -0.00802   1.08803
    D2       -3.10942   0.00018   0.00148   0.00385   0.00533  -3.10409
    D3       -1.08663   0.00062   0.00336   0.00883   0.01219  -1.07444
    D4       -0.99426  -0.00067  -0.00180  -0.00720  -0.00900  -1.00326
    D5        1.08345   0.00012   0.00172   0.00262   0.00434   1.08780
    D6        3.10624   0.00057   0.00361   0.00760   0.01121   3.11745
    D7       -3.08897  -0.00073  -0.00186  -0.00801  -0.00987  -3.09884
    D8       -1.01125   0.00006   0.00167   0.00181   0.00347  -1.00778
    D9        1.01153   0.00051   0.00355   0.00678   0.01034   1.02187
   D10       -3.05876   0.00051   0.00435  -0.01099  -0.00664  -3.06540
   D11        1.11379   0.00044   0.00421  -0.01191  -0.00770   1.10609
   D12       -0.97232   0.00034   0.00458  -0.01388  -0.00931  -0.98162
   D13        1.16254  -0.00008   0.00053  -0.01966  -0.01913   1.14341
   D14       -0.94809  -0.00015   0.00039  -0.02057  -0.02019  -0.96828
   D15       -3.03420  -0.00025   0.00076  -0.02255  -0.02180  -3.05599
   D16       -0.87787  -0.00046  -0.00089  -0.02408  -0.02495  -0.90282
   D17       -2.98850  -0.00053  -0.00103  -0.02499  -0.02601  -3.01451
   D18        1.20858  -0.00062  -0.00066  -0.02697  -0.02762   1.18096
   D19       -3.14067  -0.00020  -0.00266  -0.00016  -0.00282   3.13970
   D20        1.07303  -0.00021  -0.00092  -0.00299  -0.00392   1.06911
   D21       -0.96310  -0.00009  -0.00416   0.00328  -0.00088  -0.96399
   D22       -1.05095   0.00028  -0.00081   0.00412   0.00330  -1.04765
   D23       -3.12044   0.00027   0.00093   0.00128   0.00220  -3.11824
   D24        1.12661   0.00039  -0.00231   0.00755   0.00524   1.13185
   D25        1.05440  -0.00015  -0.00200   0.00081  -0.00118   1.05322
   D26       -1.01509  -0.00015  -0.00026  -0.00203  -0.00228  -1.01738
   D27       -3.05122  -0.00004  -0.00350   0.00424   0.00075  -3.05047
   D28        1.14095  -0.00025  -0.00153   0.00535   0.00382   1.14478
   D29       -0.94290  -0.00001  -0.00053   0.00588   0.00536  -0.93754
   D30       -3.04298  -0.00068  -0.00367   0.00331  -0.00035  -3.04333
   D31       -1.02599   0.00053   0.00284   0.01712   0.01994  -1.00605
   D32       -3.10985   0.00077   0.00384   0.01765   0.02148  -3.08836
   D33        1.07326   0.00010   0.00070   0.01508   0.01577   1.08903
   D34       -3.10051   0.00007   0.00101   0.01086   0.01187  -3.08864
   D35        1.09882   0.00031   0.00202   0.01139   0.01340   1.11223
   D36       -1.00126  -0.00036  -0.00113   0.00882   0.00769  -0.99357
   D37        1.18304   0.00016  -0.00206   0.01562   0.01356   1.19660
   D38       -2.99677   0.00069  -0.00263   0.02013   0.01750  -2.97928
   D39       -0.96714  -0.00004  -0.00170   0.01319   0.01150  -0.95564
         Item               Value     Threshold  Converged?
 Maximum Force            0.004382     0.000015     NO 
 RMS     Force            0.000869     0.000010     NO 
 Maximum Displacement     0.064657     0.000060     NO 
 RMS     Displacement     0.015459     0.000040     NO 
 GradGradGradGradGradGradGradGradGradGradGradGradGradGradGradGradGradGrad

                    Distance matrix (angstroms):
                    1          2          3          4          5
     1  C    0.000000
     2  C    1.532523   0.000000
     3  C    2.514306   1.534715   0.000000
     4  C    2.494021   1.548090   2.520345   0.000000
     5  O    3.778152   2.484950   2.981640   1.403961   0.000000
     6  C    2.530453   1.532473   2.532097   2.463817   2.913633
     7  Br   3.400682   2.946168   3.309658   4.285415   4.737945
     8  H    1.103844   2.185265   2.790177   3.472513   4.640875
     9  H    1.105434   2.183494   2.747868   2.757102   4.074103
    10  H    1.105902   2.190368   3.487403   2.726682   4.053044
    11  H    3.490100   2.198881   1.105780   2.831548   2.739698
    12  H    2.792777   2.182616   1.106336   2.729455   3.266112
    13  H    2.744056   2.188922   1.103373   3.491761   4.021501
    14  H    2.734185   2.181288   3.478653   1.103880   2.007972
    15  H    2.667866   2.170849   2.781068   1.110807   2.082460
    16  H    4.079435   2.731532   2.693544   1.947065   0.966265
    17  H    2.739891   2.181116   3.492186   2.731686   3.303251
    18  H    3.485037   2.176469   2.804567   2.668804   2.541242
                    6          7          8          9         10
     6  C    0.000000
     7  Br   1.951026   0.000000
     8  H    2.804759   2.965213   0.000000
     9  H    3.494173   4.391913   1.786915   0.000000
    10  H    2.785927   3.786691   1.786804   1.789125   0.000000
    11  H    2.744082   3.548290   3.786780   3.790970   4.356209
    12  H    3.490927   4.354017   3.196345   2.567954   3.793548
    13  H    2.858671   2.921780   2.562982   3.050490   3.781313
    14  H    2.671822   4.549168   3.741981   3.124066   2.500788
    15  H    3.431582   5.104851   3.705051   2.460143   2.983445
    16  H    3.343937   4.964197   4.861834   4.239174   4.569918
    17  H    1.100973   2.481479   3.092726   3.761481   2.536808
    18  H    1.098916   2.490294   3.829819   4.332924   3.770342
                   11         12         13         14         15
    11  H    0.000000
    12  H    1.796503   0.000000
    13  H    1.775654   1.786066   0.000000
    14  H    3.824566   3.754362   4.337780   0.000000
    15  H    3.244431   2.530323   3.761604   1.781261   0.000000
    16  H    2.249846   2.831554   3.754292   2.820665   2.306501
    17  H    3.783478   4.337524   3.838226   2.470778   3.716895
    18  H    2.566463   3.776319   3.271829   2.970269   3.714570
                   16         17         18
    16  H    0.000000
    17  H    3.963251   0.000000
    18  H    2.914097   1.788623   0.000000
 Framework group  C1[X(C5H11BrO)]
 Deg. of freedom    48
                         Standard orientation:                         
 ---------------------------------------------------------------------
 Center     Atomic      Atomic             Coordinates (Angstroms)
 Number     Number       Type             X           Y           Z
 ---------------------------------------------------------------------
      1          6           0       -0.785249    1.854703   -0.515108
      2          6           0       -0.998590    0.430056    0.007860
      3          6           0       -0.981015    0.422977    1.542457
      4          6           0       -2.373501   -0.068152   -0.500070
      5          8           0       -2.707005   -1.371349   -0.098130
      6          6           0        0.044767   -0.535230   -0.564940
      7         35           0        1.880985   -0.192737   -0.001464
      8          1           0        0.202353    2.242606   -0.210733
      9          1           0       -1.557531    2.537196   -0.115399
     10          1           0       -0.838190    1.887621   -1.619251
     11          1           0       -1.055194   -0.603027    1.948121
     12          1           0       -1.821759    1.021702    1.940775
     13          1           0       -0.043418    0.856067    1.930758
     14          1           0       -2.375278   -0.084957   -1.603820
     15          1           0       -3.148509    0.661977   -0.183576
     16          1           0       -2.863026   -1.377361    0.855437
     17          1           0        0.062386   -0.483519   -1.664557
     18          1           0       -0.178721   -1.567852   -0.262680
 ---------------------------------------------------------------------
 Rotational constants (GHZ):           3.0957589           0.8712380           0.8081183
   138 basis functions,   274 primitive gaussians,   147 cartesian basis functions
    42 alpha electrons       42 beta electrons
       nuclear repulsion energy       532.4875667604 Hartrees.
 NAtoms=   18 NActive=   18 NUniq=   18 SFac= 1.00D+00 NAtFMM=   60 NAOKFM=F Big=F
 Nuclear repulsion after empirical dispersion term =      532.4747855881 Hartrees.
   1 Symmetry operations used in ECPInt.
 ECPInt:  NShTT=    2485 NPrTT=   10882 LenC2=    2448 LenP2D=    8431.
 LDataN:  DoStor=T MaxTD1= 4 Len=   56
 Initial guess from the checkpoint file:  "monomer.chk"
 B after Tr=    -0.000000   -0.000000    0.000000
         Rot=    0.999983   -0.004377   -0.002226    0.003296 Ang=  -0.68 deg.
 ExpMin= 1.22D-01 ExpMax= 1.13D+05 ExpMxC= 1.70D+04 IAcc=3 IRadAn=         5 AccDes= 0.00D+00
 Harris functional with IExCor= 4639 and IRadAn=       5 diagonalized for initial guess.
 HarFok:  IExCor= 4639 AccDes= 0.00D+00 IRadAn=         5 IDoV= 1 UseB2=F ITyADJ=14
 ICtDFT=  3500011 ScaDFX=  1.000000  1.000000  1.000000  1.000000
 FoFCou: FMM=F IPFlag=           0 FMFlag=      100000 FMFlg1=           0
         NFxFlg=           0 DoJE=T BraDBF=F KetDBF=T FulRan=T
         wScrn=  0.000000 ICntrl=       500 IOpCl=  0 I1Cent=   200000004 NGrid=           0
         NMat0=    1 NMatS0=      1 NMatT0=    0 NMatD0=    1 NMtDS0=    0 NMtDT0=    0
 Petite list used in FoFCou.
     Accept linear search using points  1 and  2.
     Minimum is close to point  2 DX= -9.44D-05 DF= -4.55D-13 DXR=  9.44D-05 DFR=  1.10D-08 which will be used.
 SCF Done:  E(RwB97XD) =  -2845.97829122     a.u. after    5 cycles
            Convg  =    0.6571D-09                    30 Fock formations.
              S**2 =  0.0000                  -V/T =  2.0020
   1 Symmetry operations used in ECPInt.
 ECPInt:  NShTT=    2485 NPrTT=   10882 LenC2=    2448 LenP2D=    8431.
 LDataN:  DoStor=T MaxTD1= 5 Len=  102
 Calling FoFJK, ICntrl=      2127 FMM=F ISym2X=0 I1Cent= 0 IOpClX= 0 NMat=1 NMatS=1 NMatT=0.

 GradGradGradGradGradGradGradGradGradGradGradGradGradGradGradGradGradGrad
 Using GEDIIS/GDIIS optimizer.
 FormGI is forming the generalized inverse of G from B-inverse, IUseBI=4.
 Internal  Forces:  Max     0.000765348 RMS     0.000280679
 Step number   3 out of a maximum of   97
 All quantities printed in internal units (Hartrees-Bohrs-Radians)
 Mixed Optimization -- En-DIIS/RFO-DIIS
 Swapping is turned off.
 Trust test= 8.41D-01 RLast= 8.58D-02 DXMaxT set to 4.69D-01
 ITU=  1  1  0
     Eigenvalues ---    0.00230   0.00354   0.00394   0.00425   0.01556
     Eigenvalues ---    0.04550   0.04796   0.05094   0.05250   0.05273
     Eigenvalues ---    0.05456   0.05519   0.05552   0.05577   0.05767
     Eigenvalues ---    0.06001   0.12009   0.14125   0.14260   0.14709
     Eigenvalues ---    0.15688   0.16000   0.16000   0.16000   0.16000
     Eigenvalues ---    0.16000   0.16000   0.16011   0.16022   0.16481
     Eigenvalues ---    0.22120   0.24283   0.28017   0.29071   0.29533
     Eigenvalues ---    0.33498   0.33803   0.34419   0.34845   0.34869
     Eigenvalues ---    0.34891   0.34994   0.35007   0.35065   0.35199
     Eigenvalues ---    0.35679   0.44673   0.54651
 En-DIIS/RFO-DIIS/Sim-DIIS IScMMF=       -3 using points:     3    2
 RFO step:  Lambda=-3.68968586D-05.
 DidBck=F Rises=F RFO-DIIS coefs:    0.99216    0.00784
 Iteration  1 RMS(Cart)=  0.00670992 RMS(Int)=  0.00002662
 Iteration  2 RMS(Cart)=  0.00002687 RMS(Int)=  0.00000104
 Iteration  3 RMS(Cart)=  0.00000000 RMS(Int)=  0.00000104
 Variable       Old X    -DE/DX   Delta X   Delta X   Delta X     New X
                                 (Linear)    (Quad)   (Total)
    R1        2.89605  -0.00035   0.00003  -0.00144  -0.00141   2.89464
    R2        2.08596  -0.00065  -0.00002  -0.00148  -0.00150   2.08446
    R3        2.08897  -0.00065  -0.00001  -0.00162  -0.00163   2.08733
    R4        2.08985  -0.00058  -0.00001  -0.00144  -0.00145   2.08840
    R5        2.90019  -0.00039   0.00004  -0.00164  -0.00160   2.89859
    R6        2.92547  -0.00074  -0.00003  -0.00184  -0.00187   2.92360
    R7        2.89595   0.00064   0.00009   0.00060   0.00069   2.89664
    R8        2.08962  -0.00050  -0.00001  -0.00126  -0.00127   2.08835
    R9        2.09067  -0.00061  -0.00001  -0.00152  -0.00153   2.08914
   R10        2.08507  -0.00077  -0.00002  -0.00172  -0.00175   2.08333
   R11        2.65310  -0.00074   0.00003  -0.00170  -0.00167   2.65143
   R12        2.08603  -0.00032  -0.00001  -0.00080  -0.00081   2.08522
   R13        2.09912  -0.00027  -0.00001  -0.00066  -0.00068   2.09844
   R14        1.82598  -0.00005  -0.00000  -0.00009  -0.00009   1.82589
   R15        3.68691   0.00028   0.00008   0.00041   0.00049   3.68740
   R16        2.08054  -0.00040  -0.00001  -0.00102  -0.00103   2.07951
   R17        2.07665  -0.00026  -0.00001  -0.00068  -0.00068   2.07597
    A1        1.93599  -0.00008  -0.00001  -0.00037  -0.00039   1.93560
    A2        1.93189   0.00019  -0.00000   0.00109   0.00109   1.93297
    A3        1.94090   0.00008  -0.00000   0.00037   0.00036   1.94126
    A4        1.88430  -0.00005   0.00000  -0.00023  -0.00023   1.88407
    A5        1.88354  -0.00003   0.00002  -0.00050  -0.00048   1.88306
    A6        1.88514  -0.00012  -0.00000  -0.00041  -0.00041   1.88472
    A7        1.92188   0.00005   0.00002   0.00088   0.00089   1.92277
    A8        1.88687   0.00004  -0.00006  -0.00096  -0.00101   1.88586
    A9        1.94252  -0.00004   0.00005   0.00092   0.00097   1.94349
   A10        1.91427  -0.00033  -0.00007  -0.00301  -0.00308   1.91119
   A11        1.94233   0.00033   0.00008   0.00268   0.00276   1.94509
   A12        1.85389  -0.00006  -0.00004  -0.00076  -0.00080   1.85308
   A13        1.95017  -0.00003  -0.00000  -0.00030  -0.00030   1.94987
   A14        1.92709   0.00019  -0.00000   0.00093   0.00093   1.92802
   A15        1.93887   0.00001  -0.00001   0.00027   0.00026   1.93913
   A16        1.89555  -0.00012  -0.00000  -0.00083  -0.00083   1.89472
   A17        1.86721   0.00003   0.00003   0.00006   0.00008   1.86730
   A18        1.88245  -0.00008  -0.00000  -0.00019  -0.00019   1.88226
   A19        1.99958  -0.00056  -0.00003  -0.00172  -0.00175   1.99783
   A20        1.91175  -0.00009  -0.00002  -0.00059  -0.00061   1.91114
   A21        1.89087   0.00009   0.00000  -0.00011  -0.00011   1.89076
   A22        1.84600   0.00038   0.00002   0.00197   0.00199   1.84799
   A23        1.94208   0.00024   0.00000   0.00101   0.00101   1.94310
   A24        1.86897  -0.00005   0.00003  -0.00048  -0.00046   1.86851
   A25        1.90356   0.00012   0.00002   0.00029   0.00031   1.90388
   A26        2.00672   0.00058   0.00010   0.00122   0.00132   2.00803
   A27        1.93331  -0.00009  -0.00001  -0.00080  -0.00082   1.93249
   A28        1.92903  -0.00012  -0.00000  -0.00034  -0.00034   1.92869
   A29        1.83915  -0.00023  -0.00004  -0.00027  -0.00031   1.83885
   A30        1.85138  -0.00007  -0.00003   0.00171   0.00168   1.85306
   A31        1.89875  -0.00010  -0.00003  -0.00158  -0.00161   1.89714
    D1        1.08803   0.00026   0.00006   0.00056   0.00062   1.08866
    D2       -3.10409  -0.00009  -0.00004  -0.00317  -0.00321  -3.10730
    D3       -1.07444  -0.00017  -0.00010  -0.00415  -0.00425  -1.07869
    D4       -1.00326   0.00025   0.00007   0.00037   0.00045  -1.00282
    D5        1.08780  -0.00010  -0.00003  -0.00336  -0.00339   1.08441
    D6        3.11745  -0.00017  -0.00009  -0.00434  -0.00443   3.11302
    D7       -3.09884   0.00023   0.00008  -0.00008   0.00000  -3.09884
    D8       -1.00778  -0.00012  -0.00003  -0.00381  -0.00383  -1.01161
    D9        1.02187  -0.00020  -0.00008  -0.00479  -0.00487   1.01700
   D10       -3.06540  -0.00015   0.00005  -0.00885  -0.00880  -3.07420
   D11        1.10609  -0.00011   0.00006  -0.00824  -0.00818   1.09791
   D12       -0.98162  -0.00013   0.00007  -0.00879  -0.00872  -0.99034
   D13        1.14341  -0.00003   0.00015  -0.00636  -0.00621   1.13720
   D14       -0.96828   0.00002   0.00016  -0.00575  -0.00559  -0.97388
   D15       -3.05599  -0.00001   0.00017  -0.00630  -0.00613  -3.06213
   D16       -0.90282   0.00006   0.00020  -0.00516  -0.00497  -0.90779
   D17       -3.01451   0.00011   0.00020  -0.00455  -0.00435  -3.01886
   D18        1.18096   0.00008   0.00022  -0.00510  -0.00489   1.17608
   D19        3.13970   0.00005   0.00002   0.00625   0.00627  -3.13722
   D20        1.06911  -0.00001   0.00003   0.00528   0.00531   1.07442
   D21       -0.96399   0.00004   0.00001   0.00624   0.00625  -0.95774
   D22       -1.04765  -0.00006  -0.00003   0.00497   0.00495  -1.04270
   D23       -3.11824  -0.00012  -0.00002   0.00400   0.00399  -3.11425
   D24        1.13185  -0.00007  -0.00004   0.00497   0.00493   1.13678
   D25        1.05322   0.00012   0.00001   0.00608   0.00609   1.05931
   D26       -1.01738   0.00005   0.00002   0.00511   0.00513  -1.01224
   D27       -3.05047   0.00010  -0.00001   0.00608   0.00607  -3.04440
   D28        1.14478  -0.00003  -0.00003  -0.00885  -0.00888   1.13589
   D29       -0.93754  -0.00006  -0.00004  -0.00875  -0.00879  -0.94633
   D30       -3.04333   0.00021   0.00000  -0.00602  -0.00602  -3.04935
   D31       -1.00605  -0.00030  -0.00016  -0.01258  -0.01274  -1.01879
   D32       -3.08836  -0.00033  -0.00017  -0.01248  -0.01265  -3.10102
   D33        1.08903  -0.00006  -0.00012  -0.00975  -0.00987   1.07915
   D34       -3.08864  -0.00004  -0.00009  -0.00996  -0.01006  -3.09870
   D35        1.11223  -0.00007  -0.00011  -0.00986  -0.00997   1.10226
   D36       -0.99357   0.00020  -0.00006  -0.00713  -0.00719  -1.00076
   D37        1.19660   0.00019  -0.00011   0.00984   0.00974   1.20634
   D38       -2.97928   0.00002  -0.00014   0.00944   0.00931  -2.96997
   D39       -0.95564   0.00030  -0.00009   0.01050   0.01041  -0.94523
         Item               Value     Threshold  Converged?
 Maximum Force            0.000765     0.000015     NO 
 RMS     Force            0.000281     0.000010     NO 
 Maximum Displacement     0.032145     0.000060     NO 
 RMS     Displacement     0.006707     0.000040     NO 
 GradGradGradGradGradGradGradGradGradGradGradGradGradGradGradGradGradGrad

                    Distance matrix (angstroms):
                    1          2          3          4          5
     1  C    0.000000
     2  C    1.531779   0.000000
     3  C    2.513788   1.533870   0.000000
     4  C    2.491703   1.547103   2.516113   0.000000
     5  O    3.774483   2.481978   2.971842   1.403074   0.000000
     6  C    2.530976   1.532838   2.534086   2.462574   2.913194
     7  Br   3.397502   2.947902   3.322949   4.285478   4.741383
     8  H    1.103050   2.183732   2.789581   3.469579   4.636465
     9  H    1.104569   2.182976   2.748096   2.753627   4.068212
    10  H    1.105132   2.189389   3.486140   2.726091   4.052634
    11  H    3.488922   2.197404   1.105107   2.823305   2.724214
    12  H    2.789076   2.181942   1.105527   2.727683   3.259480
    13  H    2.747628   2.187664   1.102449   3.487743   4.010200
    14  H    2.733625   2.179647   3.474498   1.103450   2.008378
    15  H    2.662215   2.169639   2.778590   1.110448   2.082119
    16  H    4.076429   2.732854   2.687819   1.946454   0.966217
    17  H    2.743719   2.180439   3.492772   2.724593   3.296817
    18  H    3.484976   2.176274   2.802290   2.670650   2.544552
                    6          7          8          9         10
     6  C    0.000000
     7  Br   1.951287   0.000000
     8  H    2.806658   2.963107   0.000000
     9  H    3.494244   4.391257   1.785428   0.000000
    10  H    2.784357   3.775864   1.785228   1.787535   0.000000
    11  H    2.748222   3.570726   3.787790   3.788756   4.354107
    12  H    3.492302   4.363784   3.190526   2.565116   3.790228
    13  H    2.858506   2.934588   2.567246   3.056577   3.783163
    14  H    2.667042   4.542520   3.740873   3.122689   2.502436
    15  H    3.430056   5.104928   3.698664   2.453165   2.978741
    16  H    3.351941   4.979678   4.858971   4.231788   4.569328
    17  H    1.100429   2.481104   3.101631   3.762485   2.538933
    18  H    1.098555   2.491681   3.829401   4.332397   3.770595
                   11         12         13         14         15
    11  H    0.000000
    12  H    1.794764   0.000000
    13  H    1.774427   1.784541   0.000000
    14  H    3.815958   3.752740   4.334302   0.000000
    15  H    3.238012   2.530407   3.759964   1.780327   0.000000
    16  H    2.240250   2.825371   3.746935   2.820317   2.303125
    17  H    3.783466   4.336692   3.841000   2.459314   3.709025
    18  H    2.565974   3.775991   3.263992   2.969427   3.716584
                   16         17         18
    16  H    0.000000
    17  H    3.964075   0.000000
    18  H    2.926821   1.786858   0.000000
 Framework group  C1[X(C5H11BrO)]
 Deg. of freedom    48
                         Standard orientation:                         
 ---------------------------------------------------------------------
 Center     Atomic      Atomic             Coordinates (Angstroms)
 Number     Number       Type             X           Y           Z
 ---------------------------------------------------------------------
      1          6           0       -0.781646    1.851402   -0.516120
      2          6           0       -0.998480    0.428381    0.007655
      3          6           0       -0.995159    0.423225    1.541512
      4          6           0       -2.370111   -0.068308   -0.507568
      5          8           0       -2.708896   -1.367002   -0.098621
      6          6           0        0.046347   -0.539934   -0.558294
      7         35           0        1.883459   -0.191695   -0.000378
      8          1           0        0.202443    2.239907   -0.204106
      9          1           0       -1.556748    2.534560   -0.125497
     10          1           0       -0.824407    1.882302   -1.619992
     11          1           0       -1.081225   -0.601110    1.947213
     12          1           0       -1.834219    1.027984    1.931944
     13          1           0       -0.058683    0.849031    1.937864
     14          1           0       -2.362847   -0.091350   -1.610754
     15          1           0       -3.144795    0.666341   -0.202199
     16          1           0       -2.880542   -1.364115    0.852223
     17          1           0        0.062425   -0.496413   -1.657744
     18          1           0       -0.176996   -1.570375   -0.249857
 ---------------------------------------------------------------------
 Rotational constants (GHZ):           3.1035696           0.8697185           0.8072540
   138 basis functions,   274 primitive gaussians,   147 cartesian basis functions
    42 alpha electrons       42 beta electrons
       nuclear repulsion energy       532.4298123080 Hartrees.
 NAtoms=   18 NActive=   18 NUniq=   18 SFac= 1.00D+00 NAtFMM=   60 NAOKFM=F Big=F
 Nuclear repulsion after empirical dispersion term =      532.4170324863 Hartrees.
   1 Symmetry operations used in ECPInt.
 ECPInt:  NShTT=    2485 NPrTT=   10882 LenC2=    2448 LenP2D=    8430.
 LDataN:  DoStor=T MaxTD1= 4 Len=   56
 Initial guess from the checkpoint file:  "monomer.chk"
 B after Tr=     0.000000   -0.000000   -0.000000
         Rot=    0.999999    0.000779    0.001054    0.000131 Ang=   0.15 deg.
 ExpMin= 1.22D-01 ExpMax= 1.13D+05 ExpMxC= 1.70D+04 IAcc=3 IRadAn=         5 AccDes= 0.00D+00
 Harris functional with IExCor= 4639 and IRadAn=       5 diagonalized for initial guess.
 HarFok:  IExCor= 4639 AccDes= 0.00D+00 IRadAn=         5 IDoV= 1 UseB2=F ITyADJ=14
 ICtDFT=  3500011 ScaDFX=  1.000000  1.000000  1.000000  1.000000
 FoFCou: FMM=F IPFlag=           0 FMFlag=      100000 FMFlg1=           0
         NFxFlg=           0 DoJE=T BraDBF=F KetDBF=T FulRan=T
         wScrn=  0.000000 ICntrl=       500 IOpCl=  0 I1Cent=   200000004 NGrid=           0
         NMat0=    1 NMatS0=      1 NMatT0=    0 NMatD0=    1 NMtDS0=    0 NMtDT0=    0
 Petite list used in FoFCou.
     Accept linear search using points  1 and  2.
     Minimum is close to point  2 DX= -6.11D-05 DF=  0.00D+00 DXR=  6.11D-05 DFR=  0.00D+00 which will be used.
 SCF Done:  E(RwB97XD) =  -2845.97831203     a.u. after    4 cycles
            Convg  =    0.1056D-08                    27 Fock formations.
              S**2 =  0.0000                  -V/T =  2.0020
   1 Symmetry operations used in ECPInt.
 ECPInt:  NShTT=    2485 NPrTT=   10882 LenC2=    2448 LenP2D=    8430.
 LDataN:  DoStor=T MaxTD1= 5 Len=  102
 Calling FoFJK, ICntrl=      2127 FMM=F ISym2X=0 I1Cent= 0 IOpClX= 0 NMat=1 NMatS=1 NMatT=0.

 GradGradGradGradGradGradGradGradGradGradGradGradGradGradGradGradGradGrad
 Using GEDIIS/GDIIS optimizer.
 FormGI is forming the generalized inverse of G from B-inverse, IUseBI=4.
 Internal  Forces:  Max     0.000207423 RMS     0.000062391
 Step number   4 out of a maximum of   97
 All quantities printed in internal units (Hartrees-Bohrs-Radians)
 Mixed Optimization -- En-DIIS/RFO-DIIS
 Swapping is turned off.
 Trust test= 1.13D+00 RLast= 4.46D-02 DXMaxT set to 4.69D-01
 ITU=  1  1  1  0
     Eigenvalues ---    0.00244   0.00345   0.00390   0.00452   0.01127
     Eigenvalues ---    0.04561   0.04765   0.05089   0.05257   0.05375
     Eigenvalues ---    0.05461   0.05524   0.05550   0.05571   0.05720
     Eigenvalues ---    0.06033   0.11983   0.14131   0.14585   0.14755
     Eigenvalues ---    0.15583   0.15958   0.16000   0.16000   0.16000
     Eigenvalues ---    0.16000   0.16000   0.16007   0.16165   0.16432
     Eigenvalues ---    0.22438   0.24223   0.28704   0.29228   0.29683
     Eigenvalues ---    0.33017   0.33831   0.34431   0.34478   0.34857
     Eigenvalues ---    0.34919   0.34960   0.35002   0.35066   0.35210
     Eigenvalues ---    0.35575   0.44600   0.54679
 En-DIIS/RFO-DIIS/Sim-DIIS IScMMF=       -3 using points:     4    3    2
 RFO step:  Lambda=-1.32063331D-05.
 DidBck=F Rises=F RFO-DIIS coefs:    1.20037   -0.31083    0.11046
 Iteration  1 RMS(Cart)=  0.00597031 RMS(Int)=  0.00002732
 Iteration  2 RMS(Cart)=  0.00003097 RMS(Int)=  0.00000094
 Iteration  3 RMS(Cart)=  0.00000000 RMS(Int)=  0.00000094
 Variable       Old X    -DE/DX   Delta X   Delta X   Delta X     New X
                                 (Linear)    (Quad)   (Total)
    R1        2.89464   0.00006   0.00019  -0.00074  -0.00055   2.89409
    R2        2.08446  -0.00011  -0.00060   0.00000  -0.00060   2.08387
    R3        2.08733  -0.00011  -0.00051  -0.00018  -0.00069   2.08665
    R4        2.08840  -0.00007  -0.00049  -0.00000  -0.00049   2.08790
    R5        2.89859  -0.00001   0.00027  -0.00120  -0.00093   2.89766
    R6        2.92360   0.00021  -0.00076   0.00098   0.00022   2.92382
    R7        2.89664   0.00020   0.00139  -0.00094   0.00044   2.89709
    R8        2.08835  -0.00011  -0.00044  -0.00012  -0.00056   2.08779
    R9        2.08914  -0.00011  -0.00049  -0.00013  -0.00063   2.08852
   R10        2.08333  -0.00006  -0.00068   0.00015  -0.00053   2.08279
   R11        2.65143  -0.00007   0.00008  -0.00115  -0.00107   2.65036
   R12        2.08522  -0.00001  -0.00030   0.00015  -0.00015   2.08506
   R13        2.09844  -0.00005  -0.00034   0.00017  -0.00017   2.09827
   R14        1.82589  -0.00010  -0.00005  -0.00014  -0.00018   1.82570
   R15        3.68740   0.00004   0.00124  -0.00134  -0.00010   3.68730
   R16        2.07951  -0.00005  -0.00031  -0.00006  -0.00037   2.07914
   R17        2.07597  -0.00000  -0.00021   0.00008  -0.00013   2.07584
    A1        1.93560   0.00004  -0.00025   0.00055   0.00030   1.93590
    A2        1.93297   0.00003   0.00015   0.00054   0.00069   1.93367
    A3        1.94126   0.00002   0.00001   0.00032   0.00033   1.94159
    A4        1.88407  -0.00003  -0.00001  -0.00029  -0.00030   1.88377
    A5        1.88306  -0.00004   0.00019  -0.00087  -0.00068   1.88238
    A6        1.88472  -0.00003  -0.00009  -0.00032  -0.00042   1.88430
    A7        1.92277   0.00001   0.00046  -0.00003   0.00044   1.92322
    A8        1.88586  -0.00004  -0.00099   0.00063  -0.00036   1.88550
    A9        1.94349   0.00006   0.00097  -0.00026   0.00071   1.94420
   A10        1.91119   0.00004  -0.00157   0.00086  -0.00071   1.91048
   A11        1.94509  -0.00005   0.00169  -0.00149   0.00020   1.94529
   A12        1.85308  -0.00002  -0.00075   0.00039  -0.00036   1.85272
   A13        1.94987  -0.00002  -0.00009  -0.00007  -0.00016   1.94971
   A14        1.92802   0.00004   0.00015   0.00049   0.00064   1.92867
   A15        1.93913   0.00002  -0.00016   0.00058   0.00042   1.93955
   A16        1.89472  -0.00001  -0.00022  -0.00018  -0.00040   1.89432
   A17        1.86730   0.00000   0.00038  -0.00059  -0.00021   1.86709
   A18        1.88226  -0.00003  -0.00005  -0.00029  -0.00035   1.88192
   A19        1.99783   0.00007  -0.00077   0.00077   0.00001   1.99783
   A20        1.91114  -0.00005  -0.00043  -0.00022  -0.00066   1.91049
   A21        1.89076  -0.00001   0.00002  -0.00004  -0.00002   1.89074
   A22        1.84799  -0.00001   0.00069  -0.00007   0.00061   1.84860
   A23        1.94310   0.00001   0.00024   0.00079   0.00104   1.94413
   A24        1.86851  -0.00002   0.00031  -0.00140  -0.00109   1.86742
   A25        1.90388   0.00017   0.00041   0.00068   0.00108   1.90496
   A26        2.00803   0.00009   0.00166  -0.00113   0.00053   2.00856
   A27        1.93249  -0.00000  -0.00037   0.00026  -0.00011   1.93238
   A28        1.92869  -0.00000  -0.00009  -0.00031  -0.00039   1.92830
   A29        1.83885  -0.00000  -0.00056   0.00112   0.00056   1.83941
   A30        1.85306  -0.00006  -0.00005   0.00037   0.00032   1.85338
   A31        1.89714  -0.00003  -0.00071  -0.00023  -0.00094   1.89620
    D1        1.08866  -0.00002   0.00101  -0.00304  -0.00203   1.08663
    D2       -3.10730   0.00001  -0.00123  -0.00162  -0.00285  -3.11015
    D3       -1.07869  -0.00000  -0.00220  -0.00091  -0.00311  -1.08180
    D4       -1.00282  -0.00003   0.00108  -0.00339  -0.00230  -1.00512
    D5        1.08441   0.00000  -0.00116  -0.00197  -0.00313   1.08128
    D6        3.11302  -0.00001  -0.00212  -0.00126  -0.00339   3.10964
    D7       -3.09884  -0.00002   0.00109  -0.00355  -0.00246  -3.10130
    D8       -1.01161   0.00000  -0.00115  -0.00213  -0.00329  -1.01490
    D9        1.01700  -0.00000  -0.00212  -0.00143  -0.00354   1.01346
   D10       -3.07420  -0.00003  -0.00103  -0.00483  -0.00586  -3.08006
   D11        1.09791  -0.00003  -0.00079  -0.00489  -0.00568   1.09222
   D12       -0.99034  -0.00003  -0.00072  -0.00523  -0.00595  -0.99629
   D13        1.13720  -0.00001   0.00087  -0.00611  -0.00525   1.13195
   D14       -0.97388  -0.00001   0.00111  -0.00618  -0.00507  -0.97895
   D15       -3.06213  -0.00000   0.00118  -0.00651  -0.00534  -3.06746
   D16       -0.90779   0.00002   0.00176  -0.00624  -0.00448  -0.91227
   D17       -3.01886   0.00002   0.00200  -0.00631  -0.00431  -3.02317
   D18        1.17608   0.00002   0.00207  -0.00664  -0.00457   1.17150
   D19       -3.13722  -0.00004   0.00157  -0.01314  -0.01157   3.13439
   D20        1.07442  -0.00003   0.00150  -0.01339  -0.01190   1.06252
   D21       -0.95774   0.00002   0.00135  -0.01157  -0.01022  -0.96796
   D22       -1.04270  -0.00003   0.00063  -0.01229  -0.01167  -1.05436
   D23       -3.11425  -0.00003   0.00056  -0.01254  -0.01199  -3.12624
   D24        1.13678   0.00003   0.00041  -0.01072  -0.01031   1.12647
   D25        1.05931  -0.00008   0.00135  -0.01337  -0.01202   1.04729
   D26       -1.01224  -0.00008   0.00128  -0.01363  -0.01234  -1.02459
   D27       -3.04440  -0.00002   0.00113  -0.01180  -0.01067  -3.05506
   D28        1.13589   0.00005  -0.00220   0.00180  -0.00041   1.13549
   D29       -0.94633  -0.00001  -0.00235   0.00093  -0.00142  -0.94775
   D30       -3.04935   0.00003  -0.00117   0.00125   0.00008  -3.04927
   D31       -1.01879   0.00003  -0.00476   0.00311  -0.00165  -1.02044
   D32       -3.10102  -0.00002  -0.00491   0.00224  -0.00266  -3.10368
   D33        1.07915   0.00001  -0.00372   0.00256  -0.00116   1.07800
   D34       -3.09870   0.00002  -0.00333   0.00265  -0.00068  -3.09938
   D35        1.10226  -0.00003  -0.00348   0.00178  -0.00170   1.10056
   D36       -1.00076   0.00000  -0.00229   0.00210  -0.00019  -1.00095
   D37        1.20634   0.00018   0.00045   0.01521   0.01567   1.22201
   D38       -2.96997   0.00016  -0.00007   0.01535   0.01528  -2.95470
   D39       -0.94523   0.00014   0.00082   0.01404   0.01486  -0.93037
         Item               Value     Threshold  Converged?
 Maximum Force            0.000207     0.000015     NO 
 RMS     Force            0.000062     0.000010     NO 
 Maximum Displacement     0.021276     0.000060     NO 
 RMS     Displacement     0.005980     0.000040     NO 
 GradGradGradGradGradGradGradGradGradGradGradGradGradGradGradGradGradGrad

                    Distance matrix (angstroms):
                    1          2          3          4          5
     1  C    0.000000
     2  C    1.531487   0.000000
     3  C    2.513532   1.533376   0.000000
     4  C    2.491231   1.547217   2.515173   0.000000
     5  O    3.773521   2.481619   2.976838   1.402510   0.000000
     6  C    2.531539   1.533072   2.534046   2.462520   2.905954
     7  Br   3.398689   2.948530   3.324881   4.285748   4.736439
     8  H    1.102735   2.183452   2.788661   3.469114   4.635577
     9  H    1.104206   2.182947   2.749547   2.751949   4.069771
    10  H    1.104870   2.189170   3.485720   2.727218   4.049676
    11  H    3.488413   2.196629   1.104812   2.819387   2.726348
    12  H    2.786646   2.181725   1.105196   2.729273   3.272040
    13  H    2.750446   2.187321   1.102167   3.487138   4.012470
    14  H    2.726760   2.179204   3.473405   1.103369   2.008293
    15  H    2.666514   2.169657   2.772437   1.110358   2.082280
    16  H    4.083962   2.740113   2.702302   1.946598   0.966121
    17  H    2.744988   2.180417   3.492427   2.723435   3.284650
    18  H    3.485068   2.176145   2.801500   2.670229   2.535979
                    6          7          8          9         10
     6  C    0.000000
     7  Br   1.951233   0.000000
     8  H    2.808866   2.966597   0.000000
     9  H    3.494634   4.393565   1.784686   0.000000
    10  H    2.783611   3.773937   1.784321   1.786758   0.000000
    11  H    2.749769   3.576683   3.788439   3.788457   4.353290
    12  H    3.492506   4.364115   3.185326   2.564339   3.789016
    13  H    2.856494   2.934418   2.569589   3.062979   3.784582
    14  H    2.672290   4.545959   3.736026   3.111028   2.496429
    15  H    3.430449   5.105623   3.700990   2.456138   2.988360
    16  H    3.352172   4.984407   4.867679   4.241702   4.573791
    17  H    1.100233   2.481395   3.105602   3.762506   2.539015
    18  H    1.098485   2.491847   3.830968   4.332237   3.770031
                   11         12         13         14         15
    11  H    0.000000
    12  H    1.793997   0.000000
    13  H    1.773823   1.783821   0.000000
    14  H    3.815682   3.750863   4.333325   0.000000
    15  H    3.225658   2.525619   3.756761   1.779469   0.000000
    16  H    2.249361   2.847597   3.759419   2.819630   2.299366
    17  H    3.783698   4.336521   3.840057   2.463583   3.711380
    18  H    2.566655   3.776576   3.259971   2.977959   3.714026
                   16         17         18
    16  H    0.000000
    17  H    3.958956   0.000000
    18  H    2.922918   1.786041   0.000000
 Framework group  C1[X(C5H11BrO)]
 Deg. of freedom    48
                         Standard orientation:                         
 ---------------------------------------------------------------------
 Center     Atomic      Atomic             Coordinates (Angstroms)
 Number     Number       Type             X           Y           Z
 ---------------------------------------------------------------------
[...]
 5649,-0.7294553,-0.2339473,0.0081714,-0.2606988,-0.8492217,0.1758383,0
 .0285794,0.2232418,-0.3241601,0.7555094,-0.0097459,0.0953912,0.0387643
 ,-0.0045244,0.0262825,0.1491483,0.0181034,0.0572341,-0.5078237,0.01373
 12,-0.0396063,-0.0192631,-0.1424921,-0.0099828,-0.0707095,-0.0044234,-
 0.1432917,-0.0425329,-0.0851692,-0.0296304,-0.0475613,0.0598206,0.0097
 295,-0.0529733,-0.0059706,0.0539316,-0.034112,0.1205134,0.0494797,0.07
 28559,-0.0252173,-0.0129271,0.0646241,-0.0450075,0.0420951,0.0776305,0
 .0016038,-0.0138801,-0.0096745,0.0368876,-0.0252427,-0.0084663,0.03955
 76,-0.1398778,0.0765241,-0.024256,0.0307659,-0.0264748,-0.1057388,0.09
 78092,0.0156358,0.0452622,0.0095181,-0.0549679,0.1012029,0.0892197,0.0
 941208,0.0083959,-0.0485644,0.0376148,-0.0176438,0.0213728,-0.0277662,
 -0.0593472,-0.0715917,-0.0656319,0.0628702,-0.0119095,-0.032275,0.0025
 808,0.0496306,0.048353,-0.0224648,0.0198751,-0.0305744,0.0202684,-0.01
 54957,-0.0196126,0.0151448,-0.1437544,-0.1420477,0.0781132,0.0261211,0
 .0740311,-0.1213956,-0.0014623,0.0673416,-0.056527,0.0240778,0.4120298
 ,0.0612053,-0.007674,0.0568194,0.2653061,-0.0689137,0.0057974,-0.03836
 ,0.1470968,-0.0739068,0.0020761,-0.0478659,-0.0109165,0.078707,0.00922
 78,-0.0278835,-0.025156,-0.0762326,-0.0315404,-0.0317741,-0.0188897,-0
 .0067203,-0.0134239,0.0125861,-0.0314906,0.0362283,0.063237\Polar=83.4
 300259,-1.0325566,64.9013989,1.0519114,-0.5828929,65.285116\Quadrupole
 =-1.0912652,-1.070459,2.1617241,-1.8185248,-2.4024566,-1.1885891\PG=C0
 1 [X(C5H11Br1O1)]\NImag=0\\0.59145312,-0.01091021,0.50228919,0.0052054
 5,0.03678740,0.57605954,-0.08449984,-0.01640985,0.00659234,0.47952053,
 -0.01697777,-0.17774703,0.03852394,-0.00619110,0.52997722,0.00683734,0
 .03812143,-0.09651977,-0.00233799,-0.00278360,0.52575068,0.00005837,-0
 .00053836,0.00586083,-0.08107390,0.00071034,-0.00307725,0.59274968,0.0
 0121203,-0.00189102,0.03416591,0.00054546,-0.08199869,-0.00221213,-0.0
 0157580,0.58921364,-0.00057711,0.00591208,-0.01884126,-0.00239505,-0.0
 0013577,-0.19271939,0.00358786,-0.00246620,0.48318457,-0.00470135,-0.0
 0884841,0.00189054,-0.15250179,-0.01286028,-0.03231416,-0.00387225,-0.
 00155629,-0.00895124,0.49714209,-0.02919603,-0.01820202,-0.00582934,-0
 .00892858,-0.07655717,-0.00904242,-0.00210682,0.00004310,-0.00596210,-
 0.05234401,0.54041519,0.01219478,0.00442003,0.00345632,-0.02585380,-0.
 00729510,-0.09392512,-0.03503226,-0.01298173,-0.01759497,-0.03817498,0
 .01274116,0.64090135,-0.00708717,-0.00084890,-0.00303905,-0.00517817,-
 0.03542426,0.01277858,0.00073595,0.00168054,0.00070907,-0.07741210,-0.
 04393460,0.01551302,0.10013535,-0.00604518,0.00073718,-0.00320581,-0.0
 1350276,-0.02609403,0.00886569,0.00148603,0.00049318,0.00344751,-0.033
 66603,-0.24242190,0.02363126,0.07322204,0.35886201,-0.00117864,-0.0007
 4478,0.00054400,0.00235383,-0.00384192,0.00423879,-0.00052682,0.000266
 14,-0.00126629,0.02427749,0.06898751,-0.11808009,-0.12053246,-0.051575
 39,0.59761413,0.00325237,0.00142519,-0.00392030,-0.10755761,0.04721519
 ,0.02995690,-0.00153198,0.00010506,0.00595278,-0.03611890,0.01402580,0
 .00611207,0.00063885,0.00291405,-0.00022389,0.33258066,0.02470994,-0.0
 2759067,-0.01041950,0.04743385,-0.13092733,-0.02566849,0.00158934,-0.0
 0116037,-0.00392128,0.00071821,0.01003894,0.00328659,0.00026018,-0.002
 89299,0.00126550,0.00785008,0.53598734,-0.00807751,0.00631964,0.004194
 13,0.03176056,-0.02708820,-0.09803079,0.02677483,-0.02310317,-0.017876
 06,-0.00381630,0.00622795,0.00267300,0.00047381,-0.00100589,0.00091002
 ,-0.03707464,-0.05272894,0.56195955,-0.00000664,-0.00037928,0.00048237
 ,-0.02894829,-0.00664168,-0.00888230,-0.00029035,0.00084395,-0.0003081
 2,-0.00108106,0.00694223,0.00377698,-0.00013648,-0.00082621,0.00025430
 ,-0.09997686,-0.02050325,-0.02485784,0.16854033,0.00189619,-0.00134305
 ,0.00004606,0.00943356,0.00371962,0.00438363,0.00049673,0.00001126,-0.
 00062318,0.00140768,-0.00267549,-0.00066166,-0.00069279,0.00118559,-0.
 00013376,-0.01793440,-0.03297899,-0.00517170,0.02383710,0.02829193,-0.
 00045765,0.00004584,0.00050245,0.00230638,0.00199314,0.00106268,0.0022
 7835,-0.00115137,-0.00106875,0.00076517,0.00010793,-0.00000156,-0.0000
 6675,-0.00019863,0.00022123,-0.02341121,-0.00554610,-0.03710084,0.0387
 7944,0.01040757,0.03361319,-0.27082419,-0.08438698,-0.06555831,-0.0029
 7734,-0.00126622,-0.00081870,0.00027058,0.00037921,-0.00021505,0.00068
 284,-0.00055866,0.00093143,-0.00012283,-0.00034206,-0.00010172,-0.0000
 7283,0.00018944,0.00022519,-0.00021593,0.00104831,-0.00003641,0.286827
 08,-0.08258497,-0.07722077,-0.02444640,-0.02851144,-0.01043778,-0.0088
 4492,-0.00000063,0.00094458,-0.00133022,0.00268546,-0.00434835,0.00295
 329,-0.00240793,-0.00184566,-0.00002907,-0.00209873,0.00063561,-0.0006
 5062,0.00101585,0.00049803,0.00010877,0.09188093,0.08362369,-0.0659063
 0,-0.02529739,-0.06813474,0.01218099,0.00348036,0.00232785,0.00125861,
 0.00013085,0.00091668,-0.00040027,0.00152930,-0.00142190,0.00080355,0.
 00102648,0.00068443,-0.00035235,-0.00062256,0.00015538,-0.00010953,0.0
 0015625,-0.00006670,0.07028953,0.02449041,0.06795820,-0.17610223,0.116
 84757,0.06628241,0.00335127,-0.00410482,-0.00230021,0.00023923,-0.0001
 8441,-0.00003819,0.00035603,-0.00158641,-0.00028708,0.00025807,0.00034
 363,-0.00024511,-0.00032457,-0.00098659,-0.00007107,0.00024040,0.00051
 206,-0.00003261,-0.01571561,0.01836395,0.01135119,0.18497661,0.1151791
 8,-0.15268612,-0.05950483,0.02112591,-0.01787485,-0.01204886,0.0004490
 9,0.00096126,-0.00131751,0.00228399,-0.00014159,-0.00054900,-0.0005202
 2,0.00092632,0.00015231,-0.00293896,-0.00564447,0.00305382,-0.00015570
 ,0.00046865,0.00003814,-0.00782859,0.00800052,0.00538520,-0.12532228,0
 .16623779,0.06661654,-0.06105252,-0.08392522,-0.00932577,0.00724776,0.
 00336497,-0.00089026,0.00067436,0.00077677,0.00011666,-0.00038384,0.00
 005258,-0.00027997,0.00010112,-0.00013089,0.00045407,0.00191251,-0.000
 73176,0.00010477,0.00009644,0.00000682,-0.00613080,0.00692202,0.003171
 17,-0.07280023,0.06337872,0.08426685,-0.05026755,0.00008630,-0.0156917
 3,-0.00140632,0.00065790,0.00506369,-0.00001640,-0.00095544,0.00014517
 ,0.00014025,-0.00037799,0.00148549,-0.00000887,0.00042423,-0.00035904,
 0.00026741,0.00020951,-0.00091454,-0.00021523,0.00001588,0.00013129,0.
 00151835,0.00082464,-0.02868095,0.00261889,-0.00165136,0.02222885,0.04
 660025,0.00032108,-0.04915866,-0.00284909,0.00223203,0.00129342,0.0304
 4164,-0.00099483,-0.00582607,0.00112804,0.00050967,0.00059380,0.001486
 17,0.00025655,0.00035060,-0.00056820,-0.00003887,0.00149961,0.00137680
 ,-0.00013714,0.00000337,-0.00010214,0.00095515,-0.00057888,-0.01042072
 ,-0.00339651,0.00049251,-0.01940856,0.00101795,0.05188839,-0.01520214,
 -0.00086479,-0.31305025,-0.00036891,-0.00129699,-0.01119769,0.00043670
 ,0.00354728,0.00024261,-0.00086325,-0.00096052,-0.00022638,0.00018360,
 0.00017527,0.00061556,0.00027034,-0.00101547,0.00050829,-0.00017086,0.
 00017952,-0.00000704,0.00113603,0.00022426,-0.00552584,-0.00176263,0.0
 0083259,-0.00782161,0.01633479,-0.00135145,0.33555075,0.00012122,-0.00
 001002,0.00032007,-0.00154480,0.00089084,0.00046841,-0.05152795,-0.022
 05803,0.00987196,-0.00001728,0.00123042,-0.00043672,-0.00054608,-0.000
 63264,0.00018769,0.00046514,-0.00083211,0.00053112,-0.00025153,0.00011
 429,-0.00019387,0.00021529,0.00028460,-0.00016238,0.00008103,-0.000314
 04,-0.00001448,0.00049282,-0.00019415,-0.00004588,0.04988587,0.0000491
 4,0.00086016,0.00057495,0.00093665,0.00168900,-0.00076808,-0.02285232,
 -0.27485503,0.09188741,-0.00106625,-0.00152751,0.00083894,-0.00097992,
 0.00053291,-0.00163163,0.00066756,0.00083706,-0.00051627,-0.00032393,0
 .00007491,0.00007566,0.00011559,0.00008971,-0.00021148,-0.00012646,0.0
 0025785,-0.00020337,-0.00014599,0.00001885,0.00004141,0.02635545,0.293
 09308,-0.00074631,-0.00184549,-0.00687909,0.00377947,0.03075955,-0.009
 58367,0.01046802,0.09029916,-0.08500384,0.00105463,0.00243947,-0.00006
 170,0.00033950,-0.00161070,0.00173825,-0.00011534,0.00143661,0.0012694
 9,0.00011446,-0.00006021,-0.00010590,0.00006455,-0.00020565,0.00009436
 ,-0.00020236,-0.00011525,0.00012883,0.00028545,0.00194277,-0.00087292,
 -0.01034278,-0.09974948,0.09197489,-0.00005073,0.00009223,-0.00018125,
 0.00038928,-0.00127883,-0.00175672,-0.19374426,0.11230595,0.06919303,0
 .00061840,-0.00119139,-0.00098298,0.00023781,0.00037908,-0.00005585,-0
 .00000731,-0.00051180,-0.00065319,0.00010232,0.00018274,0.00067584,-0.
 00010274,0.00014092,0.00005079,0.00020991,-0.00035225,0.00032558,0.000
 12704,-0.00026231,-0.00005177,0.00420424,-0.00369796,-0.00275007,0.203
 96783,-0.00077378,0.00058575,0.00062167,-0.00043135,-0.00166619,-0.000
 22877,0.11245708,-0.13703828,-0.05245497,0.00104294,0.00022869,-0.0000
 7729,-0.00076121,-0.00015947,0.00015815,-0.00053065,0.00057588,-0.0006
 3039,-0.00006439,0.00013789,0.00021934,-0.00007544,-0.00002892,0.00000
 759,0.00011747,0.00012620,0.00027702,-0.00007615,0.00004162,-0.0001241
 4,0.02155097,-0.01278389,-0.01106781,-0.12291462,0.14166188,0.00048273
 ,-0.00122731,0.00103656,0.02454475,-0.01957327,-0.01078997,0.06748324,
 -0.05119213,-0.07960554,0.00201411,-0.00078565,0.00130952,-0.00038590,
 0.00008858,0.00004015,-0.00156275,0.00099480,-0.00711770,-0.00032917,0
 .00024770,0.00045578,-0.00003947,0.00004107,-0.00002609,-0.00024316,0.
 00086053,-0.00023556,-0.00032784,0.00001785,0.00028535,-0.01056969,0.0
 0586217,0.00425419,-0.07420927,0.05807442,0.08742135,0.00053744,0.0000
 4769,0.00044395,0.00056691,0.00050883,-0.00020242,-0.25545183,-0.09026
 158,-0.07861091,0.00067464,0.00029586,-0.00023848,0.00018168,0.0000757
 5,0.00010459,0.00000758,0.00026402,-0.00023356,-0.00147324,0.00095826,
 0.00182479,0.00019102,0.00018516,-0.00022176,-0.00017585,-0.00001961,-
 0.00011586,0.00015269,0.00010070,0.00007490,-0.00008234,0.00091045,0.0
 0004257,-0.01633339,-0.00940110,-0.00714447,0.27098698,0.00103423,0.00
 042118,0.00064654,0.00073290,-0.00094082,0.00058002,-0.08933509,-0.086
 52939,-0.03383977,0.00019002,-0.00075082,0.00093047,-0.00041489,0.0005
 3779,-0.00087408,-0.00112903,-0.00030654,-0.00050592,0.00048401,-0.000
 05448,0.00016104,-0.00021120,0.00024168,0.00028441,0.00015534,-0.00002
 368,-0.00004716,0.00002330,-0.00010473,-0.00016101,-0.02552222,-0.0091
 4162,-0.01023189,0.01682622,0.00830076,0.00735839,0.09639742,0.0877247
 3,-0.00080367,-0.00104639,0.00150031,-0.02940195,-0.01207699,-0.010087
 02,-0.07671855,-0.03279284,-0.07532061,0.00225865,0.00092838,-0.007438
 19,0.00021988,-0.00027689,0.00098496,-0.00190299,0.00007016,0.00048692
 ,0.00130215,-0.00004257,0.00018614,0.00045874,0.00071923,-0.00033837,0
 .00006028,0.00008345,-0.00003730,0.00028784,-0.00017116,0.00030754,0.0
 1159736,0.00395517,0.00381297,0.01017350,0.00562425,0.00350691,0.08419
 865,0.03555502,0.08308320,0.00079764,0.00116926,-0.00078496,-0.0015943
 2,-0.00244477,-0.02955302,-0.00536378,-0.00200384,-0.00042870,-0.05171
 804,0.00251420,-0.00521667,0.00006829,-0.00375038,0.01192039,0.0001521
 2,-0.00052889,-0.00209713,0.00080076,0.00004362,0.00035960,0.00003808,
 0.00020699,0.00023059,-0.00006248,-0.00008509,0.00012839,-0.00007294,-
 0.00048813,0.00055913,0.00010922,0.00022172,0.00008207,0.00012840,-0.0
 0021494,-0.00001511,0.00003405,-0.00000083,-0.00184066,0.05493313,0.00
 002421,0.00034595,-0.00119438,0.00100039,0.00031700,-0.00786987,-0.002
 49239,-0.00071984,-0.00067787,0.00336845,-0.05119938,-0.02873866,-0.00
 555354,-0.00751507,0.04240613,0.00064777,0.00006772,0.00061134,-0.0000
 5839,-0.00008256,0.00001086,0.00010079,0.00002032,0.00019240,0.0000031
 1,0.00003395,-0.00005326,-0.00060260,-0.00034014,0.00032779,-0.0000988
 7,0.00012728,-0.00004548,-0.00008228,0.00013680,0.00046264,-0.00017151
 ,0.00030189,-0.00070836,0.00578702,0.06300163,0.00043462,0.00041514,0.
 00040698,0.00015945,-0.00095554,-0.01062101,-0.00259036,-0.00088268,0.
 00055770,-0.00414224,-0.01690256,-0.31328183,0.00352647,0.00695028,-0.
 01108941,0.00126135,-0.00032651,0.00026442,0.00017143,0.00001437,0.000
 36239,-0.00008806,-0.00006565,0.00035560,-0.00008715,0.00005815,-0.000
 00765,-0.00016873,-0.00053151,0.00052655,0.00010725,0.00001707,0.00009
 235,0.00005220,0.00009386,0.00030121,-0.00006680,0.00006444,-0.0006581
 1,0.00370668,0.01051872,0.33731018,0.00044530,0.00169594,0.00019631,-0
 .02321993,0.01857959,0.01029963,0.00117108,0.00069155,0.00165139,-0.17
 161539,0.11159366,0.05472885,0.01214747,-0.01010562,-0.00479322,-0.002
 71819,-0.00310447,-0.00252024,-0.00221169,0.00051010,-0.00010743,0.000
 36087,-0.00013825,-0.00021624,0.00000862,-0.00131819,-0.00015272,-0.00
 003489,-0.00007478,-0.00001066,-0.00000629,-0.00004603,-0.00007313,0.0
 0024598,-0.00045243,-0.00110855,0.00026927,-0.00023827,0.00011360,0.00
 184504,-0.00140962,-0.00082515,0.18203621,-0.00122118,0.00098894,0.000
 07247,-0.00561170,0.00479604,0.00077072,-0.00014748,0.00007451,0.00030
 519,0.10969277,-0.14771750,-0.04701837,0.01573517,-0.03938265,-0.00094
 149,-0.00102352,-0.00040959,-0.00028856,-0.00088004,0.00036526,-0.0000
 1102,0.00009927,0.00025679,0.00010699,-0.00032730,-0.00010787,-0.00019
 158,0.00013631,0.00001461,0.00006846,-0.00012147,0.00009073,-0.0002760
 4,0.00017730,0.00009820,0.00032503,-0.00006803,0.00015602,0.00015779,0
 .00121059,0.00122820,-0.00084601,-0.11694121,0.17855666,0.00045110,0.0
 0037551,0.00012922,-0.01041891,0.00522987,0.00284838,-0.00089650,0.001
 04031,0.00113777,0.05580270,-0.05105765,-0.08108534,-0.00804004,0.0142
 1183,0.00672155,-0.00064364,-0.00101488,-0.00074089,-0.00039919,0.0002
 1186,0.00036330,-0.00000057,0.00016855,-0.00017361,0.00026073,0.000081
 62,0.00023305,0.00004052,-0.00019426,-0.00005439,0.00000466,0.00003496
 ,-0.00009997,0.00000414,-0.00022105,-0.00017452,0.00017438,-0.00000747
 ,0.00014332,0.02170802,-0.01932385,-0.00634359,-0.05632274,0.04973072,
 0.07507964,-0.00000662,-0.00036338,-0.00044771,-0.00005165,0.00014957,
 0.00244454,0.00045312,-0.00208819,0.00051352,-0.00246252,0.00121202,0.
 01050381,-0.02253198,-0.00863418,0.08882094,-0.00088545,-0.00014677,-0
 .00015231,0.00017148,0.00004886,-0.00007801,-0.00000240,0.00001752,-0.
 00009324,-0.00001909,0.00013737,0.00007502,0.00000684,0.00020462,-0.00
 023521,-0.00173500,0.00020952,-0.00211736,-0.00015038,0.00029975,0.000
 06001,0.00001244,0.00090113,-0.00018055,0.00076370,-0.00044878,-0.0010
 4251,0.00094057,-0.00024416,-0.00158930,0.02553216,0.00020793,-0.00001
 333,-0.00003360,-0.00062191,0.00005678,0.00075897,-0.00014688,0.000262
 36,-0.00013841,-0.00984051,-0.00429838,0.04654450,0.00306682,-0.044725
 49,-0.05230679,-0.00002733,0.00013802,0.00005976,0.00024468,-0.0000383
 6,-0.00002610,0.00003727,0.00003480,-0.00016818,0.00003078,-0.00013608
 ,0.00001955,0.00005337,0.00011636,-0.00020385,-0.00086541,0.00031081,-
 0.00062764,0.00007247,-0.00072774,-0.00028495,0.00028357,0.00008684,-0
 .00021563,-0.00196545,-0.00598436,0.00209211,0.00102026,0.00092542,0.0
 0052124,0.00847026,0.05402151,-0.00058646,-0.00013358,-0.00058555,-0.0
 0034432,-0.00134332,0.00105101,0.00011941,-0.00031879,0.00067865,0.001
 58932,-0.00302643,-0.01574078,0.09720319,-0.00060112,-0.48334401,0.000
 10000,-0.00001671,-0.00027709,-0.00024178,0.00001358,-0.00005496,-0.00
 010893,-0.00020688,0.00015836,0.00005026,0.00005546,0.00003681,0.00004
 187,0.00007464,0.00003666,-0.00148708,-0.00038510,-0.00048956,0.000201
 21,-0.00037187,-0.00003145,0.00007018,0.00007815,-0.00016715,0.0005324
 3,0.00391413,0.00136674,-0.00074898,-0.00188245,0.00164678,-0.09672870
 ,0.00424052,0.49569757,0.00022604,-0.00081123,0.00010129,0.00072735,-0
 .00088044,0.02002597,-0.00301221,0.00305897,0.00073953,0.00102717,0.00
 043420,0.00214742,-0.00029538,-0.00015099,-0.00055379,-0.03805449,0.00
 121947,-0.00204767,-0.01628723,-0.00220275,-0.02440809,-0.00004494,0.0
 0012935,-0.00009005,-0.00004656,-0.00013759,-0.00003896,0.00013017,0.0
 0025676,-0.00034882,-0.00001652,-0.00002061,-0.00032944,0.00018693,0.0
 0027549,0.00140269,-0.00005086,0.00014343,0.00010679,-0.00083346,0.000
 14507,-0.00046426,0.00011579,-0.00002118,-0.00018556,0.00023873,0.0000
 7566,-0.00000924,0.05405041,-0.00058419,0.00099782,-0.00151347,0.00006
 001,0.00047224,-0.02222321,0.00353505,-0.00262880,-0.00063792,-0.00080
 774,0.00054608,-0.00001487,-0.00045260,-0.00010574,-0.00029390,0.00275
 295,-0.05178069,0.00991589,-0.00350310,0.00053356,-0.00578247,-0.00003
 335,-0.00010569,-0.00000957,-0.00009578,0.00026607,0.00028132,0.000359
 21,-0.00051558,0.00054310,0.00008352,0.00018705,-0.00012094,0.00004782
 ,0.00018174,-0.00136385,-0.00015163,0.00005395,0.00022952,0.00019373,0
 .00025633,0.00035880,-0.00024093,-0.00004281,0.00014992,0.00017515,-0.
 00014979,-0.00003843,-0.00273996,0.04900397,-0.00056450,0.00084309,0.0
 0082212,-0.00027394,0.00162835,-0.01146854,0.00222598,-0.00184819,0.00
 062937,-0.00101506,0.00025713,0.00003296,0.00046252,-0.00000858,0.0002
 3014,0.00301062,0.00951254,-0.33013069,-0.00203708,-0.00029368,-0.0002
 5535,0.00004541,-0.00001842,-0.00003000,0.00003425,0.00012286,0.000276
 60,0.00000187,-0.00066332,0.00037828,-0.00007767,0.00005340,0.00026028
 ,-0.00000739,-0.00016703,-0.00072533,-0.00009956,0.00002902,0.00009525
 ,0.00059919,0.00012535,0.00052404,-0.00004062,-0.00000714,0.00045294,-
 0.00024510,-0.00003818,0.00000723,-0.00236719,-0.00798998,0.34492803,-
 0.00334520,0.00214244,0.00224776,0.00599861,0.01935790,-0.00663228,0.0
 0020690,-0.00013912,-0.00083992,0.00085928,0.00197610,-0.00117089,-0.0
 0108442,-0.00118876,0.00065131,-0.05011594,-0.05783017,0.02275050,-0.0
 1876075,-0.01967543,0.00167118,-0.00002529,0.00000655,0.00006782,0.000
 10633,0.00146832,-0.00030083,-0.00003251,-0.00026778,0.00006464,0.0001
 5297,-0.00020659,0.00044607,-0.00002934,-0.00004764,-0.00005214,-0.000
 04720,-0.00003646,0.00007095,-0.00002542,-0.00015882,0.00005580,0.0002
 2017,-0.00044416,0.00005021,-0.00027394,-0.00009559,0.00034763,0.00193
 905,0.00140185,0.00034828,0.06425670,0.00365939,-0.00137348,-0.0024425
 1,-0.00329206,-0.01807745,0.00776825,-0.00053307,0.00064360,0.00082499
 ,-0.00090967,-0.00202569,0.00050427,-0.00223043,0.00151742,-0.00029473
 ,-0.05188216,-0.29608855,0.08412445,0.00010528,0.00188287,-0.00035046,
 -0.00010346,0.00022033,-0.00006032,-0.00024337,-0.00115646,0.00042946,
 0.00000093,0.00021093,0.00003855,0.00013888,0.00013864,-0.00092100,0.0
 0006671,0.00032908,0.00009396,0.00004576,0.00002723,0.00000786,0.00013
 518,0.00000427,-0.00007248,-0.00002130,0.00010905,0.00006278,0.0000996
 7,0.00012065,-0.00005181,0.00122635,0.00283029,-0.00153721,0.05373738,
 0.31068728,0.00187773,-0.00102791,-0.00071577,-0.00295713,-0.01247225,
 0.00429860,-0.00076183,-0.00117478,0.00117258,-0.00009178,0.00073167,0
 .00043213,0.00013101,-0.00001501,-0.00063251,0.02208898,0.08280173,-0.
 08041538,-0.00765004,-0.00877022,0.00188711,-0.00005286,0.00017025,-0.
 00010478,0.00003069,-0.00056740,0.00057552,0.00009600,-0.00020749,0.00
 030454,0.00024204,0.00012427,-0.00052895,-0.00002780,0.00026703,0.0000
 9514,-0.00000018,-0.00002020,-0.00006077,0.00010977,0.00004238,-0.0000
 6655,-0.00007009,-0.00007472,-0.00008364,0.00049215,-0.00019332,0.0000
 1075,0.00631939,0.02851006,-0.00602733,-0.01977607,-0.08812407,0.07985
 929\\-0.00000092,-0.00000048,-0.00000091,-0.00000015,-0.00000159,-0.00
 000075,0.00000080,0.00000196,-0.00000001,0.00000129,0.00000245,0.00000
 136,-0.00000043,-0.00000307,0.00000232,-0.00000123,0.00000056,0.000000
 06,0.00000063,0.00000111,-0.00000174,-0.00000075,0.00000022,-0.0000024
 8,-0.00000079,-0.00000051,-0.00000156,-0.00000166,-0.00000131,-0.00000
 135,0.00000181,0.00000166,0.00000066,0.00000105,0.00000118,-0.00000022
 ,0.00000089,0.00000170,-0.00000127,-0.00000115,-0.00000207,0.00000142,
 -0.00000050,-0.00000121,0.00000083,0.00000118,0.00000027,0.00000274,-0
 .00000057,-0.00000106,0.,0.00000051,0.00000021,0.00000090\\\@


 A leading authority is anyone who has guessed right more than once.
 -- Frank A. Clark
 File lengths (MBytes):  RWF=     53 Int=      0 D2E=      0 Chk=      3 Scr=      1
 Normal termination of Gaussian 16 at Fri Mar 29 15:41:17 2024.
real 429.09
user 1626.97
sys 11.38
