 Entering Gaussian System, Link 0=g16
 Input=gaussian_test.inp
 Output=gaussian_test.log
 Initial command:
 /sw/restricted/lms/sw/Gaussian/g16_B01/g16/l1.exe "/scratch/user/peterchao1/peterchao1/9993835_1712001998000000594581148/Gau-127013.inp" -scrdir="/scratch/user/peterchao1/peterchao1/9993835_1712001998000000594581148/"
 Entering Link 1 = /sw/restricted/lms/sw/Gaussian/g16_B01/g16/l1.exe PID=    127014.
  
 Copyright (c) 1988-2017, Gaussian, Inc.  All Rights Reserved.
  
 This is part of the Gaussian(R) 16 program.  It is based on
 the Gaussian(R) 09 system (copyright 2009, Gaussian, Inc.),
 the Gaussian(R) 03 system (copyright 2003, Gaussian, Inc.),
 the Gaussian(R) 98 system (copyright 1998, Gaussian, Inc.),
 the Gaussian(R) 94 system (copyright 1995, Gaussian, Inc.),
 the Gaussian 92(TM) system (copyright 1992, Gaussian, Inc.),
 the Gaussian 90(TM) system (copyright 1990, Gaussian, Inc.),
 the Gaussian 88(TM) system (copyright 1988, Gaussian, Inc.),
 the Gaussian 86(TM) system (copyright 1986, Carnegie Mellon
 University), and the Gaussian 82(TM) system (copyright 1983,
 Carnegie Mellon University). Gaussian is a federally registered
 trademark of Gaussian, Inc.
  
 This software contains proprietary and confidential information,
 including trade secrets, belonging to Gaussian, Inc.
  
 This software is provided under written license and may be
 used, copied, transmitted, or stored only in accord with that
 written license.
  
 The following legend is applicable only to US Government
 contracts under FAR:
  
                    RESTRICTED RIGHTS LEGEND
  
 Use, reproduction and disclosure by the US Government is
 subject to restrictions as set forth in subparagraphs (a)
 and (c) of the Commercial Computer Software - Restricted
 Rights clause in FAR 52.227-19.
  
 Gaussian, Inc.
 340 Quinnipiac St., Bldg. 40, Wallingford CT 06492
  
  
 ---------------------------------------------------------------
 Warning -- This program may not be used in any manner that
 competes with the business of Gaussian, Inc. or will provide
 assistance to any competitor of Gaussian, Inc.  The licensee
 of this program is prohibited from giving any competitor of
 Gaussian, Inc. access to this program.  By using this program,
 the user acknowledges that Gaussian, Inc. is engaged in the
 business of creating and licensing software in the field of
 computational chemistry and represents and warrants to the
 licensee that it is not a competitor of Gaussian, Inc. and that
 it will not use this program in any manner prohibited above.
 ---------------------------------------------------------------
  

 Cite this work as:
 Gaussian 16, Revision B.01,
 M. J. Frisch, G. W. Trucks, H. B. Schlegel, G. E. Scuseria, 
 M. A. Robb, J. R. Cheeseman, G. Scalmani, V. Barone, 
 G. A. Petersson, H. Nakatsuji, X. Li, M. Caricato, A. V. Marenich, 
 J. Bloino, B. G. Janesko, R. Gomperts, B. Mennucci, H. P. Hratchian, 
 J. V. Ortiz, A. F. Izmaylov, J. L. Sonnenberg, D. Williams-Young, 
 F. Ding, F. Lipparini, F. Egidi, J. Goings, B. Peng, A. Petrone, 
 T. Henderson, D. Ranasinghe, V. G. Zakrzewski, J. Gao, N. Rega, 
 G. Zheng, W. Liang, M. Hada, M. Ehara, K. Toyota, R. Fukuda, 
 J. Hasegawa, M. Ishida, T. Nakajima, Y. Honda, O. Kitao, H. Nakai, 
 T. Vreven, K. Throssell, J. A. Montgomery, Jr., J. E. Peralta, 
 F. Ogliaro, M. J. Bearpark, J. J. Heyd, E. N. Brothers, K. N. Kudin, 
 V. N. Staroverov, T. A. Keith, R. Kobayashi, J. Normand, 
 K. Raghavachari, A. P. Rendell, J. C. Burant, S. S. Iyengar, 
 J. Tomasi, M. Cossi, J. M. Millam, M. Klene, C. Adamo, R. Cammi, 
 J. W. Ochterski, R. L. Martin, K. Morokuma, O. Farkas, 
 J. B. Foresman, and D. J. Fox, Gaussian, Inc., Wallingford CT, 2016.
 
 ******************************************
 Gaussian 16:  ES64L-G16RevB.01 20-Dec-2017
                 1-Apr-2024 
 ******************************************
 %nprocshared=4
 Will use up to    4 processors via shared memory.
 %mem=8000mb
 %chk=dimer.chk
 %nprocshared=4
 Will use up to    4 processors via shared memory.
 %mem=8000mb
 ----------------------------------------------------------------------
 #T wB97XD/def2svpp opt=tight freq int(grid=ultrafine) scf=(verytight,q
 c) Volume=tight
 ----------------------------------------------------------------------
 -----
 Dimer
 -----
 Symbolic Z-matrix:
 Charge =  0 Multiplicity = 1
 C                    -3.91681   0.91369  -0.94007 
 C                    -3.40699   0.21251   0.32357 
 C                    -4.03037  -1.172     0.47366 
 C                    -1.89999   0.10501   0.20411 
 O                    -1.2616    1.04352   0.85297 
 O                    -1.34727  -0.75545  -0.45689 
 H                    -3.66093   0.32751  -1.81994 
 H                    -3.47336   1.90225  -1.03568 
 H                    -4.99768   1.02021  -0.89298 
 H                    -3.63042   0.8325    1.19588 
 H                    -3.72659  -1.8048   -0.35659 
 H                    -5.11453  -1.09547   0.48189 
 H                    -3.70667  -1.64039   1.40025 
 H                    -0.26195   0.98525   0.73793 
 C                     4.03261   1.17572  -0.45702 
 C                     3.40703  -0.20959  -0.32546 
 C                     3.91434  -0.92799   0.92956 
 C                     1.90006  -0.10216  -0.20569 
 O                     1.26169  -1.0401   -0.85546 
 O                     1.3473    0.75737   0.45647 
 H                     3.71123   1.65619  -1.3782 
 H                     5.11668   1.09777  -0.46425 
 H                     3.7282    1.79854   0.38049 
 H                     3.6305   -0.8189   -1.20527 
 H                     3.65908  -0.35267   1.81675 
 H                     4.99503  -1.0361    0.88191 
 H                     3.46878  -1.91678   1.01203 
 H                     0.26212  -0.98243  -0.73966 
 
 Add virtual bond connecting atoms O20        and H14        Dist= 3.12D+00.
 Add virtual bond connecting atoms H28        and O6         Dist= 3.12D+00.

 GradGradGradGradGradGradGradGradGradGradGradGradGradGradGradGradGradGrad
 Initialization pass.
                           ----------------------------
                           !    Initial Parameters    !
                           ! (Angstroms and Degrees)  !
 --------------------------                            --------------------------
 ! Name  Definition              Value          Derivative Info.                !
 --------------------------------------------------------------------------------
 ! R1    R(1,2)                  1.5324         estimate D2E/DX2                !
 ! R2    R(1,7)                  1.0878         estimate D2E/DX2                !
 ! R3    R(1,8)                  1.0877         estimate D2E/DX2                !
 ! R4    R(1,9)                  1.0871         estimate D2E/DX2                !
 ! R5    R(2,3)                  1.5258         estimate D2E/DX2                !
 ! R6    R(2,4)                  1.5156         estimate D2E/DX2                !
 ! R7    R(2,10)                 1.0933         estimate D2E/DX2                !
 ! R8    R(3,11)                 1.0872         estimate D2E/DX2                !
 ! R9    R(3,12)                 1.0869         estimate D2E/DX2                !
 ! R10   R(3,13)                 1.0875         estimate D2E/DX2                !
 ! R11   R(4,5)                  1.3074         estimate D2E/DX2                !
 ! R12   R(4,6)                  1.2177         estimate D2E/DX2                !
 ! R13   R(5,14)                 1.0079         estimate D2E/DX2                !
 ! R14   R(6,28)                 1.6497         estimate D2E/DX2                !
 ! R15   R(14,20)                1.6495         estimate D2E/DX2                !
 ! R16   R(15,16)                1.5257         estimate D2E/DX2                !
 ! R17   R(15,21)                1.0875         estimate D2E/DX2                !
 ! R18   R(15,22)                1.0869         estimate D2E/DX2                !
 ! R19   R(15,23)                1.0872         estimate D2E/DX2                !
 ! R20   R(16,17)                1.5325         estimate D2E/DX2                !
 ! R21   R(16,18)                1.5155         estimate D2E/DX2                !
 ! R22   R(16,24)                1.0933         estimate D2E/DX2                !
 ! R23   R(17,25)                1.0878         estimate D2E/DX2                !
 ! R24   R(17,26)                1.0871         estimate D2E/DX2                !
 ! R25   R(17,27)                1.0877         estimate D2E/DX2                !
 ! R26   R(18,19)                1.3075         estimate D2E/DX2                !
 ! R27   R(18,20)                1.2177         estimate D2E/DX2                !
 ! R28   R(19,28)                1.0079         estimate D2E/DX2                !
 ! A1    A(2,1,7)              110.009          estimate D2E/DX2                !
 ! A2    A(2,1,8)              110.6535         estimate D2E/DX2                !
 ! A3    A(2,1,9)              109.8699         estimate D2E/DX2                !
 ! A4    A(7,1,8)              108.8303         estimate D2E/DX2                !
 ! A5    A(7,1,9)              108.7668         estimate D2E/DX2                !
 ! A6    A(8,1,9)              108.6692         estimate D2E/DX2                !
 ! A7    A(1,2,3)              111.1241         estimate D2E/DX2                !
 ! A8    A(1,2,4)              107.3536         estimate D2E/DX2                !
 ! A9    A(1,2,10)             109.2972         estimate D2E/DX2                !
 ! A10   A(3,2,4)              110.4657         estimate D2E/DX2                !
 ! A11   A(3,2,10)             110.647          estimate D2E/DX2                !
 ! A12   A(4,2,10)             107.8383         estimate D2E/DX2                !
 ! A13   A(2,3,11)             109.8086         estimate D2E/DX2                !
 ! A14   A(2,3,12)             110.1441         estimate D2E/DX2                !
 ! A15   A(2,3,13)             110.672          estimate D2E/DX2                !
 ! A16   A(11,3,12)            108.9941         estimate D2E/DX2                !
 ! A17   A(11,3,13)            108.4696         estimate D2E/DX2                !
 ! A18   A(12,3,13)            108.7093         estimate D2E/DX2                !
 ! A19   A(2,4,5)              113.2967         estimate D2E/DX2                !
 ! A20   A(2,4,6)              122.9732         estimate D2E/DX2                !
 ! A21   A(5,4,6)              123.711          estimate D2E/DX2                !
 ! A22   A(4,5,14)             112.7131         estimate D2E/DX2                !
 ! A23   A(4,6,28)             129.2764         estimate D2E/DX2                !
 ! A24   A(16,15,21)           110.6719         estimate D2E/DX2                !
 ! A25   A(16,15,22)           110.147          estimate D2E/DX2                !
 ! A26   A(16,15,23)           109.8114         estimate D2E/DX2                !
 ! A27   A(21,15,22)           108.7114         estimate D2E/DX2                !
 ! A28   A(21,15,23)           108.4612         estimate D2E/DX2                !
 ! A29   A(22,15,23)           108.9946         estimate D2E/DX2                !
 ! A30   A(15,16,17)           111.1323         estimate D2E/DX2                !
 ! A31   A(15,16,18)           110.4978         estimate D2E/DX2                !
 ! A32   A(15,16,24)           110.6611         estimate D2E/DX2                !
 ! A33   A(17,16,18)           107.318          estimate D2E/DX2                !
 ! A34   A(17,16,24)           109.2748         estimate D2E/DX2                !
 ! A35   A(18,16,24)           107.84           estimate D2E/DX2                !
 ! A36   A(16,17,25)           110.0173         estimate D2E/DX2                !
 ! A37   A(16,17,26)           109.8648         estimate D2E/DX2                !
 ! A38   A(16,17,27)           110.649          estimate D2E/DX2                !
 ! A39   A(25,17,26)           108.7609         estimate D2E/DX2                !
 ! A40   A(25,17,27)           108.8352         estimate D2E/DX2                !
 ! A41   A(26,17,27)           108.6715         estimate D2E/DX2                !
 ! A42   A(16,18,19)           113.2888         estimate D2E/DX2                !
 ! A43   A(16,18,20)           122.9825         estimate D2E/DX2                !
 ! A44   A(19,18,20)           123.7092         estimate D2E/DX2                !
 ! A45   A(18,19,28)           112.7101         estimate D2E/DX2                !
 ! A46   A(14,20,18)           129.284          estimate D2E/DX2                !
 ! A47   L(5,14,20,6,-1)       174.2951         estimate D2E/DX2                !
 ! A48   L(6,28,19,20,-1)      174.2929         estimate D2E/DX2                !
 ! A49   L(5,14,20,6,-2)       180.0526         estimate D2E/DX2                !
 ! A50   L(6,28,19,20,-2)      180.0588         estimate D2E/DX2                !
 ! D1    D(7,1,2,3)            -60.1224         estimate D2E/DX2                !
 ! D2    D(7,1,2,4)             60.771          estimate D2E/DX2                !
 ! D3    D(7,1,2,10)           177.4802         estimate D2E/DX2                !
 ! D4    D(8,1,2,3)            179.589          estimate D2E/DX2                !
 ! D5    D(8,1,2,4)            -59.5176         estimate D2E/DX2                !
 ! D6    D(8,1,2,10)            57.1915         estimate D2E/DX2                !
 ! D7    D(9,1,2,3)             59.5909         estimate D2E/DX2                !
 ! D8    D(9,1,2,4)           -179.5157         estimate D2E/DX2                !
 ! D9    D(9,1,2,10)           -62.8066         estimate D2E/DX2                !
 ! D10   D(1,2,3,11)            63.4289         estimate D2E/DX2                !
 ! D11   D(1,2,3,12)           -56.6112         estimate D2E/DX2                !
 ! D12   D(1,2,3,13)          -176.8485         estimate D2E/DX2                !
 ! D13   D(4,2,3,11)           -55.6153         estimate D2E/DX2                !
 ! D14   D(4,2,3,12)          -175.6553         estimate D2E/DX2                !
 ! D15   D(4,2,3,13)            64.1073         estimate D2E/DX2                !
 ! D16   D(10,2,3,11)         -174.9585         estimate D2E/DX2                !
 ! D17   D(10,2,3,12)           65.0014         estimate D2E/DX2                !
 ! D18   D(10,2,3,13)          -55.236          estimate D2E/DX2                !
 ! D19   D(1,2,4,5)             98.2151         estimate D2E/DX2                !
 ! D20   D(1,2,4,6)            -80.2488         estimate D2E/DX2                !
 ! D21   D(3,2,4,5)           -140.4771         estimate D2E/DX2                !
 ! D22   D(3,2,4,6)             41.0589         estimate D2E/DX2                !
 ! D23   D(10,2,4,5)           -19.4481         estimate D2E/DX2                !
 ! D24   D(10,2,4,6)           162.0879         estimate D2E/DX2                !
 ! D25   D(2,4,5,14)          -177.7364         estimate D2E/DX2                !
 ! D26   D(6,4,5,14)             0.7145         estimate D2E/DX2                !
 ! D27   D(2,4,6,28)           177.458          estimate D2E/DX2                !
 ! D28   D(5,4,6,28)            -0.846          estimate D2E/DX2                !
 ! D29   D(4,5,20,18)           -0.601          estimate D2E/DX2                !
 ! D30   D(4,6,19,18)            0.7986         estimate D2E/DX2                !
 ! D31   D(21,15,16,17)        176.8043         estimate D2E/DX2                !
 ! D32   D(21,15,16,18)        -64.17           estimate D2E/DX2                !
 ! D33   D(21,15,16,24)         55.2049         estimate D2E/DX2                !
 ! D34   D(22,15,16,17)         56.5624         estimate D2E/DX2                !
 ! D35   D(22,15,16,18)        175.5882         estimate D2E/DX2                !
 ! D36   D(22,15,16,24)        -65.037          estimate D2E/DX2                !
 ! D37   D(23,15,16,17)        -63.4818         estimate D2E/DX2                !
 ! D38   D(23,15,16,18)         55.5439         estimate D2E/DX2                !
 ! D39   D(23,15,16,24)        174.9188         estimate D2E/DX2                !
 ! D40   D(15,16,17,25)         60.0835         estimate D2E/DX2                !
 ! D41   D(15,16,17,26)        -59.6244         estimate D2E/DX2                !
 ! D42   D(15,16,17,27)       -179.6193         estimate D2E/DX2                !
 ! D43   D(18,16,17,25)        -60.8313         estimate D2E/DX2                !
 ! D44   D(18,16,17,26)        179.4608         estimate D2E/DX2                !
 ! D45   D(18,16,17,27)         59.4659         estimate D2E/DX2                !
 ! D46   D(24,16,17,25)       -177.5111         estimate D2E/DX2                !
 ! D47   D(24,16,17,26)         62.781          estimate D2E/DX2                !
 ! D48   D(24,16,17,27)        -57.2139         estimate D2E/DX2                !
 ! D49   D(15,16,18,19)        141.1737         estimate D2E/DX2                !
 ! D50   D(15,16,18,20)        -40.3821         estimate D2E/DX2                !
 ! D51   D(17,16,18,19)        -97.5118         estimate D2E/DX2                !
 ! D52   D(17,16,18,20)         80.9323         estimate D2E/DX2                !
 ! D53   D(24,16,18,19)         20.1073         estimate D2E/DX2                !
 ! D54   D(24,16,18,20)       -161.4485         estimate D2E/DX2                !
 ! D55   D(16,18,19,28)        177.6897         estimate D2E/DX2                !
 ! D56   D(20,18,19,28)         -0.7414         estimate D2E/DX2                !
 ! D57   D(16,18,20,14)       -177.5538         estimate D2E/DX2                !
 ! D58   D(19,18,20,14)          0.7282         estimate D2E/DX2                !
 --------------------------------------------------------------------------------
 Number of steps in this run=    146 maximum allowed number of steps=    168.
 GradGradGradGradGradGradGradGradGradGradGradGradGradGradGradGradGradGrad

                    Distance matrix (angstroms):
                    1          2          3          4          5
     1  C    0.000000
     2  C    1.532433   0.000000
     3  C    2.522226   1.525775   0.000000
     4  C    2.455747   1.515553   2.498386   0.000000
     5  O    3.206560   2.360844   3.566303   1.307428   0.000000
     6  O    3.101936   2.405935   2.870269   1.217707   2.226967
     7  H    1.087767   2.161557   2.765067   2.692065   3.662503
     8  H    1.087679   2.169609   3.469783   2.691225   3.032549
     9  H    1.087131   2.159322   2.758478   3.411296   4.123986
    10  H    2.156594   1.093270   2.167855   2.123033   2.402805
    11  H    2.786899   2.152741   1.087207   2.701529   3.956286
    12  H    2.737371   2.156745   1.086895   3.442616   4.422454
    13  H    3.470528   2.163857   1.087538   2.782315   3.671688
    14  H    4.022285   3.264980   4.350229   1.934664   1.007926
    15  C    7.968396   7.542204   8.449235   6.064589   5.455474
    16  C    7.434922   6.857863   7.541860   5.342640   4.975442
    17  C    8.259192   7.434375   7.961518   5.949771   5.539229
    18  C    5.950395   5.342652   6.064323   3.827687   3.525535
    19  O    5.535456   4.975513   5.458003   3.525642   3.691501
    20  O    5.448451   4.787259   5.713323   3.321765   2.654324
    21  H    7.676603   7.459847   8.447504   6.032876   5.484747
    22  H    9.047882   8.605655   9.471004   7.117993   6.513090
    23  H    7.808521   7.309562   8.308317   5.880103   5.068660
    24  H    7.748171   7.275132   7.850632   5.781548   5.624733
    25  H    8.160748   7.244198   7.848743   5.806313   5.204925
    26  H    9.302805   8.512624   9.035645   7.021594   6.593256
    27  H    8.146723   7.230771   7.555240   5.793440   5.582570
    28  H    4.593353   4.002595   4.464701   2.597682   2.993774
                    6          7          8          9         10
     6  O    0.000000
     7  H    2.895466   0.000000
     8  H    3.452339   1.769192   0.000000
     9  H    4.082727   1.768044   1.766893   0.000000
    10  H    3.235126   3.057956   2.479700   2.503593   0.000000
    11  H    2.602381   2.586977   3.777238   3.143894   3.061824
    12  H    3.897330   3.071841   3.739354   2.525867   2.535631
    13  H    3.130317   3.774166   4.305636   3.742246   2.482491
    14  H    2.373927   4.304457   3.781502   5.008816   3.402888
    15  C    5.715990   7.859240   7.563228   9.042153   7.846784
    16  C    4.787336   7.244168   7.232153   8.513145   7.275037
    17  C    5.443950   8.156029   8.151728   9.302761   7.752017
    18  C    3.321902   5.806463   5.794843   7.022173   5.781369
    19  O    2.654533   5.199304   5.577690   6.589842   5.625603
    20  O    3.222352   5.518079   5.174562   6.492221   5.032904
    21  H    5.679192   7.503951   7.196960   8.745574   7.823312
    22  H    6.724365   8.915021   8.646532  10.123740   8.907197
    23  H    5.743211   7.848890   7.340218   8.852602   7.466419
    24  H    5.034118   7.406560   7.609099   8.827542   7.823922
    25  H    5.513187   8.201872   8.005797   9.174257   7.411273
    26  H    6.488137   9.169793   9.166504  10.355336   8.831122
    27  H    5.167273   7.993097   8.183607   9.161654   7.615181
    28  H    1.649736   4.274727   4.728939   5.630243   4.710863
                   11         12         13         14         15
    11  H    0.000000
    12  H    1.769905   0.000000
    13  H    1.764629   1.767031   0.000000
    14  H    4.581055   5.286061   4.381634   0.000000
    15  C    8.312573   9.471541   8.442538   4.461780   0.000000
    16  C    7.309873   8.605438   7.458554   4.002480   1.525687
    17  C    7.797877   9.041516   7.668698   4.597679   2.522337
    18  C    5.880560   7.117858   6.031637   2.597529   2.498783
    19  O    5.071154   6.515193   5.489372   2.993727   3.570241
    20  O    5.741966   6.722271   5.672972   1.649499   2.867120
    21  H    8.267005   9.430036   8.579771   4.551299   1.087527
    22  H    9.308058  10.506335   9.424721   5.512490   1.086885
    23  H    8.312719   9.304807   8.254905   4.087850   1.087204
    24  H    7.471223   8.910592   7.829290   4.709799   2.167964
    25  H    7.834556   8.905608   7.489059   4.281164   2.765052
    26  H    8.842595  10.117646   8.738046   5.634044   2.758828
    27  H    7.325230   8.638794   7.191257   4.734471   3.469803
    28  H    4.090589   5.514834   4.556699   2.515885   4.353627
                   16         17         18         19         20
    16  C    0.000000
    17  C    1.532505   0.000000
    18  C    1.515533   2.455228   0.000000
    19  O    2.360748   3.199289   1.307461   0.000000
    20  O    2.406011   3.107081   1.217693   2.226966   0.000000
    21  H    2.163771   3.470593   2.783325   3.680147   3.124426
    22  H    2.156696   2.737157   3.442863   4.425434   3.895097
    23  H    2.152698   2.787495   2.701549   3.958428   2.599709
    24  H    1.093283   2.156381   2.123047   2.404701   3.234041
    25  H    2.161734   1.087780   2.692060   3.655240   2.902906
    26  H    2.159316   1.087126   3.410863   4.117806   4.086987
    27  H    2.169611   1.087671   2.690087   3.021146   3.458375
    28  H    3.264853   4.015966   1.934641   1.007901   2.373864
                   21         22         23         24         25
    21  H    0.000000
    22  H    1.767038   0.000000
    23  H    1.764525   1.769899   0.000000
    24  H    2.482439   2.536031   3.061897   0.000000
    25  H    3.774378   3.071044   2.587531   3.057911   0.000000
    26  H    3.742286   2.525940   3.145079   2.503087   1.767986
    27  H    4.305587   3.739315   3.777534   2.479498   1.769250
    28  H    4.389346   5.288644   4.582818   3.404339   4.297810
                   26         27         28
    26  H    0.000000
    27  H    1.766908   0.000000
    28  H    5.003278   3.771480   0.000000
 Framework group  C1[X(C8H16O4)]
 Deg. of freedom    78
                         Standard orientation:                         
 ---------------------------------------------------------------------
 Center     Atomic      Atomic             Coordinates (Angstroms)
 Number     Number       Type             X           Y           Z
 ---------------------------------------------------------------------
      1          6           0       -3.918720   -1.026075    0.806929
      2          6           0       -3.404798   -0.180839   -0.363460
      3          6           0       -4.031281    1.210353   -0.353822
      4          6           0       -1.898684   -0.084739   -0.224592
      5          8           0       -1.254590   -0.939545   -0.975469
      6          8           0       -1.351533    0.693740    0.535281
      7          1           0       -3.668691   -0.546237    1.750581
      8          1           0       -3.472998   -2.018063    0.788565
      9          1           0       -4.999057   -1.128732    0.742213
     10          1           0       -3.622324   -0.695074   -1.303399
     11          1           0       -3.733250    1.742400    0.546246
     12          1           0       -5.115178    1.132927   -0.376456
     13          1           0       -3.704450    1.784576   -1.217644
     14          1           0       -0.255677   -0.892927   -0.849320
     15          6           0        4.033624   -1.212387    0.336990
     16          6           0        3.404836    0.177418    0.365117
     17          6           0        3.916167    1.038752   -0.794717
     18          6           0        1.898762    0.081425    0.225942
     19          8           0        1.254685    0.935557    0.977659
     20          8           0        1.351572   -0.695991   -0.534968
     21          1           0        3.709159   -1.797980    1.194031
     22          1           0        5.117419   -1.133444    0.358794
     23          1           0        3.734955   -1.733684   -0.569133
     24          1           0        3.622402    0.680172    1.311251
     25          1           0        3.666757    0.570548   -1.744372
     26          1           0        4.996310    1.142922   -0.729260
     27          1           0        3.468261    2.029419   -0.763281
     28          1           0        0.255851    0.889628    0.850832
 ---------------------------------------------------------------------
 Rotational constants (GHZ):           2.3619797           0.3265263           0.3150170
   200 basis functions,   364 primitive gaussians,   212 cartesian basis functions
    48 alpha electrons       48 beta electrons
       nuclear repulsion energy       741.7723396243 Hartrees.
 NAtoms=   28 NActive=   28 NUniq=   28 SFac= 1.00D+00 NAtFMM=   60 NAOKFM=F Big=F
 Nuclear repulsion after empirical dispersion term =      741.7566002388 Hartrees.
   1 Symmetry operations used in ECPInt.
 ECPInt:  NShTT=    5460 NPrTT=   21940 LenC2=    5115 LenP2D=   14565.
 LDataN:  DoStor=T MaxTD1= 4 Len=   56
 ExpMin= 1.22D-01 ExpMax= 2.27D+03 ExpMxC= 3.41D+02 IAcc=3 IRadAn=         5 AccDes= 0.00D+00
 Harris functional with IExCor= 4639 and IRadAn=       5 diagonalized for initial guess.
 HarFok:  IExCor= 4639 AccDes= 0.00D+00 IRadAn=         5 IDoV= 1 UseB2=F ITyADJ=14
 ICtDFT=  3500011 ScaDFX=  1.000000  1.000000  1.000000  1.000000
 FoFCou: FMM=F IPFlag=           0 FMFlag=      100000 FMFlg1=           0
         NFxFlg=           0 DoJE=T BraDBF=F KetDBF=T FulRan=T
         wScrn=  0.000000 ICntrl=       500 IOpCl=  0 I1Cent=   200000004 NGrid=           0
         NMat0=    1 NMatS0=      1 NMatT0=    0 NMatD0=    1 NMtDS0=    0 NMtDT0=    0
 Petite list used in FoFCou.
     Accept linear search using points  2 and  3.
     Accept linear search using points  1 and  2.
     Accept linear search using points  2 and  3.
     Minimum is close to point  2 DX=  2.46D-04 DF= -9.09D-13 DXR=  2.46D-04 DFR=  5.99D-08 which will be used.
 SCF Done:  E(RwB97XD) =  -614.778377768     a.u. after    8 cycles
            Convg  =    0.1395D-09                    40 Fock formations.
              S**2 =  0.0000                  -V/T =  2.0085

 **********************************************************************

            Population analysis using the SCF Density.

 **********************************************************************

 Orbital symmetries:
       Occupied  (A) (A) (A) (A) (A) (A) (A) (A) (A) (A) (A) (A)
                 (A) (A) (A) (A) (A) (A) (A) (A) (A) (A) (A) (A)
                 (A) (A) (A) (A) (A) (A) (A) (A) (A) (A) (A) (A)
                 (A) (A) (A) (A) (A) (A) (A) (A) (A) (A) (A) (A)
       Virtual   (A) (A) (A) (A) (A) (A) (A) (A) (A) (A) (A) (A)
                 (A) (A) (A) (A) (A) (A) (A) (A) (A) (A) (A) (A)
                 (A) (A) (A) (A) (A) (A) (A) (A) (A) (A) (A) (A)
                 (A) (A) (A) (A) (A) (A) (A) (A) (A) (A) (A) (A)
                 (A) (A) (A) (A) (A) (A) (A) (A) (A) (A) (A) (A)
                 (A) (A) (A) (A) (A) (A) (A) (A) (A) (A) (A) (A)
                 (A) (A) (A) (A) (A) (A) (A) (A) (A) (A) (A) (A)
                 (A) (A) (A) (A) (A) (A) (A) (A) (A) (A) (A) (A)
                 (A) (A) (A) (A) (A) (A) (A) (A) (A) (A) (A) (A)
                 (A) (A) (A) (A) (A) (A) (A) (A) (A) (A) (A) (A)
                 (A) (A) (A) (A) (A) (A) (A) (A) (A) (A) (A) (A)
                 (A) (A) (A) (A) (A) (A) (A) (A) (A) (A) (A) (A)
                 (A) (A) (A) (A) (A) (A) (A) (A)
 The electronic state is 1-A.
 Alpha  occ. eigenvalues --  -19.28950 -19.28948 -19.25680 -19.25676 -10.43540
 Alpha  occ. eigenvalues --  -10.43537 -10.31169 -10.31165 -10.28966 -10.28960
 Alpha  occ. eigenvalues --  -10.28348 -10.28338  -1.20956  -1.19810  -1.11547
 Alpha  occ. eigenvalues --   -1.10252  -0.90926  -0.90619  -0.78640  -0.78632
 Alpha  occ. eigenvalues --   -0.76758  -0.75006  -0.67160  -0.66705  -0.61671
 Alpha  occ. eigenvalues --   -0.60013  -0.58198  -0.56751  -0.55994  -0.55575
 Alpha  occ. eigenvalues --   -0.53914  -0.53446  -0.52200  -0.49183  -0.48814
 Alpha  occ. eigenvalues --   -0.48788  -0.47737  -0.47682  -0.44478  -0.43945
 Alpha  occ. eigenvalues --   -0.43378  -0.43370  -0.42997  -0.42889  -0.41303
 Alpha  occ. eigenvalues --   -0.40389  -0.37925  -0.36293
 Alpha virt. eigenvalues --    0.08171   0.08608   0.13918   0.14309   0.18847
 Alpha virt. eigenvalues --    0.18891   0.19310   0.19461   0.19895   0.20054
 Alpha virt. eigenvalues --    0.21989   0.22395   0.23272   0.24018   0.24201
 Alpha virt. eigenvalues --    0.24225   0.25510   0.25556   0.27742   0.27824
 Alpha virt. eigenvalues --    0.30405   0.31243   0.32900   0.33844   0.37814
 Alpha virt. eigenvalues --    0.39123   0.43474   0.46277   0.48184   0.48363
 Alpha virt. eigenvalues --    0.51346   0.51670   0.54051   0.54411   0.54599
 Alpha virt. eigenvalues --    0.55817   0.56591   0.61288   0.62569   0.63554
 Alpha virt. eigenvalues --    0.66438   0.67221   0.69226   0.69494   0.70490
 Alpha virt. eigenvalues --    0.73025   0.73717   0.73738   0.74551   0.74681
 Alpha virt. eigenvalues --    0.76371   0.76477   0.76676   0.77224   0.78401
 Alpha virt. eigenvalues --    0.79041   0.79518   0.80022   0.80250   0.80482
 Alpha virt. eigenvalues --    0.80854   0.81385   0.81847   0.81890   0.83539
 Alpha virt. eigenvalues --    0.83599   0.84263   0.85769   0.89336   0.91274
 Alpha virt. eigenvalues --    0.99256   1.02010   1.04358   1.05162   1.07318
 Alpha virt. eigenvalues --    1.08263   1.11530   1.12741   1.16464   1.17797
 Alpha virt. eigenvalues --    1.19390   1.22911   1.23561   1.27659   1.39591
 Alpha virt. eigenvalues --    1.41995   1.43972   1.44346   1.49042   1.49958
 Alpha virt. eigenvalues --    1.58165   1.62092   1.62629   1.65543   1.67088
 Alpha virt. eigenvalues --    1.67385   1.75423   1.76339   1.80746   1.80984
 Alpha virt. eigenvalues --    1.85020   1.85544   1.86422   1.86614   1.98972
 Alpha virt. eigenvalues --    1.99065   2.01238   2.02619   2.05714   2.06198
 Alpha virt. eigenvalues --    2.10989   2.11715   2.13733   2.13972   2.16271
 Alpha virt. eigenvalues --    2.16606   2.24176   2.24203   2.24622   2.25138
 Alpha virt. eigenvalues --    2.28373   2.32533   2.46001   2.47220   2.47661
 Alpha virt. eigenvalues --    2.48555   2.49768   2.51241   2.63433   2.63635
 Alpha virt. eigenvalues --    2.67526   2.67804   2.70975   2.70989   2.74161
 Alpha virt. eigenvalues --    2.74210   2.77010   2.80099   2.96256   3.02614
 Alpha virt. eigenvalues --    3.03414   3.03970   3.16715   3.19342   3.27035
 Alpha virt. eigenvalues --    3.27147   3.40969   3.42015   3.65937   3.67416
 Alpha virt. eigenvalues --    3.74968   3.75370
          Condensed to atoms (all electrons):
 Mulliken charges:
               1
     1  C   -0.302410
     2  C   -0.217694
     3  C   -0.283596
     4  C    0.252527
     5  O   -0.358891
     6  O   -0.329169
     7  H    0.129220
     8  H    0.132035
     9  H    0.128659
    10  H    0.118767
    11  H    0.133311
    12  H    0.118556
    13  H    0.123430
    14  H    0.355216
    15  C   -0.282991
    16  C   -0.218374
    17  C   -0.302431
    18  C    0.252809
    19  O   -0.359136
    20  O   -0.329041
    21  H    0.123354
    22  H    0.118409
    23  H    0.133245
    24  H    0.118903
    25  H    0.129041
    26  H    0.128776
    27  H    0.132217
    28  H    0.355257
 Sum of Mulliken charges =   0.00000
 Mulliken charges with hydrogens summed into heavy atoms:
               1
     1  C    0.087504
     2  C   -0.098927
     3  C    0.091701
     4  C    0.252527
     5  O   -0.003676
     6  O   -0.329169
    15  C    0.092017
    16  C   -0.099470
    17  C    0.087603
    18  C    0.252809
    19  O   -0.003879
    20  O   -0.329041
 Electronic spatial extent (au):  <R**2>=           3659.5915
 Charge=              0.0000 electrons
 Dipole moment (field-independent basis, Debye):
    X=              0.0003    Y=              0.0027    Z=              0.0004  Tot=              0.0027
 Evaluate density.
 Using the total density.
 Monte-Carlo method of calculating molar volume:
 based on  0.001 e/bohr**3 density envelope.
 Number of points per bohr**3 =  100 CutOff= 1.00D-04
 Using the SCF density.
 There are      1998 points.  Will hold      1998 in memory.
 LenV=  1048101754 MDV=  1048576000.
 Box volume = 7987.386 fraction occupied=0.203
 Integrated density= 7.9982284473025189D+01 error=-1.6017715526974811D+01
 Molar volume = 1619.065 bohr**3/mol (144.484 cm**3/mol)
 Recommended a0 for SCRF calculation =  4.74 angstrom (  8.96 bohr)
   1 Symmetry operations used in ECPInt.
 ECPInt:  NShTT=    5460 NPrTT=   21940 LenC2=    5115 LenP2D=   14565.
 LDataN:  DoStor=T MaxTD1= 5 Len=  102
 Calling FoFJK, ICntrl=      2127 FMM=F ISym2X=0 I1Cent= 0 IOpClX= 0 NMat=1 NMatS=1 NMatT=0.

 GradGradGradGradGradGradGradGradGradGradGradGradGradGradGradGradGradGrad
 FormGI is forming the generalized inverse of G from B-inverse, IUseBI=4.
 Internal  Forces:  Max     0.010908659 RMS     0.003575841
 Step number   1 out of a maximum of  146
 All quantities printed in internal units (Hartrees-Bohrs-Radians)
 Mixed Optimization -- RFO/linear search
 Second derivative matrix not updated -- first step.
 ITU=  0
     Eigenvalues ---    0.00336   0.00337   0.00425   0.00426   0.00509
     Eigenvalues ---    0.00560   0.00560   0.01340   0.01680   0.01845
     Eigenvalues ---    0.02085   0.03226   0.03615   0.04236   0.04236
     Eigenvalues ---    0.04604   0.04606   0.04916   0.05372   0.05613
     Eigenvalues ---    0.05614   0.05671   0.05671   0.05695   0.05696
     Eigenvalues ---    0.05743   0.05744   0.05926   0.05929   0.08200
     Eigenvalues ---    0.09434   0.15999   0.16000   0.16000   0.16000
     Eigenvalues ---    0.16000   0.16000   0.16000   0.16000   0.16000
     Eigenvalues ---    0.16000   0.16000   0.16000   0.16000   0.16328
     Eigenvalues ---    0.16330   0.17446   0.17449   0.21251   0.22978
     Eigenvalues ---    0.24996   0.24996   0.29193   0.29200   0.29817
     Eigenvalues ---    0.29825   0.30799   0.30801   0.34436   0.34437
     Eigenvalues ---    0.35070   0.35072   0.35082   0.35083   0.35099
     Eigenvalues ---    0.35100   0.35137   0.35138   0.35146   0.35147
     Eigenvalues ---    0.35174   0.35175   0.44052   0.46324   0.63206
     Eigenvalues ---    0.65167   0.92092   0.96410
 Linear search not attempted -- first point.
 Iteration  1 RMS(Cart)=  0.02152572 RMS(Int)=  0.00032276
 Iteration  2 RMS(Cart)=  0.00066946 RMS(Int)=  0.00006412
 Iteration  3 RMS(Cart)=  0.00000024 RMS(Int)=  0.00006412
 Variable       Old X    -DE/DX   Delta X   Delta X   Delta X     New X
                                 (Linear)    (Quad)   (Total)
    R1        2.89588   0.00445   0.00000   0.01494   0.01494   2.91082
    R2        2.05558   0.01056   0.00000   0.02960   0.02960   2.08518
    R3        2.05541   0.01053   0.00000   0.02950   0.02950   2.08491
    R4        2.05438   0.01080   0.00000   0.03021   0.03021   2.08459
    R5        2.88330   0.00337   0.00000   0.01107   0.01107   2.89437
    R6        2.86398   0.00015   0.00000   0.00049   0.00049   2.86447
    R7        2.06598   0.00501   0.00000   0.01430   0.01430   2.08028
    R8        2.05452   0.01025   0.00000   0.02868   0.02868   2.08320
    R9        2.05393   0.01090   0.00000   0.03047   0.03047   2.08441
   R10        2.05515   0.01065   0.00000   0.02982   0.02982   2.08497
   R11        2.47068   0.00239   0.00000   0.00357   0.00357   2.47426
   R12        2.30113   0.00639   0.00000   0.00662   0.00662   2.30775
   R13        1.90470  -0.00258   0.00000  -0.00567  -0.00566   1.89905
   R14        3.11755  -0.00126   0.00000  -0.01346  -0.01348   3.10407
   R15        3.11710  -0.00125   0.00000  -0.01507  -0.01505   3.10205
   R16        2.88313   0.00334   0.00000   0.01098   0.01098   2.89412
   R17        2.05513   0.01065   0.00000   0.02982   0.02982   2.08495
   R18        2.05391   0.01091   0.00000   0.03049   0.03049   2.08441
   R19        2.05452   0.01024   0.00000   0.02865   0.02865   2.08317
   R20        2.89601   0.00447   0.00000   0.01502   0.01502   2.91103
   R21        2.86394   0.00017   0.00000   0.00053   0.00053   2.86447
   R22        2.06601   0.00502   0.00000   0.01434   0.01434   2.08035
   R23        2.05561   0.01056   0.00000   0.02960   0.02960   2.08521
   R24        2.05437   0.01080   0.00000   0.03022   0.03022   2.08459
   R25        2.05540   0.01052   0.00000   0.02948   0.02948   2.08488
   R26        2.47074   0.00237   0.00000   0.00367   0.00366   2.47441
   R27        2.30111   0.00640   0.00000   0.00656   0.00657   2.30768
   R28        1.90466  -0.00259   0.00000  -0.00534  -0.00535   1.89931
    A1        1.92002   0.00082   0.00000   0.00527   0.00524   1.92526
    A2        1.93127   0.00186   0.00000   0.01180   0.01177   1.94303
    A3        1.91759   0.00068   0.00000   0.00312   0.00311   1.92070
    A4        1.89945  -0.00114   0.00000  -0.00502  -0.00507   1.89437
    A5        1.89834  -0.00091   0.00000  -0.00674  -0.00674   1.89160
    A6        1.89664  -0.00138   0.00000  -0.00898  -0.00899   1.88764
    A7        1.93948   0.00081   0.00000   0.01317   0.01298   1.95246
    A8        1.87367   0.00100   0.00000   0.01433   0.01412   1.88779
    A9        1.90760  -0.00075   0.00000  -0.01044  -0.01034   1.89726
   A10        1.92799  -0.00004   0.00000   0.00771   0.00742   1.93541
   A11        1.93115  -0.00016   0.00000  -0.00724  -0.00718   1.92398
   A12        1.88213  -0.00089   0.00000  -0.01799  -0.01792   1.86421
   A13        1.91652   0.00108   0.00000   0.00712   0.00709   1.92361
   A14        1.92238   0.00018   0.00000   0.00013   0.00013   1.92250
   A15        1.93159   0.00213   0.00000   0.01321   0.01317   1.94477
   A16        1.90231  -0.00074   0.00000  -0.00520  -0.00520   1.89710
   A17        1.89315  -0.00140   0.00000  -0.00650  -0.00657   1.88658
   A18        1.89734  -0.00135   0.00000  -0.00927  -0.00927   1.88806
   A19        1.97740   0.00228   0.00000   0.01226   0.01221   1.98961
   A20        2.14629  -0.00361   0.00000  -0.01075  -0.01080   2.13549
   A21        2.15916   0.00131   0.00000  -0.00194  -0.00199   2.15717
   A22        1.96722  -0.00439   0.00000  -0.04348  -0.04345   1.92376
   A23        2.25630  -0.00026   0.00000  -0.01661  -0.01662   2.23967
   A24        1.93159   0.00213   0.00000   0.01320   0.01316   1.94475
   A25        1.92243   0.00018   0.00000   0.00010   0.00010   1.92253
   A26        1.91657   0.00108   0.00000   0.00710   0.00707   1.92364
   A27        1.89737  -0.00134   0.00000  -0.00924  -0.00924   1.88813
   A28        1.89300  -0.00140   0.00000  -0.00653  -0.00660   1.88640
   A29        1.90231  -0.00074   0.00000  -0.00515  -0.00514   1.89717
   A30        1.93962   0.00080   0.00000   0.01322   0.01302   1.95264
   A31        1.92855  -0.00005   0.00000   0.00775   0.00745   1.93600
   A32        1.93140  -0.00016   0.00000  -0.00731  -0.00724   1.92416
   A33        1.87305   0.00103   0.00000   0.01457   0.01436   1.88741
   A34        1.90721  -0.00075   0.00000  -0.01054  -0.01043   1.89677
   A35        1.88216  -0.00090   0.00000  -0.01816  -0.01808   1.86408
   A36        1.92016   0.00081   0.00000   0.00518   0.00515   1.92532
   A37        1.91750   0.00069   0.00000   0.00320   0.00319   1.92069
   A38        1.93119   0.00186   0.00000   0.01183   0.01179   1.94298
   A39        1.89824  -0.00092   0.00000  -0.00678  -0.00678   1.89146
   A40        1.89953  -0.00114   0.00000  -0.00503  -0.00508   1.89445
   A41        1.89668  -0.00138   0.00000  -0.00896  -0.00898   1.88770
   A42        1.97726   0.00222   0.00000   0.01190   0.01185   1.98911
   A43        2.14645  -0.00354   0.00000  -0.01060  -0.01066   2.13579
   A44        2.15913   0.00131   0.00000  -0.00176  -0.00180   2.15733
   A45        1.96716  -0.00438   0.00000  -0.04091  -0.04093   1.92623
   A46        2.25643  -0.00027   0.00000  -0.01821  -0.01818   2.23825
   A47        3.04202   0.00334   0.00000   0.06394   0.06397   3.10599
   A48        3.04199   0.00334   0.00000   0.05912   0.05910   3.10109
   A49        3.14251   0.00010   0.00000   0.00516   0.00512   3.14764
   A50        3.14262   0.00010   0.00000   0.00330   0.00327   3.14589
    D1       -1.04933  -0.00021   0.00000  -0.00411  -0.00416  -1.05349
    D2        1.06065   0.00086   0.00000   0.02232   0.02240   1.08305
    D3        3.09761  -0.00003   0.00000   0.00341   0.00343   3.10104
    D4        3.13442  -0.00050   0.00000  -0.00884  -0.00892   3.12550
    D5       -1.03878   0.00056   0.00000   0.01758   0.01764  -1.02114
    D6        0.99818  -0.00033   0.00000  -0.00133  -0.00134   0.99685
    D7        1.04006  -0.00040   0.00000  -0.00719  -0.00726   1.03280
    D8       -3.13314   0.00066   0.00000   0.01924   0.01930  -3.11384
    D9       -1.09618  -0.00023   0.00000   0.00033   0.00033  -1.09585
   D10        1.10704   0.00049   0.00000  -0.00052  -0.00051   1.10653
   D11       -0.98805   0.00060   0.00000   0.00133   0.00136  -0.98669
   D12       -3.08659   0.00079   0.00000   0.00430   0.00435  -3.08224
   D13       -0.97067  -0.00125   0.00000  -0.03188  -0.03192  -1.00259
   D14       -3.06576  -0.00114   0.00000  -0.03002  -0.03005  -3.09581
   D15        1.11888  -0.00095   0.00000  -0.02705  -0.02706   1.09183
   D16       -3.05360  -0.00002   0.00000  -0.00978  -0.00981  -3.06341
   D17        1.13449   0.00010   0.00000  -0.00793  -0.00793   1.12656
   D18       -0.96405   0.00028   0.00000  -0.00496  -0.00494  -0.96899
   D19        1.71418  -0.00114   0.00000  -0.03594  -0.03598   1.67819
   D20       -1.40061  -0.00075   0.00000  -0.01833  -0.01838  -1.41899
   D21       -2.45179   0.00045   0.00000  -0.00630  -0.00627  -2.45806
   D22        0.71661   0.00084   0.00000   0.01131   0.01133   0.72795
   D23       -0.33943  -0.00033   0.00000  -0.02186  -0.02183  -0.36127
   D24        2.82897   0.00006   0.00000  -0.00425  -0.00423   2.82474
   D25       -3.10209   0.00040   0.00000   0.01380   0.01388  -3.08821
   D26        0.01247  -0.00007   0.00000  -0.00411  -0.00412   0.00835
   D27        3.09723  -0.00024   0.00000  -0.00913  -0.00907   3.08816
   D28       -0.01477   0.00019   0.00000   0.01012   0.01004  -0.00472
   D29       -0.01049   0.00013   0.00000   0.00695   0.00704  -0.00345
   D30        0.01394  -0.00013   0.00000  -0.00671  -0.00679   0.00715
   D31        3.08582  -0.00080   0.00000  -0.00425  -0.00429   3.08152
   D32       -1.11998   0.00097   0.00000   0.02748   0.02749  -1.09249
   D33        0.96351  -0.00028   0.00000   0.00515   0.00514   0.96864
   D34        0.98720  -0.00061   0.00000  -0.00128  -0.00131   0.98589
   D35        3.06459   0.00115   0.00000   0.03044   0.03047   3.09506
   D36       -1.13511  -0.00010   0.00000   0.00811   0.00812  -1.12699
   D37       -1.10797  -0.00050   0.00000   0.00052   0.00051  -1.10745
   D38        0.96942   0.00127   0.00000   0.03225   0.03230   1.00172
   D39        3.05291   0.00002   0.00000   0.00992   0.00994   3.06285
   D40        1.04866   0.00021   0.00000   0.00438   0.00443   1.05309
   D41       -1.04064   0.00041   0.00000   0.00750   0.00758  -1.03307
   D42       -3.13495   0.00050   0.00000   0.00907   0.00915  -3.12580
   D43       -1.06171  -0.00086   0.00000  -0.02227  -0.02235  -1.08406
   D44        3.13218  -0.00066   0.00000  -0.01915  -0.01921   3.11297
   D45        1.03788  -0.00057   0.00000  -0.01758  -0.01764   1.02024
   D46       -3.09815   0.00003   0.00000  -0.00327  -0.00328  -3.10143
   D47        1.09573   0.00023   0.00000  -0.00014  -0.00014   1.09560
   D48       -0.99857   0.00033   0.00000   0.00143   0.00144  -0.99713
   D49        2.46395  -0.00045   0.00000   0.00630   0.00626   2.47021
   D50       -0.70480  -0.00085   0.00000  -0.01191  -0.01194  -0.71674
   D51       -1.70190   0.00115   0.00000   0.03617   0.03622  -1.66569
   D52        1.41254   0.00074   0.00000   0.01796   0.01802   1.43055
   D53        0.35094   0.00034   0.00000   0.02204   0.02201   0.37295
   D54       -2.81781  -0.00007   0.00000   0.00382   0.00381  -2.81400
   D55        3.10127  -0.00041   0.00000  -0.01405  -0.01413   3.08714
   D56       -0.01294   0.00008   0.00000   0.00447   0.00448  -0.00846
   D57       -3.09890   0.00025   0.00000   0.00974   0.00968  -3.08922
   D58        0.01271  -0.00019   0.00000  -0.01018  -0.01010   0.00261
         Item               Value     Threshold  Converged?
 Maximum Force            0.010909     0.000015     NO 
 RMS     Force            0.003576     0.000010     NO 
 Maximum Displacement     0.067977     0.000060     NO 
 RMS     Displacement     0.021349     0.000040     NO 
 GradGradGradGradGradGradGradGradGradGradGradGradGradGradGradGradGradGrad

                    Distance matrix (angstroms):
                    1          2          3          4          5
     1  C    0.000000
     2  C    1.540341   0.000000
     3  C    2.544801   1.531633   0.000000
     4  C    2.475068   1.515814   2.509851   0.000000
     5  O    3.215770   2.371974   3.586609   1.309320   0.000000
     6  O    3.125621   2.402150   2.877809   1.221209   2.230519
     7  H    1.103429   2.184045   2.802769   2.736478   3.694102
     8  H    1.103289   2.196833   3.508358   2.722510   3.045239
     9  H    1.103117   2.180480   2.789218   3.442249   4.144751
    10  H    2.161496   1.100836   2.173504   2.115365   2.405024
    11  H    2.823272   2.174395   1.102384   2.741632   4.002175
    12  H    2.767692   2.174068   1.103021   3.467077   4.450216
    13  H    3.510227   2.190406   1.103318   2.801143   3.705047
    14  H    4.011451   3.253012   4.342697   1.906276   1.004933
    15  C    7.981748   7.548302   8.465138   6.069906   5.455949
    16  C    7.443685   6.853442   7.547207   5.338309   4.968505
    17  C    8.280453   7.441900   7.972738   5.954867   5.550779
    18  C    5.956220   5.338362   6.069257   3.823790   3.524797
    19  O    5.548095   4.969294   5.458814   3.525562   3.696113
    20  O    5.447208   4.781371   5.717182   3.311671   2.646060
    21  H    7.686197   7.465976   8.467212   6.042063   5.484448
    22  H    9.075841   8.627639   9.501376   7.138818   6.532107
    23  H    7.841735   7.337730   8.346228   5.905618   5.086696
    24  H    7.753975   7.266791   7.852587   5.776504   5.618195
    25  H    8.199587   7.268800   7.874186   5.826523   5.231483
    26  H    9.338434   8.535452   9.061413   7.042122   6.620487
    27  H    8.174000   7.240942   7.565431   5.803627   5.604242
    28  H    4.603874   3.988026   4.467955   2.584052   2.970919
                    6          7          8          9         10
     6  O    0.000000
     7  H    2.942865   0.000000
     8  H    3.488333   1.791359   0.000000
     9  H    4.120739   1.789429   1.786761   0.000000
    10  H    3.229480   3.081579   2.499027   2.516483   0.000000
    11  H    2.635503   2.632003   3.831970   3.185024   3.086548
    12  H    3.924235   3.117269   3.783421   2.555833   2.544571
    13  H    3.138460   3.829175   4.361222   3.789253   2.506368
    14  H    2.333653   4.306385   3.780871   5.013627   3.397719
    15  C    5.720537   7.887536   7.576020   9.069965   7.848988
    16  C    4.781793   7.270623   7.243992   8.537086   7.266264
    17  C    5.442455   8.195449   8.179602   9.338140   7.756176
    18  C    3.312165   5.827840   5.805932   7.043334   5.776078
    19  O    2.647157   5.227160   5.600486   6.618148   5.619640
    20  O    3.209180   5.534549   5.176278   6.505037   5.024327
    21  H    5.691326   7.526208   7.202279   8.769500   7.825678
    22  H    6.741374   8.955392   8.674165  10.166535   8.927212
    23  H    5.770915   7.900797   7.370373   8.898229   7.486703
    24  H    5.026136   7.426294   7.618934   8.849758   7.814012
    25  H    5.528992   8.262427   8.051263   9.225089   7.428765
    26  H    6.500840   9.221537   9.208252  10.405529   8.851734
    27  H    5.168525   8.038396   8.221223   9.202540   7.623074
    28  H    1.642605   4.310891   4.744889   5.657443   4.689579
                   11         12         13         14         15
    11  H    0.000000
    12  H    1.792050   0.000000
    13  H    1.785504   1.786979   0.000000
    14  H    4.591468   5.291482   4.387544   0.000000
    15  C    8.350774   9.502081   8.461315   4.464838   0.000000
    16  C    7.337530   8.626799   7.463103   3.986638   1.531500
    17  C    7.829174   9.067379   7.675271   4.607119   2.544941
    18  C    5.905816   7.138379   6.040014   2.582156   2.510254
    19  O    5.089476   6.534601   5.489191   2.968645   3.590335
    20  O    5.769095   6.738655   5.684081   1.641533   2.874942
    21  H    8.308936   9.464146   8.606009   4.551501   1.103307
    22  H    9.358098  10.551798   9.457657   5.534987   1.103020
    23  H    8.376556   9.354691   8.295579   4.120079   1.102365
    24  H    7.491508   8.930518   7.830623   4.686751   2.173543
    25  H    7.883825   8.943114   7.507503   4.316815   2.802858
    26  H    8.886456  10.158419   8.758942   5.660251   2.789546
    27  H    7.352869   8.663834   7.193213   4.748901   3.508391
    28  H    4.122138   5.537509   4.557247   2.449083   4.347495
                   16         17         18         19         20
    16  C    0.000000
    17  C    1.540451   0.000000
    18  C    1.515813   2.474815   0.000000
    19  O    2.371654   3.208409   1.309400   0.000000
    20  O    2.402315   3.131009   1.221169   2.230651   0.000000
    21  H    2.190269   3.510311   2.801946   3.713191   3.132596
    22  H    2.173971   2.767512   3.467348   4.452910   3.922310
    23  H    2.174285   2.823873   2.741790   4.004282   2.633352
    24  H    1.100872   2.161257   2.115288   2.406559   3.228362
    25  H    2.184200   1.103447   2.736703   3.686716   2.950579
    26  H    2.180568   1.103117   3.442058   4.138486   4.125215
    27  H    2.196879   1.103271   2.721710   3.033826   3.494594
    28  H    3.253917   4.006404   1.908050   1.005069   2.336267
                   21         22         23         24         25
    21  H    0.000000
    22  H    1.787011   0.000000
    23  H    1.785365   1.792077   0.000000
    24  H    2.506280   2.544807   3.086554   0.000000
    25  H    3.829436   3.116683   2.632645   3.081485   0.000000
    26  H    3.789324   2.555874   3.186076   2.516076   1.789354
    27  H    4.361168   3.783346   3.832313   2.498763   1.791411
    28  H    4.396277   5.295208   4.595332   3.399212   4.301496
                   26         27         28
    26  H    0.000000
    27  H    1.786782   0.000000
    28  H    5.009177   3.771754   0.000000
 Framework group  C1[X(C8H16O4)]
 Deg. of freedom    78
                         Standard orientation:                         
 ---------------------------------------------------------------------
 Center     Atomic      Atomic             Coordinates (Angstroms)
 Number     Number       Type             X           Y           Z
 ---------------------------------------------------------------------
      1          6           0       -3.926736   -1.051202    0.791872
      2          6           0       -3.403816   -0.168875   -0.357348
      3          6           0       -4.035861    1.226139   -0.338536
      4          6           0       -1.895413   -0.080543   -0.236482
      5          8           0       -1.250009   -0.937799   -0.986737
      6          8           0       -1.345560    0.692325    0.532730
      7          1           0       -3.688639   -0.591632    1.766377
      8          1           0       -3.478259   -2.058731    0.760230
      9          1           0       -5.021914   -1.159971    0.716887
     10          1           0       -3.617762   -0.670970   -1.313365
     11          1           0       -3.754908    1.759202    0.584589
     12          1           0       -5.135181    1.145829   -0.379809
     13          1           0       -3.702418    1.831342   -1.198684
     14          1           0       -0.260749   -0.864308   -0.825950
     15          6           0        4.039132   -1.227194    0.320402
     16          6           0        3.403955    0.165867    0.358096
     17          6           0        3.922978    1.064398   -0.780433
     18          6           0        1.895517    0.076482    0.238456
     19          8           0        1.250640    0.932934    0.990221
     20          8           0        1.345290   -0.695361   -0.531455
     21          1           0        3.708939   -1.843922    1.173576
     22          1           0        5.138353   -1.144861    0.360251
     23          1           0        3.757272   -1.749369   -0.608628
     24          1           0        3.618406    0.656438    1.320005
     25          1           0        3.684858    0.616799   -1.760508
     26          1           0        5.017972    1.175066   -0.705552
     27          1           0        3.471868    2.070208   -0.735134
     28          1           0        0.260748    0.861666    0.831476
 ---------------------------------------------------------------------
 Rotational constants (GHZ):           2.3337091           0.3260395           0.3139739
   200 basis functions,   364 primitive gaussians,   212 cartesian basis functions
    48 alpha electrons       48 beta electrons
       nuclear repulsion energy       739.4780969047 Hartrees.
 NAtoms=   28 NActive=   28 NUniq=   28 SFac= 1.00D+00 NAtFMM=   60 NAOKFM=F Big=F
 Nuclear repulsion after empirical dispersion term =      739.4623659732 Hartrees.
   1 Symmetry operations used in ECPInt.
 ECPInt:  NShTT=    5460 NPrTT=   21940 LenC2=    5115 LenP2D=   14530.
 LDataN:  DoStor=T MaxTD1= 4 Len=   56
 Initial guess from the checkpoint file:  "dimer.chk"
 B after Tr=     0.000000    0.000000    0.000000
         Rot=    0.999977   -0.006814    0.000223   -0.000008 Ang=  -0.78 deg.
 ExpMin= 1.22D-01 ExpMax= 2.27D+03 ExpMxC= 3.41D+02 IAcc=3 IRadAn=         5 AccDes= 0.00D+00
 Harris functional with IExCor= 4639 and IRadAn=       5 diagonalized for initial guess.
 HarFok:  IExCor= 4639 AccDes= 0.00D+00 IRadAn=         5 IDoV= 1 UseB2=F ITyADJ=14
 ICtDFT=  3500011 ScaDFX=  1.000000  1.000000  1.000000  1.000000
 FoFCou: FMM=F IPFlag=           0 FMFlag=      100000 FMFlg1=           0
         NFxFlg=           0 DoJE=T BraDBF=F KetDBF=T FulRan=T
         wScrn=  0.000000 ICntrl=       500 IOpCl=  0 I1Cent=   200000004 NGrid=           0
         NMat0=    1 NMatS0=      1 NMatT0=    0 NMatD0=    1 NMtDS0=    0 NMtDT0=    0
 Petite list used in FoFCou.
     Accept linear search using points  3 and  4.
     Accept linear search using points  2 and  3.
     Accept linear search using points  1 and  2.
     Minimum is close to point  2 DX= -6.30D-02 DF= -3.56D-07 DXR=  6.72D-02 DFR=  4.53D-03 which will be used.
     Accept linear search using points  1 and  2.
     Minimum is close to point  2 DX= -6.50D-05 DF= -3.41D-13 DXR=  6.50D-05 DFR=  4.54D-09 which will be used.
 SCF Done:  E(RwB97XD) =  -614.781322064     a.u. after    6 cycles
            Convg  =    0.3375D-09                    34 Fock formations.
              S**2 =  0.0000                  -V/T =  2.0091
   1 Symmetry operations used in ECPInt.
 ECPInt:  NShTT=    5460 NPrTT=   21940 LenC2=    5115 LenP2D=   14530.
 LDataN:  DoStor=T MaxTD1= 5 Len=  102
 Calling FoFJK, ICntrl=      2127 FMM=F ISym2X=0 I1Cent= 0 IOpClX= 0 NMat=1 NMatS=1 NMatT=0.

 GradGradGradGradGradGradGradGradGradGradGradGradGradGradGradGradGradGrad
 Using GEDIIS/GDIIS optimizer.
 FormGI is forming the generalized inverse of G from B-inverse, IUseBI=4.
 Internal  Forces:  Max     0.002128811 RMS     0.000524658
 Step number   2 out of a maximum of  146
 All quantities printed in internal units (Hartrees-Bohrs-Radians)
 Mixed Optimization -- En-DIIS/RFO-DIIS
 Trust test= 9.38D-01 RLast= 2.05D-01 DXMaxT set to 5.05D-01
 ITU=  1  0
 Use linear search instead of GDIIS.
     Eigenvalues ---    0.00336   0.00337   0.00425   0.00426   0.00504
     Eigenvalues ---    0.00558   0.00560   0.01286   0.01693   0.01845
     Eigenvalues ---    0.02062   0.03211   0.03617   0.04052   0.04062
     Eigenvalues ---    0.04592   0.04634   0.04857   0.05365   0.05514
     Eigenvalues ---    0.05515   0.05578   0.05580   0.05651   0.05653
     Eigenvalues ---    0.05692   0.05695   0.06004   0.06006   0.08134
     Eigenvalues ---    0.09395   0.15842   0.16000   0.16000   0.16000
     Eigenvalues ---    0.16000   0.16000   0.16000   0.16000   0.16000
     Eigenvalues ---    0.16000   0.16000   0.16000   0.16331   0.16647
     Eigenvalues ---    0.16652   0.17687   0.17692   0.21234   0.22946
     Eigenvalues ---    0.24807   0.24988   0.29197   0.29359   0.29819
     Eigenvalues ---    0.29827   0.30742   0.30800   0.34241   0.34437
     Eigenvalues ---    0.35042   0.35071   0.35083   0.35091   0.35099
     Eigenvalues ---    0.35113   0.35138   0.35141   0.35147   0.35165
     Eigenvalues ---    0.35175   0.36040   0.44009   0.46619   0.63194
     Eigenvalues ---    0.65104   0.92049   0.95714
 Quartic linear search produced a step of -0.01118.
 Iteration  1 RMS(Cart)=  0.01824010 RMS(Int)=  0.00019518
 Iteration  2 RMS(Cart)=  0.00027500 RMS(Int)=  0.00001698
 Iteration  3 RMS(Cart)=  0.00000009 RMS(Int)=  0.00001698
 Variable       Old X    -DE/DX   Delta X   Delta X   Delta X     New X
                                 (Linear)    (Quad)   (Total)
    R1        2.91082  -0.00212  -0.00017  -0.00642  -0.00659   2.90423
    R2        2.08518   0.00013  -0.00033   0.00183   0.00150   2.08668
    R3        2.08491  -0.00016  -0.00033   0.00102   0.00069   2.08560
    R4        2.08459  -0.00001  -0.00034   0.00148   0.00114   2.08573
    R5        2.89437  -0.00196  -0.00012  -0.00593  -0.00605   2.88831
    R6        2.86447  -0.00075  -0.00001  -0.00237  -0.00237   2.86210
    R7        2.08028   0.00054  -0.00016   0.00225   0.00209   2.08237
    R8        2.08320   0.00007  -0.00032   0.00161   0.00129   2.08450
    R9        2.08441   0.00008  -0.00034   0.00172   0.00138   2.08579
   R10        2.08497  -0.00014  -0.00033   0.00109   0.00076   2.08573
   R11        2.47426   0.00047  -0.00004   0.00094   0.00090   2.47516
   R12        2.30775   0.00196  -0.00007   0.00231   0.00223   2.30998
   R13        1.89905   0.00110   0.00006   0.00221   0.00227   1.90132
   R14        3.10407  -0.00091   0.00015  -0.01232  -0.01217   3.09190
   R15        3.10205  -0.00091   0.00017  -0.01094  -0.01077   3.09128
   R16        2.89412  -0.00195  -0.00012  -0.00591  -0.00604   2.88808
   R17        2.08495  -0.00014  -0.00033   0.00109   0.00076   2.08570
   R18        2.08441   0.00007  -0.00034   0.00172   0.00138   2.08579
   R19        2.08317   0.00007  -0.00032   0.00162   0.00130   2.08447
   R20        2.91103  -0.00213  -0.00017  -0.00646  -0.00662   2.90440
   R21        2.86447  -0.00075  -0.00001  -0.00237  -0.00237   2.86210
   R22        2.08035   0.00054  -0.00016   0.00226   0.00210   2.08245
   R23        2.08521   0.00013  -0.00033   0.00184   0.00151   2.08672
   R24        2.08459  -0.00001  -0.00034   0.00147   0.00113   2.08572
   R25        2.08488  -0.00016  -0.00033   0.00100   0.00067   2.08555
   R26        2.47441   0.00040  -0.00004   0.00074   0.00070   2.47511
   R27        2.30768   0.00199  -0.00007   0.00240   0.00232   2.31000
   R28        1.89931   0.00092   0.00006   0.00157   0.00163   1.90094
    A1        1.92526   0.00038  -0.00006   0.00293   0.00288   1.92813
    A2        1.94303  -0.00019  -0.00013  -0.00072  -0.00085   1.94219
    A3        1.92070  -0.00008  -0.00003  -0.00058  -0.00061   1.92008
    A4        1.89437  -0.00006   0.00006  -0.00020  -0.00014   1.89423
    A5        1.89160  -0.00012   0.00008  -0.00085  -0.00077   1.89082
    A6        1.88764   0.00007   0.00010  -0.00066  -0.00056   1.88708
    A7        1.95246  -0.00010  -0.00015  -0.00031  -0.00045   1.95200
    A8        1.88779   0.00008  -0.00016   0.00187   0.00172   1.88951
    A9        1.89726  -0.00012   0.00012  -0.00343  -0.00332   1.89394
   A10        1.93541   0.00008  -0.00008   0.00189   0.00181   1.93722
   A11        1.92398  -0.00003   0.00008  -0.00170  -0.00163   1.92235
   A12        1.86421   0.00010   0.00020   0.00173   0.00193   1.86614
   A13        1.92361   0.00043  -0.00008   0.00340   0.00332   1.92693
   A14        1.92250   0.00008  -0.00000   0.00039   0.00039   1.92289
   A15        1.94477  -0.00010  -0.00015  -0.00025  -0.00039   1.94437
   A16        1.89710  -0.00021   0.00006  -0.00101  -0.00095   1.89615
   A17        1.88658  -0.00015   0.00007  -0.00103  -0.00096   1.88562
   A18        1.88806  -0.00007   0.00010  -0.00165  -0.00154   1.88652
   A19        1.98961   0.00037  -0.00014   0.00224   0.00203   1.99164
   A20        2.13549  -0.00039   0.00012  -0.00189  -0.00185   2.13364
   A21        2.15717   0.00003   0.00002   0.00055   0.00050   2.15767
   A22        1.92376   0.00103   0.00049   0.00547   0.00596   1.92972
   A23        2.23967  -0.00095   0.00019  -0.00700  -0.00681   2.23286
   A24        1.94475  -0.00010  -0.00015  -0.00024  -0.00039   1.94436
   A25        1.92253   0.00008  -0.00000   0.00035   0.00034   1.92288
   A26        1.92364   0.00045  -0.00008   0.00349   0.00341   1.92705
   A27        1.88813  -0.00007   0.00010  -0.00165  -0.00155   1.88658
   A28        1.88640  -0.00016   0.00007  -0.00104  -0.00096   1.88544
   A29        1.89717  -0.00021   0.00006  -0.00104  -0.00099   1.89618
   A30        1.95264  -0.00011  -0.00015  -0.00028  -0.00043   1.95221
   A31        1.93600   0.00008  -0.00008   0.00190   0.00182   1.93782
   A32        1.92416  -0.00003   0.00008  -0.00171  -0.00164   1.92252
   A33        1.88741   0.00009  -0.00016   0.00195   0.00180   1.88921
   A34        1.89677  -0.00012   0.00012  -0.00345  -0.00334   1.89343
   A35        1.86408   0.00009   0.00020   0.00164   0.00184   1.86592
   A36        1.92532   0.00038  -0.00006   0.00294   0.00288   1.92820
   A37        1.92069  -0.00009  -0.00004  -0.00062  -0.00065   1.92003
   A38        1.94298  -0.00019  -0.00013  -0.00072  -0.00085   1.94213
   A39        1.89146  -0.00012   0.00008  -0.00085  -0.00077   1.89068
   A40        1.89445  -0.00006   0.00006  -0.00019  -0.00014   1.89432
   A41        1.88770   0.00008   0.00010  -0.00063  -0.00053   1.88717
   A42        1.98911   0.00030  -0.00013   0.00199   0.00178   1.99088
   A43        2.13579  -0.00039   0.00012  -0.00184  -0.00181   2.13399
   A44        2.15733   0.00011   0.00002   0.00080   0.00075   2.15808
   A45        1.92623   0.00084   0.00046   0.00254   0.00301   1.92924
   A46        2.23825  -0.00095   0.00020  -0.00575  -0.00554   2.23272
   A47        3.10599  -0.00021  -0.00072  -0.00091  -0.00162   3.10437
   A48        3.10109   0.00009  -0.00066   0.00419   0.00354   3.10463
   A49        3.14764  -0.00001  -0.00006  -0.00243  -0.00251   3.14513
   A50        3.14589   0.00004  -0.00004   0.00448   0.00443   3.15032
    D1       -1.05349  -0.00006   0.00005   0.00528   0.00533  -1.04816
    D2        1.08305   0.00003  -0.00025   0.00874   0.00849   1.09154
    D3        3.10104   0.00013  -0.00004   0.00997   0.00993   3.11097
    D4        3.12550  -0.00011   0.00010   0.00403   0.00414   3.12964
    D5       -1.02114  -0.00002  -0.00020   0.00749   0.00729  -1.01385
    D6        0.99685   0.00007   0.00001   0.00872   0.00873   1.00558
    D7        1.03280  -0.00002   0.00008   0.00571   0.00579   1.03859
    D8       -3.11384   0.00007  -0.00022   0.00916   0.00895  -3.10489
    D9       -1.09585   0.00016  -0.00000   0.01040   0.01039  -1.08546
   D10        1.10653   0.00003   0.00001  -0.01752  -0.01752   1.08901
   D11       -0.98669  -0.00004  -0.00002  -0.01868  -0.01870  -1.00539
   D12       -3.08224   0.00006  -0.00005  -0.01672  -0.01677  -3.09900
   D13       -1.00259  -0.00006   0.00036  -0.02102  -0.02066  -1.02325
   D14       -3.09581  -0.00013   0.00034  -0.02218  -0.02184  -3.11766
   D15        1.09183  -0.00002   0.00030  -0.02021  -0.01991   1.07192
   D16       -3.06341  -0.00021   0.00011  -0.02326  -0.02315  -3.08656
   D17        1.12656  -0.00028   0.00009  -0.02442  -0.02433   1.10223
   D18       -0.96899  -0.00018   0.00006  -0.02245  -0.02240  -0.99139
   D19        1.67819   0.00004   0.00040  -0.01767  -0.01727   1.66092
   D20       -1.41899  -0.00037   0.00021  -0.03941  -0.03921  -1.45819
   D21       -2.45806   0.00001   0.00007  -0.01559  -0.01553  -2.47358
   D22        0.72795  -0.00039  -0.00013  -0.03733  -0.03746   0.69049
   D23       -0.36127   0.00009   0.00024  -0.01551  -0.01527  -0.37654
   D24        2.82474  -0.00032   0.00005  -0.03725  -0.03720   2.78753
   D25       -3.08821  -0.00024  -0.00016  -0.01142  -0.01158  -3.09978
   D26        0.00835   0.00015   0.00005   0.01056   0.01063   0.01898
   D27        3.08816   0.00029   0.00010   0.01257   0.01268   3.10083
   D28       -0.00472  -0.00016  -0.00011  -0.01131  -0.01140  -0.01612
   D29       -0.00345  -0.00016  -0.00008  -0.01171  -0.01178  -0.01523
   D30        0.00715   0.00015   0.00008   0.00946   0.00954   0.01669
   D31        3.08152  -0.00007   0.00005   0.01720   0.01725   3.09877
   D32       -1.09249   0.00003  -0.00031   0.02083   0.02052  -1.07197
   D33        0.96864   0.00018  -0.00006   0.02296   0.02290   0.99154
   D34        0.98589   0.00004   0.00001   0.01921   0.01922   1.00511
   D35        3.09506   0.00014  -0.00034   0.02283   0.02249   3.11755
   D36       -1.12699   0.00029  -0.00009   0.02496   0.02487  -1.10212
   D37       -1.10745  -0.00003  -0.00001   0.01806   0.01806  -1.08940
   D38        1.00172   0.00006  -0.00036   0.02169   0.02133   1.02305
   D39        3.06285   0.00021  -0.00011   0.02382   0.02371   3.08656
   D40        1.05309   0.00006  -0.00005  -0.00501  -0.00506   1.04803
   D41       -1.03307   0.00003  -0.00008  -0.00542  -0.00550  -1.03857
   D42       -3.12580   0.00012  -0.00010  -0.00375  -0.00386  -3.12965
   D43       -1.08406  -0.00003   0.00025  -0.00855  -0.00830  -1.09236
   D44        3.11297  -0.00007   0.00021  -0.00896  -0.00874   3.10423
   D45        1.02024   0.00002   0.00020  -0.00729  -0.00710   1.01314
   D46       -3.10143  -0.00013   0.00004  -0.00971  -0.00967  -3.11110
   D47        1.09560  -0.00016   0.00000  -0.01012  -0.01011   1.08549
   D48       -0.99713  -0.00007  -0.00002  -0.00845  -0.00847  -1.00560
   D49        2.47021  -0.00002  -0.00007   0.01495   0.01489   2.48510
   D50       -0.71674   0.00040   0.00013   0.03758   0.03771  -0.67903
   D51       -1.66569  -0.00005  -0.00040   0.01713   0.01672  -1.64896
   D52        1.43055   0.00038  -0.00020   0.03976   0.03955   1.47010
   D53        0.37295  -0.00010  -0.00025   0.01494   0.01469   0.38764
   D54       -2.81400   0.00033  -0.00004   0.03757   0.03752  -2.77648
   D55        3.08714   0.00024   0.00016   0.01167   0.01184   3.09898
   D56       -0.00846  -0.00017  -0.00005  -0.01120  -0.01127  -0.01973
   D57       -3.08922  -0.00029  -0.00011  -0.01286  -0.01296  -3.10218
   D58        0.00261   0.00018   0.00011   0.01199   0.01209   0.01470
         Item               Value     Threshold  Converged?
 Maximum Force            0.002129     0.000015     NO 
 RMS     Force            0.000525     0.000010     NO 
 Maximum Displacement     0.065058     0.000060     NO 
 RMS     Displacement     0.018249     0.000040     NO 
 GradGradGradGradGradGradGradGradGradGradGradGradGradGradGradGradGradGrad

                    Distance matrix (angstroms):
                    1          2          3          4          5
     1  C    0.000000
     2  C    1.536854   0.000000
     3  C    2.538869   1.528430   0.000000
     4  C    2.472758   1.514558   2.507733   0.000000
     5  O    3.206305   2.372826   3.590223   1.309796   0.000000
     6  O    3.142240   2.400811   2.863297   1.222390   2.232272
     7  H    1.104224   2.183669   2.797577   2.741431   3.690936
     8  H    1.103651   2.193415   3.502620   2.716636   3.027783
     9  H    1.103721   2.177415   2.785941   3.439982   4.134725
    10  H    2.156791   1.101945   2.170335   2.116540   2.411496
    11  H    2.812701   2.174508   1.103068   2.752527   4.016263
    12  H    2.771165   2.172085   1.103754   3.465948   4.449923
    13  H    3.505012   2.187601   1.103720   2.790158   3.708001
    14  H    4.011711   3.256992   4.347096   1.911461   1.006133
    15  C    7.978438   7.536403   8.449199   6.057761   5.437660
    16  C    7.447387   6.847940   7.537526   5.333799   4.960622
    17  C    8.294980   7.450746   7.978008   5.966530   5.564851
    18  C    5.964124   5.333703   6.058411   3.819851   3.516904
    19  O    5.559163   4.960619   5.440329   3.517181   3.684967
    20  O    5.449353   4.780811   5.715711   3.312717   2.641534
    21  H    7.658533   7.428715   8.428252   6.003798   5.433825
    22  H    9.070854   8.618651   9.488808   7.130066   6.521099
    23  H    7.862953   7.348827   8.351317   5.916412   5.092140
    24  H    7.756163   7.259454   7.841447   5.769628   5.607112
    25  H    8.227406   7.292013   7.893316   5.853041   5.262464
    26  H    9.350461   8.543193   9.065666   7.052103   6.633823
    27  H    8.189033   7.250084   7.571403   5.816516   5.620916
    28  H    4.615203   3.978563   4.447851   2.574937   2.960349
                    6          7          8          9         10
     6  O    0.000000
     7  H    2.972482   0.000000
     8  H    3.506451   1.792209   0.000000
     9  H    4.135359   1.790064   1.787178   0.000000
    10  H    3.226879   3.080485   2.496015   2.506841   0.000000
    11  H    2.639738   2.619868   3.823018   3.173834   3.087154
    12  H    3.918453   3.124337   3.785821   2.561249   2.532388
    13  H    3.097142   3.821566   4.355838   3.790007   2.510258
    14  H    2.341430   4.314770   3.774772   5.012331   3.404212
    15  C    5.716853   7.895704   7.571219   9.065784   7.838091
    16  C    4.780523   7.286618   7.246022   8.540181   7.260949
    17  C    5.447269   8.221235   8.191845   9.351352   7.765452
    18  C    3.312524   5.849146   5.813719   7.049994   5.770555
    19  O    2.641650   5.254039   5.613621   6.628731   5.608833
    20  O    3.216230   5.547783   5.173992   6.505318   5.024187
    21  H    5.671261   7.511749   7.171868   8.741642   7.788247
    22  H    6.737136   8.958837   8.667002  10.161121   8.922066
    23  H    5.787773   7.933653   7.391363   8.917262   7.497663
    24  H    5.023945   7.440231   7.619032   8.852727   7.807385
    25  H    5.545990   8.301247   8.076919   9.250442   7.451998
    26  H    6.503320   9.243402   9.218024  10.416746   8.861552
    27  H    5.170469   8.065118   8.233820   9.216526   7.631783
    28  H    1.636164   4.338551   4.758594   5.667699   4.677795
                   11         12         13         14         15
    11  H    0.000000
    12  H    1.792589   0.000000
    13  H    1.785760   1.786899   0.000000
    14  H    4.610528   5.293490   4.384462   0.000000
    15  C    8.353423   9.488606   8.427147   4.445443   0.000000
    16  C    7.348562   8.619549   7.432225   3.978378   1.528305
    17  C    7.856543   9.071213   7.660542   4.619782   2.539020
    18  C    5.916118   7.130548   6.006053   2.574549   2.508151
    19  O    5.093200   6.523054   5.440553   2.960399   3.593470
    20  O    5.786608   6.736365   5.668842   1.635835   2.860589
    21  H    8.288437   9.429645   8.549823   4.501112   1.103706
    22  H    9.361913  10.541285   9.429426   5.523260   1.103750
    23  H    8.400508   9.360302   8.282082   4.123315   1.103052
    24  H    7.499912   8.924418   7.797154   4.676207   2.170373
    25  H    7.925075   8.958059   7.508337   4.345503   2.797811
    26  H    8.911296  10.161666   8.744418   5.671668   2.786113
    27  H    7.382463   8.667999   7.177474   4.764354   3.502649
    28  H    4.124361   5.525010   4.506848   2.443940   4.349633
                   16         17         18         19         20
    16  C    0.000000
    17  C    1.536945   0.000000
    18  C    1.514557   2.472559   0.000000
    19  O    2.372230   3.199031   1.309772   0.000000
    20  O    2.401044   3.147916   1.222399   2.232502   0.000000
    21  H    2.187470   3.505112   2.790702   3.715324   3.090770
    22  H    2.171962   2.771197   3.466221   4.452074   3.916761
    23  H    2.174471   2.813145   2.753078   4.018328   2.638495
    24  H    1.101984   2.156524   2.116400   2.412577   3.225603
    25  H    2.183812   1.104244   2.741640   3.683595   2.980592
    26  H    2.177456   1.103718   3.439808   4.128489   4.140013
    27  H    2.193435   1.103625   2.715988   3.016740   3.513073
    28  H    3.256186   4.005455   1.910980   1.005933   2.341304
                   21         22         23         24         25
    21  H    0.000000
    22  H    1.786922   0.000000
    23  H    1.785620   1.792593   0.000000
    24  H    2.510343   2.532381   3.087225   0.000000
    25  H    3.821835   3.124317   2.620467   3.080369   0.000000
    26  H    3.790085   2.561326   3.174350   2.506471   1.789989
    27  H    4.355778   3.785811   3.823334   2.495615   1.792259
    28  H    4.390627   5.295133   4.612223   3.404586   4.308190
                   26         27         28
    26  H    0.000000
    27  H    1.787212   0.000000
    28  H    5.006785   3.765292   0.000000
 Framework group  C1[X(C8H16O4)]
 Deg. of freedom    78
                         Standard orientation:                         
 ---------------------------------------------------------------------
 Center     Atomic      Atomic             Coordinates (Angstroms)
 Number     Number       Type             X           Y           Z
 ---------------------------------------------------------------------
      1          6           0       -3.934769   -1.046990    0.787073
      2          6           0       -3.401610   -0.167916   -0.355245
      3          6           0       -4.028576    1.225923   -0.340279
      4          6           0       -1.894632   -0.086454   -0.227691
      5          8           0       -1.247715   -0.958668   -0.960021
      6          8           0       -1.345294    0.712352    0.516872
      7          1           0       -3.708769   -0.587823    1.765542
      8          1           0       -3.485334   -2.054629    0.760270
      9          1           0       -5.029517   -1.156946    0.699683
     10          1           0       -3.615803   -0.670093   -1.312440
     11          1           0       -3.769577    1.754128    0.592822
     12          1           0       -5.127539    1.149737   -0.409190
     13          1           0       -3.673510    1.836437   -1.188452
     14          1           0       -0.256337   -0.883819   -0.805515
     15          6           0        4.028339   -1.229470    0.327638
     16          6           0        3.400997    0.163812    0.358040
     17          6           0        3.935913    1.056887   -0.772660
     18          6           0        1.894215    0.084380    0.226965
     19          8           0        1.247618    0.957446    0.958520
     20          8           0        1.345174   -0.713192   -0.519152
     21          1           0        3.672015   -1.850058    1.167918
     22          1           0        5.127161   -1.153791    0.399248
     23          1           0        3.771006   -1.746820   -0.611964
     24          1           0        3.613484    0.654905    1.321391
     25          1           0        3.712041    0.609473   -1.757066
     26          1           0        5.030454    1.166151   -0.681912
     27          1           0        3.485979    2.063907   -0.734467
     28          1           0        0.256708    0.884698    0.801337
 ---------------------------------------------------------------------
 Rotational constants (GHZ):           2.3410452           0.3266697           0.3136552
   200 basis functions,   364 primitive gaussians,   212 cartesian basis functions
    48 alpha electrons       48 beta electrons
       nuclear repulsion energy       739.7885311979 Hartrees.
 NAtoms=   28 NActive=   28 NUniq=   28 SFac= 1.00D+00 NAtFMM=   60 NAOKFM=F Big=F
 Nuclear repulsion after empirical dispersion term =      739.7727850180 Hartrees.
   1 Symmetry operations used in ECPInt.
 ECPInt:  NShTT=    5460 NPrTT=   21940 LenC2=    5113 LenP2D=   14533.
 LDataN:  DoStor=T MaxTD1= 4 Len=   56
 Initial guess from the checkpoint file:  "dimer.chk"
 B after Tr=    -0.000000    0.000000   -0.000000
         Rot=    0.999989    0.004726    0.000465    0.000425 Ang=   0.55 deg.
 ExpMin= 1.22D-01 ExpMax= 2.27D+03 ExpMxC= 3.41D+02 IAcc=3 IRadAn=         5 AccDes= 0.00D+00
 Harris functional with IExCor= 4639 and IRadAn=       5 diagonalized for initial guess.
 HarFok:  IExCor= 4639 AccDes= 0.00D+00 IRadAn=         5 IDoV= 1 UseB2=F ITyADJ=14
 ICtDFT=  3500011 ScaDFX=  1.000000  1.000000  1.000000  1.000000
 FoFCou: FMM=F IPFlag=           0 FMFlag=      100000 FMFlg1=           0
         NFxFlg=           0 DoJE=T BraDBF=F KetDBF=T FulRan=T
         wScrn=  0.000000 ICntrl=       500 IOpCl=  0 I1Cent=   200000004 NGrid=           0
         NMat0=    1 NMatS0=      1 NMatT0=    0 NMatD0=    1 NMtDS0=    0 NMtDT0=    0
 Petite list used in FoFCou.
     Minimum is close to point  4 DX=  1.17D-01 DF= -7.10D-06 DXR=  8.86D-02 DFR=  7.91D-03 which will be used.
     Accept linear search using points  1 and  2.
     Accept linear search using points  1 and  2.
     Minimum is close to point  2 DX= -6.16D-02 DF= -2.09D-07 DXR=  7.35D-02 DFR=  4.44D-03 which will be used.
     Accept linear search using points  1 and  2.
     Minimum is close to point  2 DX= -1.25D-04 DF= -1.14D-12 DXR=  1.25D-04 DFR=  1.58D-08 which will be used.
 SCF Done:  E(RwB97XD) =  -614.781478232     a.u. after    7 cycles
[...]
 0000014,-0.00000225,0.00000081,-0.00000036,-0.00000109,-0.00000366,-0.
 00000259,0.00000004,0.00000099,-0.00000235,0.00000190,0.00020770,0.000
 03594,-0.00006467,-0.07925614,0.10901781,-0.21347277,0.00072349,-0.001
 75793,0.00003331,0.00049836,0.00067697,0.00085269,-0.00145214,0.002212
 56,0.00038632,0.00024174,-0.00067133,-0.00021634,0.00012322,-0.0017090
 7,0.00042014,0.08681813,-0.11791618,0.22263855,-0.00001762,-0.00001270
 ,0.00002391,-0.00002513,0.00001857,-0.00000814,-0.00001394,0.00001626,
 -0.00000214,0.00027485,0.00001160,-0.00002238,-0.00041234,-0.00002045,
 0.00003623,-0.00038402,0.00005803,0.00004439,0.00000750,-0.00000034,-0
 .00000198,0.00001270,-0.00000756,0.00000286,-0.00001706,0.00000396,-0.
 00000669,-0.00001047,-0.00000193,-0.00000054,0.00000916,-0.00000086,0.
 00000127,-0.00001654,-0.00000449,0.00000126,0.00000879,0.00000070,-0.0
 0000366,0.00057487,-0.00009539,-0.00006904,-0.31290428,0.02344594,0.03
 260084,-0.01204672,0.00273612,0.00123202,0.00057916,0.00111919,-0.0003
 8866,0.00113353,-0.00109161,-0.00013535,-0.00166244,-0.00079438,0.0001
 2067,-0.00049058,-0.00066706,0.00005019,-0.00831132,-0.00006094,0.0023
 9450,0.33442509,-0.00000849,-0.00000665,0.00001037,-0.00001082,0.00002
 848,0.00000070,-0.00000233,0.00000639,-0.00000137,0.00003855,-0.000288
 69,-0.00003973,0.00001951,0.00013561,0.00001360,-0.00038015,0.00021830
 ,0.00006666,0.00000106,-0.00000156,-0.00000077,0.00000026,0.00000136,0
 .00000055,-0.00000358,0.00000362,-0.00000503,-0.00001047,0.00000119,0.
 00000218,0.00000386,0.00000042,0.00000171,-0.00000449,-0.00000058,0.00
 000049,0.00000311,0.00000105,-0.00000259,0.00007337,-0.00008409,-0.000
 01123,0.02598762,-0.05039779,-0.00317643,-0.03180014,0.00257267,0.0048
 4071,-0.00087450,0.00155824,-0.00049937,0.00090719,-0.00720056,0.00033
 409,-0.00305127,-0.00013268,0.00013955,0.00025249,0.00168395,-0.000046
 61,0.01506094,-0.00121268,-0.00417727,-0.02361230,0.05393348,0.0000006
 5,0.00000205,-0.00000175,0.00000145,-0.00000115,-0.00000201,0.00000134
 ,-0.00000137,0.00000128,-0.00002208,-0.00000999,-0.00000412,0.00004461
 ,0.00000226,0.00001529,0.00002592,-0.00000124,0.00000314,0.00000035,0.
 00000065,0.00000068,-0.00000018,-0.00000004,-0.00000135,0.00000085,-0.
 00000068,0.00000116,0.00000035,0.00000002,0.00000039,-0.00000047,0.000
 00028,-0.00000015,0.00000126,0.00000049,-0.00000002,-0.00000078,-0.000
 00029,0.00000004,-0.00005587,0.00001478,-0.00002891,0.03219613,-0.0026
 8455,-0.05421624,0.00076181,-0.00072896,-0.00134269,0.00075831,-0.0001
 2235,-0.00003922,-0.00006202,-0.00004160,0.00044710,0.00017646,0.00014
 433,0.00004115,0.00017169,0.00019648,0.00049966,-0.02462882,0.00041280
 ,0.00518680,-0.03510070,0.00255858,0.05008988,0.00000829,0.00000581,-0
 .00001364,0.00001294,0.00000304,0.00000541,0.00001022,-0.00000961,0.00
 000120,-0.00017597,-0.00019875,-0.00001696,0.00034679,0.00010827,-0.00
 000371,0.00007170,0.00008923,0.00000658,-0.00000326,0.00000079,0.00000
 235,-0.00000816,0.00000558,-0.00000339,0.00000965,-0.00000142,0.000003
 63,0.00000164,0.00000202,0.00000260,-0.00000371,0.00000141,0.00000042,
 0.00000916,0.00000386,-0.00000047,-0.00000442,-0.00000017,0.00000081,-
 0.00041450,0.00002012,0.00002382,-0.05751177,0.02674642,0.04289940,0.0
 0243467,-0.00769249,-0.01290646,0.00015673,0.00073845,-0.00017992,0.00
 094272,-0.00183714,-0.00162319,0.00016479,0.00081209,0.00017850,-0.000
 78430,0.00066880,0.00051571,0.00201097,-0.00749662,-0.01022461,-0.0023
 7705,0.01586148,0.02644549,0.05620912,-0.00000161,0.00000040,0.0000001
 2,-0.00000227,0.00000741,-0.00000241,0.00000051,0.00000108,-0.00000160
 ,-0.00001029,-0.00008541,-0.00002240,0.00004031,0.00001978,0.00001678,
 -0.00009960,0.00005837,0.00003560,0.00000092,-0.00000024,0.00000130,0.
 00000032,-0.00000002,-0.00000014,-0.00000072,0.00000039,-0.00000014,-0
 .00000311,0.00000240,0.00000085,0.00000141,0.00000033,0.00000142,-0.00
 000086,0.00000042,0.00000028,0.00000046,-0.00000145,-0.00000036,-0.000
 03999,0.00004002,-0.00002036,0.02536423,-0.12044542,-0.11632259,0.0056
 2854,-0.01642841,-0.02599759,0.00039388,0.00147645,-0.00150352,0.00199
 332,-0.00114648,-0.00091029,-0.00032920,0.00038075,0.00024461,-0.00026
 071,0.00128745,0.00068107,-0.00409405,0.00976869,0.01431307,-0.0002684
 0,-0.00127233,-0.00030956,-0.02524062,0.13123392,-0.00000009,-0.000002
 41,-0.00000437,0.00000175,0.00000668,0.00000007,0.00000279,-0.00000297
 ,-0.00000036,-0.00004747,-0.00016970,-0.00002569,0.00012257,0.00009507
 ,0.00001453,-0.00005183,0.00010278,0.00002809,0.00000032,0.00000219,0.
 00000235,-0.00000200,0.00000186,-0.00000286,0.00000140,0.00000011,0.00
 000073,-0.00000186,0.00000047,0.00000345,0.00000042,0.00000142,0.00000
 159,0.00000127,0.00000171,-0.00000015,-0.00000003,0.00000034,-0.000001
 09,-0.00011191,-0.00003058,-0.00001659,0.04090892,-0.11814012,-0.24051
 628,-0.00155588,0.00187371,0.00240801,-0.00022977,0.00063862,0.0013292
 5,0.00152357,-0.00184724,-0.00005020,-0.00037496,0.00052360,0.00001808
 ,0.00029728,0.00167431,0.00040128,0.00547371,-0.01302906,-0.01690061,-
 0.00064324,0.00048455,-0.00072504,-0.04566992,0.12745452,0.25276237,-0
 .00001026,-0.00000763,0.00002274,-0.00002689,-0.00004944,-0.00002470,-
 0.00002593,0.00001618,-0.00000021,0.00025809,0.00065264,0.00006424,-0.
 00108418,-0.00026023,0.00017674,0.00020364,-0.00034456,-0.00001731,0.0
 0000127,-0.00000255,-0.00000515,0.00001102,-0.00000842,0.00000662,-0.0
 0001094,0.00000148,-0.00000706,0.00000429,-0.00000579,-0.00000723,0.00
 000164,-0.00000311,-0.00000186,-0.00001047,-0.00001047,0.00000035,0.00
 000384,0.00000006,-0.00000008,0.00147036,-0.00017131,-0.00052348,0.002
 68587,-0.00827422,-0.01308462,-0.06051382,0.02251787,0.04489390,0.0029
 4643,-0.00637030,-0.01270098,-0.00365725,0.01873297,0.03341628,-0.0001
 6104,-0.00115712,-0.00282167,-0.00746723,0.00182360,-0.00296323,0.0004
 1066,0.00068619,0.00042284,0.00030263,0.00036776,-0.00051760,-0.001029
 51,-0.00307378,0.00011451,0.06516749,-0.00000430,-0.00000391,-0.000002
 13,0.00000043,0.00001818,0.00000114,0.00000215,-0.00000008,-0.00000026
 ,0.00001604,-0.00018933,-0.00003843,0.00017508,0.00006631,0.00000409,-
 0.00012181,0.00010815,0.00001743,0.00000359,0.00000376,0.00000298,0.00
 000115,-0.00000143,-0.00000327,-0.00000252,0.00000057,0.00000113,-0.00
 000579,-0.00000010,0.00000326,0.00000202,0.00000240,0.00000047,-0.0000
 0193,0.00000119,0.00000002,0.00000148,0.00000003,0.00000014,-0.0001777
 2,0.00001511,-0.00000574,0.00553937,-0.01577871,-0.02474672,0.02281080
 ,-0.11241743,-0.11321354,-0.00303521,0.00809020,0.01811162,0.00236367,
 -0.00361340,-0.00286357,-0.00194509,-0.00025134,0.00046153,0.00126683,
 0.00094640,0.00031374,0.00066561,0.00066465,0.00018577,-0.00008757,0.0
 0116811,0.00016479,-0.00284971,-0.00494051,0.00086364,-0.02589190,0.12
 629210,-0.00000235,-0.00000070,-0.00000115,0.00000056,0.00002078,0.000
 00324,0.00000303,-0.00000046,-0.00000228,-0.00003856,-0.00027559,-0.00
 005124,0.00019434,0.00011498,0.00002747,-0.00018679,0.00017279,0.00005
 224,0.00000068,0.00000004,0.00000249,-0.00000122,0.00000210,-0.0000015
 3,0.00000007,0.00000071,-0.00000055,-0.00000723,0.00000326,0.00000290,
 0.00000260,0.00000085,0.00000345,-0.00000054,0.00000218,0.00000039,0.0
 0000086,-0.00000117,-0.00000225,-0.00022672,0.00000738,-0.00005312,-0.
 00094876,0.00235825,0.00382635,0.04407891,-0.11150549,-0.23029037,0.00
 449855,-0.01079650,-0.02351458,-0.00124726,-0.00341462,-0.00282386,-0.
 00049672,0.00073356,0.00114441,0.00058192,0.00099291,-0.00028734,-0.00
 020460,-0.00026612,0.00064065,-0.00035137,-0.00034181,0.00012690,0.000
 23719,0.00100438,0.00108741,-0.04420863,0.11807032,0.25091807,0.000005
 13,0.00000668,-0.00001155,0.00000796,-0.00000431,-0.00000166,0.0000056
 8,-0.00000457,-0.00000163,-0.00012850,-0.00000626,-0.00001726,0.000148
 34,0.00000177,0.00002060,0.00008258,-0.00000891,0.00003791,-0.00000138
 ,0.00000107,0.00000291,-0.00000437,0.00000138,-0.00000172,0.00000681,-
 0.00000184,0.00000378,0.00000127,0.00000359,0.00000068,-0.00000326,0.0
 0000092,0.00000032,0.00000750,0.00000106,0.00000035,-0.00000521,-0.000
 00303,0.00000289,-0.00019569,0.00005321,-0.00002480,-0.00008103,-0.000
 45956,0.00066731,0.00145467,-0.00622116,-0.01248448,-0.05997324,0.0228
 4579,0.04542755,0.00121897,-0.00116976,-0.00179448,-0.00020079,-0.0000
 2204,0.00047530,0.00027168,0.00005496,0.00053143,-0.00011089,-0.000134
 96,-0.00004394,-0.00001447,0.00011079,0.00010636,0.00023279,0.00001687
 ,0.00028092,-0.00033063,0.00162360,-0.00246474,0.05760846,-0.00000244,
 0.00000043,-0.00000063,-0.00000307,-0.00000168,-0.00000393,-0.00000279
 ,0.00000382,-0.00000461,0.00000991,0.00005892,-0.00001757,-0.00008996,
 -0.00002924,0.00002261,-0.00004006,-0.00002616,0.00004501,0.00000107,0
 .00000056,0.00000201,0.00000135,-0.00000224,0.00000048,-0.00000074,-0.
 00000012,0.00000006,-0.00000255,0.00000376,0.00000004,0.00000079,-0.00
 000024,0.00000219,-0.00000034,-0.00000157,0.00000065,-0.00000093,-0.00
 000367,0.00000102,0.00012087,0.00000013,-0.00002577,-0.00032093,0.0017
 1759,0.00069326,-0.00365486,0.00790327,0.01671171,0.02264062,-0.106375
 26,-0.10789405,-0.00069145,0.00119702,0.00013672,-0.00030417,-0.000027
 31,0.00004705,-0.00044473,-0.00014731,-0.00019701,0.00006310,0.0000926
 4,-0.00024062,-0.00006158,-0.00006851,-0.00002427,0.00019237,-0.000257
 24,-0.00033497,0.00155009,-0.00141843,0.00343688,-0.02657211,0.1082577
 9,-0.00000535,-0.00000225,0.00000010,-0.00000669,0.00000557,-0.0000093
 5,-0.00000221,0.00000315,-0.00000338,0.00001403,-0.00007064,-0.0000438
 1,-0.00006413,0.00003552,0.00006358,-0.00013483,0.00005097,0.00008053,
 0.00000291,0.00000201,0.00000336,0.00000218,-0.00000203,-0.00000150,-0
 .00000264,0.00000052,-0.00000012,-0.00000515,0.00000298,0.00000249,0.0
 0000235,0.00000130,0.00000235,-0.00000198,-0.00000077,0.00000068,0.000
 00042,-0.00000272,0.00000013,0.00011892,-0.00002016,-0.00011158,0.0000
 8656,-0.00123300,0.00104683,0.00308272,-0.01088215,-0.02117844,0.04456
 488,-0.10618417,-0.24947114,0.00284781,-0.00128009,-0.00093398,-0.0008
 0275,-0.00017138,0.00039452,-0.00093023,0.00093578,0.00058130,-0.00012
 564,0.00007812,0.00042823,0.00000947,0.00006241,-0.00005153,0.00019064
 ,0.00098392,0.00014517,-0.00244591,0.00323585,-0.00286290,-0.04536640,
 0.11276235,0.27017000,-0.00001685,-0.00001431,0.00002477,-0.00002584,0
 .00002038,-0.00000428,-0.00001380,0.00001513,-0.00000111,0.00027211,-0
 .00005924,-0.00001952,-0.00037417,0.00001852,0.00001185,-0.00039641,0.
 00008524,0.00002306,0.00000681,-0.00000074,-0.00000264,0.00001131,-0.0
 0000614,0.00000283,-0.00001664,0.00000476,-0.00000751,-0.00001094,-0.0
 0000252,0.00000007,0.00000965,-0.00000072,0.00000140,-0.00001706,-0.00
 000358,0.00000085,0.00001008,0.00000186,-0.00000476,0.00055032,-0.0001
 1605,-0.00000907,0.00065178,-0.00074915,0.00077665,-0.01119328,0.00029
 853,0.00125474,-0.31535530,0.02300317,0.02954942,0.00180561,0.00008680
 ,-0.00244878,-0.00076633,0.00017209,0.00003222,-0.00103733,0.00083553,
 0.00037401,0.00029162,-0.00010273,-0.00007929,0.00047245,0.00052433,-0
 .00007818,-0.00004101,0.00002794,-0.00007053,0.00043763,-0.00028936,-0
 .00013868,-0.00272793,-0.00041675,-0.00052250,0.33575630,0.00000446,0.
 00000483,-0.00000615,0.00001002,0.00000782,0.00000181,0.00000768,-0.00
 000626,0.00000259,-0.00009503,-0.00014807,-0.00001170,0.00028427,0.000
 05244,0.00001132,0.00003860,0.00007417,0.00000619,-0.00000184,-0.00000
 012,0.00000052,-0.00000430,0.00000334,-0.00000187,0.00000476,-0.000000
 73,0.00000190,0.00000148,0.00000057,0.00000071,-0.00000142,0.00000039,
 0.00000011,0.00000396,0.00000362,-0.00000068,-0.00000092,0.00000030,-0
 .00000080,-0.00040599,0.00007150,-0.00004156,0.00103826,0.00071634,-0.
 00063642,0.01879081,-0.00290626,-0.00057234,0.02182846,-0.05060691,-0.
 00404549,-0.00190011,-0.00279612,0.00355907,0.00022714,0.00119154,-0.0
 0064372,0.00133596,-0.00023627,-0.00077227,-0.00020799,0.00022983,-0.0
 0012134,-0.00040924,-0.00041404,0.00051131,0.00004198,-0.00009370,-0.0
 0004076,-0.00090018,0.00053477,-0.00044508,0.01471216,-0.00126065,-0.0
 0019968,-0.02594046,0.04946667,-0.00000971,-0.00000608,0.00001165,-0.0
 0001681,-0.00000266,-0.00000671,-0.00001168,0.00001137,-0.00000318,0.0
 0013017,0.00011266,-0.00001430,-0.00040094,-0.00003820,0.00002742,-0.0
 0017863,-0.00003598,0.00003961,0.00000378,0.00000006,-0.00000012,0.000
 00630,-0.00000528,0.00000203,-0.00000751,0.00000190,-0.00000346,-0.000
 00706,0.00000113,-0.00000055,0.00000363,-0.00000014,0.00000073,-0.0000
 0669,-0.00000503,0.00000116,0.00000202,-0.00000196,0.00000030,0.000580
 19,-0.00009880,-0.00001452,-0.00034948,-0.00104604,0.00088415,-0.02786
 220,0.00307370,0.00084363,0.03161756,-0.00398324,-0.05085451,0.0015192
 3,0.00314949,-0.00511975,-0.00097946,-0.00075749,0.00062039,-0.0022773
 4,0.00103131,0.00138410,0.00000168,-0.00034088,-0.00005997,0.00042654,
 0.00031327,0.00002757,0.00017962,0.00007224,-0.00004859,-0.00002475,-0
 .00080365,0.00121449,0.02746707,-0.00047263,-0.00088520,-0.02986474,-0
 .00001268,0.05298854,0.00001245,0.00001012,-0.00001915,0.00001617,-0.0
 0002971,-0.00000022,0.00000699,-0.00000958,-0.00000075,-0.00017518,0.0
 0024573,0.00003407,0.00009225,-0.00009873,-0.00000404,0.00039255,-0.00
 017905,-0.00001640,-0.00000437,0.00000135,0.00000218,-0.00000636,0.000
 00204,-0.00000120,0.00001131,-0.00000430,0.00000630,0.00001102,0.00000
 115,-0.00000122,-0.00000816,0.00000032,-0.00000200,0.00001270,0.000000
 26,-0.00000018,-0.00000892,-0.00000221,0.00000577,-0.00016386,0.000072
 04,-0.00000921,-0.00106243,0.00099284,-0.00186279,0.00449322,0.0128234
 6,0.00054846,-0.09464313,-0.10430934,0.00305834,0.00102845,0.00232262,
 0.00040323,-0.00106963,-0.00015399,-0.00033874,0.00001063,-0.00058569,
 -0.00025251,0.00057595,0.00059362,-0.00027475,0.00030384,0.00012423,-0
 .00016386,-0.00011201,-0.00016507,-0.00001616,0.00045574,-0.00048194,0
 .00046477,0.00282683,0.00792682,-0.00071600,-0.00892490,-0.02844270,-0
 .00028791,0.09656915,-0.00000744,-0.00000756,0.00001317,-0.00000939,0.
 00002844,0.00000312,-0.00000157,0.00000395,0.00000175,0.00009274,-0.00
 033321,-0.00002936,0.00008118,0.00014831,-0.00000915,-0.00032947,0.000
 20349,0.00001857,0.00000138,-0.00000224,-0.00000203,0.00000204,0.00000
 215,0.00000050,-0.00000614,0.00000334,-0.00000528,-0.00000842,-0.00000
 143,0.00000210,0.00000558,-0.00000002,0.00000186,-0.00000756,0.0000013
 6,-0.00000004,0.00000629,0.00000353,-0.00000576,-0.00005484,-0.0000619
 0,0.00002759,0.00228474,-0.00061281,0.00349127,-0.00583531,-0.01370271
 ,-0.00117007,-0.10104323,-0.27983358,0.00336697,-0.00223519,-0.0032234
 6,0.00001704,-0.00040887,0.00180545,-0.00076072,0.00040347,0.00081571,
 0.00004041,-0.00059703,-0.00087056,0.00011700,-0.00006524,0.00015685,-
 0.00009439,0.00003360,0.00039250,-0.00004176,-0.00003090,0.00077522,0.
 00003819,-0.00486188,-0.00969198,0.00188349,0.00260846,0.00603431,-0.0
 0017021,0.10940606,0.29774580,0.00000621,0.00000425,-0.00000332,0.0000
 0478,-0.00001766,0.00000130,0.00000220,-0.00000497,0.00000636,-0.00003
 581,0.00015263,0.00003784,-0.00001759,-0.00006261,-0.00000986,0.000231
 93,-0.00010416,-0.00007817,-0.00000172,0.00000048,-0.00000150,-0.00000
 120,0.00000050,-0.00000101,0.00000283,-0.00000187,0.00000203,0.0000066
 2,-0.00000327,-0.00000153,-0.00000338,-0.00000014,-0.00000286,0.000002
 86,0.00000055,-0.00000135,-0.00000101,0.00000130,0.00000053,-0.0000066
 9,0.00002269,0.00000044,-0.00290226,0.00198268,-0.00398233,0.01131791,
 0.02309273,0.00004537,0.00178930,0.00096571,-0.04947279,0.00106451,0.0
 0122196,0.00075526,0.00009613,-0.00046459,-0.00036735,-0.00012699,-0.0
 0043089,-0.00001268,0.00046539,0.00156773,0.00010189,-0.00014802,-0.00
 031889,-0.00003872,-0.00010132,0.00024512,0.00012802,0.00084084,-0.000
 05770,0.00062431,-0.01272151,-0.02455949,0.00286058,0.00119469,0.00362
 055,-0.00097105,-0.00048458,-0.00662059,0.05023253,0.00121554,0.000607
 75,-0.00133602,0.00111273,-0.00487219,-0.00018885,-0.00011889,-0.00094
 968,0.00016502,-0.00231046,0.04309765,0.00572588,-0.01303755,-0.017395
 44,-0.00118823,0.01166581,-0.02857140,-0.00590639,-0.00019569,0.000120
 88,0.00011891,-0.00016386,-0.00005485,-0.00000669,0.00055032,-0.000405
 97,0.00058020,0.00147039,-0.00017773,-0.00022673,-0.00041451,-0.000040
 01,-0.00011192,0.00057487,0.00007337,-0.00005587,-0.00033373,-0.000080
 05,0.00020769,0.01692919,0.00072364,-0.00123040,0.00117387,-0.00041005
 ,0.00012974,0.00251552,0.00109735,0.00094385,0.00066403,0.00050818,-0.
 00101559,-0.02794776,-0.04715473,-0.00337705,-0.30711920,0.03984889,0.
 03021048,-0.01055005,0.02408795,0.00336711,-0.00015570,0.00003536,-0.0
 0000865,0.00059941,0.00042196,-0.00006249,-0.00015651,0.00012157,0.000
 04623,-0.00003247,0.00042303,0.00046068,-0.00010127,0.00010247,0.00020
 952,0.00064212,-0.00001982,0.00034715,-0.00064029,0.00057694,-0.000474
 10,0.32416415,-0.00031022,-0.00008734,0.00023278,-0.00049732,0.0005750
 3,-0.00027587,-0.00004024,0.00026807,-0.00001296,0.00842661,-0.0053799
 1,-0.00140456,-0.00004347,0.00090073,0.00031480,-0.00944684,-0.0085975
 8,0.00138160,0.00005321,0.00000013,-0.00002016,0.00007204,-0.00006190,
 0.00002270,-0.00011605,0.00007150,-0.00009881,-0.00017131,0.00001511,0
 .00000738,0.00002012,0.00004002,-0.00003058,-0.00009539,-0.00008409,0.
 00001478,0.00002166,0.00003062,0.00003594,0.00072365,-0.00316809,-0.00
 058222,-0.00121071,0.00052367,0.00014768,-0.00088028,-0.00491843,-0.00
 116246,0.00015419,-0.00007618,0.00012576,-0.04983369,0.00906874,0.0050
 2394,0.05886957,-0.06456139,-0.00977463,0.00598729,0.00034780,0.000346
 42,0.00000114,-0.00001346,0.00007648,-0.00014834,-0.00038957,0.0000115
 9,-0.00000879,0.00000085,-0.00008600,0.00021306,-0.00007248,0.00008799
 ,0.00003654,0.00007567,0.00000512,-0.00000100,0.00007671,0.00001383,-0
 .00006035,0.00022104,-0.00023208,-0.01171508,0.07519471,0.00035605,-0.
 00005376,0.00008381,-0.00004663,0.00031930,0.00246456,-0.00003200,0.00
 009924,0.00006975,0.00125492,-0.00443967,-0.00008921,0.00097733,0.0017
 8792,-0.00135717,-0.00339654,0.00308879,-0.01265821,-0.00002480,-0.000
 02577,-0.00011158,-0.00000921,0.00002759,0.00000044,-0.00000907,-0.000
 04156,-0.00001452,-0.00052348,-0.00000574,-0.00005312,0.00002383,-0.00
 002036,-0.00001658,-0.00006904,-0.00001123,-0.00002891,0.00006691,0.00
 004957,-0.00006468,-0.00123039,-0.00058221,0.00099609,-0.00052581,0.00
 024912,0.00058694,0.00040353,-0.00135172,0.00483093,0.00072103,-0.0001
 6851,0.00022273,-0.00364886,0.00432935,0.00460802,0.03283579,-0.007748
 33,-0.03502891,0.00094553,-0.00110653,-0.00667149,0.00002860,0.0000122
 4,-0.00000556,-0.00006224,-0.00020831,0.00001072,0.00005022,0.00003568
 ,-0.00003856,-0.00060459,0.00029708,0.00021639,-0.00009119,-0.00008650
 ,-0.00022695,0.00000503,-0.00016353,-0.00006388,-0.00007144,-0.0001136
 7,0.00014808,-0.02732348,0.00583154,0.04219087\\0.,0.00000027,-0.00000
 021,0.00000004,-0.00000042,0.00000048,-0.00000002,0.00000006,-0.000000
 37,-0.00000026,-0.00000086,-0.00000017,0.00000026,0.00000037,0.0000000
 3,0.00000014,0.00000053,-0.00000015,0.,0.,-0.00000001,0.,-0.00000004,0
 .00000015,-0.00000001,-0.00000013,0.00000004,-0.00000008,-0.00000012,-
 0.00000010,0.00000011,-0.00000008,-0.00000008,0.00000002,-0.00000017,-
 0.00000009,0.00000005,-0.00000026,-0.00000012,-0.00000018,0.00000004,0
 .00000011,0.00000004,-0.00000006,0.00000039,-0.00000006,0.00000046,-0.
 00000042,0.00000005,-0.00000030,0.00000024,0.00000028,0.00000085,-0.00
 000014,-0.00000036,-0.00000033,0.00000001,-0.00000024,-0.00000051,0.00
 000018,-0.00000005,0.00000025,0.00000012,-0.00000002,0.00000017,0.0000
 0008,-0.00000011,0.00000007,0.00000007,0.00000006,0.00000017,0.0000001
 0,0.,0.,0.,0.00000003,0.00000010,-0.00000001,0.00000002,0.00000004,-0.
 00000015,0.00000029,-0.00000011,0.\\\@


 The chemist is a guest at the physicist's table and
 frequently dines well.
                   -- Richard Bersohn
 File lengths (MBytes):  RWF=    143 Int=      0 D2E=      0 Chk=      4 Scr=      1
 Normal termination of Gaussian 16 at Mon Apr  1 15:41:16 2024.
real 2076.16
user 7530.62
sys 42.64
