 Entering Gaussian System, Link 0=g16
 Input=gaussian_test.inp
 Output=gaussian_test.log
 Initial command:
 /sw/restricted/lms/sw/Gaussian/g16_B01/g16/l1.exe "/scratch/user/peterchao1/peterchao1/6931798_1675363831000000362925266/Gau-83040.inp" -scrdir="/scratch/user/peterchao1/peterchao1/6931798_1675363831000000362925266/"
 Entering Link 1 = /sw/restricted/lms/sw/Gaussian/g16_B01/g16/l1.exe PID=     83056.
  
 Copyright (c) 1988-2017, Gaussian, Inc.  All Rights Reserved.
  
 This is part of the Gaussian(R) 16 program.  It is based on
 the Gaussian(R) 09 system (copyright 2009, Gaussian, Inc.),
 the Gaussian(R) 03 system (copyright 2003, Gaussian, Inc.),
 the Gaussian(R) 98 system (copyright 1998, Gaussian, Inc.),
 the Gaussian(R) 94 system (copyright 1995, Gaussian, Inc.),
 the Gaussian 92(TM) system (copyright 1992, Gaussian, Inc.),
 the Gaussian 90(TM) system (copyright 1990, Gaussian, Inc.),
 the Gaussian 88(TM) system (copyright 1988, Gaussian, Inc.),
 the Gaussian 86(TM) system (copyright 1986, Carnegie Mellon
 University), and the Gaussian 82(TM) system (copyright 1983,
 Carnegie Mellon University). Gaussian is a federally registered
 trademark of Gaussian, Inc.
  
 This software contains proprietary and confidential information,
 including trade secrets, belonging to Gaussian, Inc.
  
 This software is provided under written license and may be
 used, copied, transmitted, or stored only in accord with that
 written license.
  
 The following legend is applicable only to US Government
 contracts under FAR:
  
                    RESTRICTED RIGHTS LEGEND
  
 Use, reproduction and disclosure by the US Government is
 subject to restrictions as set forth in subparagraphs (a)
 and (c) of the Commercial Computer Software - Restricted
 Rights clause in FAR 52.227-19.
  
 Gaussian, Inc.
 340 Quinnipiac St., Bldg. 40, Wallingford CT 06492
  
  
 ---------------------------------------------------------------
 Warning -- This program may not be used in any manner that
 competes with the business of Gaussian, Inc. or will provide
 assistance to any competitor of Gaussian, Inc.  The licensee
 of this program is prohibited from giving any competitor of
 Gaussian, Inc. access to this program.  By using this program,
 the user acknowledges that Gaussian, Inc. is engaged in the
 business of creating and licensing software in the field of
 computational chemistry and represents and warrants to the
 licensee that it is not a competitor of Gaussian, Inc. and that
 it will not use this program in any manner prohibited above.
 ---------------------------------------------------------------
  

 Cite this work as:
 Gaussian 16, Revision B.01,
 M. J. Frisch, G. W. Trucks, H. B. Schlegel, G. E. Scuseria, 
 M. A. Robb, J. R. Cheeseman, G. Scalmani, V. Barone, 
 G. A. Petersson, H. Nakatsuji, X. Li, M. Caricato, A. V. Marenich, 
 J. Bloino, B. G. Janesko, R. Gomperts, B. Mennucci, H. P. Hratchian, 
 J. V. Ortiz, A. F. Izmaylov, J. L. Sonnenberg, D. Williams-Young, 
 F. Ding, F. Lipparini, F. Egidi, J. Goings, B. Peng, A. Petrone, 
 T. Henderson, D. Ranasinghe, V. G. Zakrzewski, J. Gao, N. Rega, 
 G. Zheng, W. Liang, M. Hada, M. Ehara, K. Toyota, R. Fukuda, 
 J. Hasegawa, M. Ishida, T. Nakajima, Y. Honda, O. Kitao, H. Nakai, 
 T. Vreven, K. Throssell, J. A. Montgomery, Jr., J. E. Peralta, 
 F. Ogliaro, M. J. Bearpark, J. J. Heyd, E. N. Brothers, K. N. Kudin, 
 V. N. Staroverov, T. A. Keith, R. Kobayashi, J. Normand, 
 K. Raghavachari, A. P. Rendell, J. C. Burant, S. S. Iyengar, 
 J. Tomasi, M. Cossi, J. M. Millam, M. Klene, C. Adamo, R. Cammi, 
 J. W. Ochterski, R. L. Martin, K. Morokuma, O. Farkas, 
 J. B. Foresman, and D. J. Fox, Gaussian, Inc., Wallingford CT, 2016.
 
 ******************************************
 Gaussian 16:  ES64L-G16RevB.01 20-Dec-2017
                 2-Feb-2023 
 ******************************************
 %chk=8.chk
 %nprocshared=4
 Will use up to    4 processors via shared memory.
 %mem=8000mb
 --------------------------------------------------------------
 #T wB97XD//def2svpp Volume=tight Geom=AllCheckpoint Guess=Read
 --------------------------------------------------------------
 Structure from the checkpoint file:  "8.chk"
 -------
 Monomer
 -------
 Charge =  0 Multiplicity = 1
 Redundant internal coordinates found in file.  (old form).
 C,0,-1.275542598,0.2469483677,0.0204074127
 C,0,0.0215548112,-0.5490323932,-0.0311811228
 O,0,1.1661357633,0.2618981588,0.0681258692
 H,0,-2.1540687022,-0.4209837068,-0.0066925507
 H,0,-1.351408152,0.9350212119,-0.8419984735
 H,0,-1.3194095745,0.8496749116,0.9432732529
 H,0,0.0465794157,-1.1704136136,-0.9512167736
 H,0,0.0717275671,-1.2432563539,0.8233234129
 H,0,1.1718733019,0.8781906065,-0.6762467442
 Recover connectivity data from disk.
                           ----------------------------
                           !    Current Parameters    !
                           ! (Angstroms and Degrees)  !
 --------------------------                            --------------------------
 ! Name  Definition              Value                                          !
 --------------------------------------------------------------------------------
 ! R1    R(1,2)                  1.5227                                         !
 ! R2    R(1,4)                  1.1039                                         !
 ! R3    R(1,5)                  1.1059                                         !
 ! R4    R(1,6)                  1.1031                                         !
 ! R5    R(2,3)                  1.4062                                         !
 ! R6    R(2,7)                  1.1105                                         !
 ! R7    R(2,8)                  1.1021                                         !
 ! R8    R(3,9)                  0.9664                                         !
 ! A1    A(2,1,4)              111.1483                                         !
 ! A2    A(2,1,5)              110.9321                                         !
 ! A3    A(2,1,6)              110.3545                                         !
 ! A4    A(4,1,5)              107.6211                                         !
 ! A5    A(4,1,6)              108.6313                                         !
 ! A6    A(5,1,6)              108.0427                                         !
 ! A7    A(1,2,3)              112.9226                                         !
 ! A8    A(1,2,7)              109.8622                                         !
 ! A9    A(1,2,8)              109.9856                                         !
 ! A10   A(3,2,7)              111.2746                                         !
 ! A11   A(3,2,8)              105.7498                                         !
 ! A12   A(7,2,8)              106.7901                                         !
 ! A13   A(2,3,9)              108.5532                                         !
 ! D1    D(4,1,2,3)           -177.0367                                         !
 ! D2    D(4,1,2,7)             58.0993                                         !
 ! D3    D(4,1,2,8)            -59.1717                                         !
 ! D4    D(5,1,2,3)             63.2616                                         !
 ! D5    D(5,1,2,7)            -61.6024                                         !
 ! D6    D(5,1,2,8)           -178.8734                                         !
 ! D7    D(6,1,2,3)            -56.4479                                         !
 ! D8    D(6,1,2,7)            178.6882                                         !
 ! D9    D(6,1,2,8)             61.4171                                         !
 ! D10   D(1,2,3,9)            -60.7887                                         !
 ! D11   D(7,2,3,9)             63.3035                                         !
 ! D12   D(8,2,3,9)            178.8915                                         !
 --------------------------------------------------------------------------------
                    Distance matrix (angstroms):
                    1          2          3          4          5
     1  C    0.000000
     2  C    1.522731   0.000000
     3  O    2.442190   1.406249   0.000000
     4  H    1.103936   2.179526   3.390528   0.000000
     5  H    1.105868   2.178272   2.760335   1.783466   0.000000
     6  H    1.103125   2.168900   2.699870   1.792670   1.787597
     7  H    2.168173   1.110498   2.084222   2.509307   2.529655
     8  H    2.163451   1.102108   2.008368   2.513807   3.089256
     9  H    2.621762   1.943272   0.966406   3.632912   2.529358
                    6          7          8          9
     6  H    0.000000
     7  H    3.088005   0.000000
     8  H    2.515951   1.776213   0.000000
     9  H    2.971557   2.353439   2.821271   0.000000
 Framework group  C1[X(C2H6O)]
 Deg. of freedom    21
                         Standard orientation:                         
 ---------------------------------------------------------------------
 Center     Atomic      Atomic             Coordinates (Angstroms)
 Number     Number       Type             X           Y           Z
 ---------------------------------------------------------------------
      1          6           0       -1.210416   -0.236444   -0.021634
      2          6           0        0.090918    0.551299    0.046907
      3          8           0        1.230139   -0.258419   -0.108232
      4          1           0       -2.085382    0.432814    0.050514
      5          1           0       -1.276055   -0.963964    0.808637
      6          1           0       -1.271281   -0.794996   -0.970950
      7          1           0        0.132984    1.128689    0.994566
      8          1           0        0.131017    1.284689   -0.774782
      9          1           0        1.244594   -0.909006    0.606238
 ---------------------------------------------------------------------
 Rotational constants (GHZ):          34.3815705           9.2385678           8.1657867
    54 basis functions,    99 primitive gaussians,    57 cartesian basis functions
    13 alpha electrons       13 beta electrons
       nuclear repulsion energy        81.6793858121 Hartrees.
 NAtoms=    9 NActive=    9 NUniq=    9 SFac= 1.00D+00 NAtFMM=   60 NAOKFM=F Big=F
 Nuclear repulsion after empirical dispersion term =       81.6768105446 Hartrees.
   1 Symmetry operations used in ECPInt.
 ECPInt:  NShTT=     465 NPrTT=    1887 LenC2=     466 LenP2D=    1694.
 LDataN:  DoStor=T MaxTD1= 4 Len=   56
 Initial guess from the checkpoint file:  "8.chk"
 B after Tr=     0.000000   -0.000000   -0.000000
         Rot=    1.000000    0.000000   -0.000000   -0.000000 Ang=   0.00 deg.
 Skip diagonalization as Alpha Fock matrix is already diagonal.
 SCF Done:  E(RwB97XD) =  -154.856033891     A.U. after    1 cycles
            NFock=  1  Conv=0.00D+00     -V/T= 2.0088

 **********************************************************************

            Population analysis using the SCF Density.

 **********************************************************************

 Orbital symmetries:
       Occupied  (A) (A) (A) (A) (A) (A) (A) (A) (A) (A) (A) (A)
                 (A)
       Virtual   (A) (A) (A) (A) (A) (A) (A) (A) (A) (A) (A) (A)
                 (A) (A) (A) (A) (A) (A) (A) (A) (A) (A) (A) (A)
                 (A) (A) (A) (A) (A) (A) (A) (A) (A) (A) (A) (A)
                 (A) (A) (A) (A) (A)
 The electronic state is 1-A.
 Alpha  occ. eigenvalues --  -19.24303 -10.33491 -10.28486  -1.10736  -0.83597
 Alpha  occ. eigenvalues --   -0.71156  -0.59084  -0.53999  -0.51878  -0.46473
 Alpha  occ. eigenvalues --   -0.45382  -0.40323  -0.35116
 Alpha virt. eigenvalues --    0.13391   0.17439   0.19146   0.20277   0.21765
 Alpha virt. eigenvalues --    0.24038   0.29671   0.31922   0.51603   0.53823
 Alpha virt. eigenvalues --    0.56556   0.59180   0.66818   0.70348   0.74309
 Alpha virt. eigenvalues --    0.75838   0.78138   0.79920   0.80790   0.81278
 Alpha virt. eigenvalues --    0.82718   0.99714   1.11705   1.16564   1.25612
 Alpha virt. eigenvalues --    1.55643   1.58670   1.69132   1.92244   1.99611
 Alpha virt. eigenvalues --    2.00179   2.20188   2.22055   2.27891   2.32218
 Alpha virt. eigenvalues --    2.58169   2.71817   2.92308   3.04387   3.10055
 Alpha virt. eigenvalues --    3.44738
          Condensed to atoms (all electrons):
 Mulliken charges:
               1
     1  C   -0.369962
     2  C   -0.008956
     3  O   -0.492448
     4  H    0.120485
     5  H    0.108671
     6  H    0.131165
     7  H    0.091223
     8  H    0.109809
     9  H    0.310012
 Sum of Mulliken charges =  -0.00000
 Mulliken charges with hydrogens summed into heavy atoms:
               1
     1  C   -0.009640
     2  C    0.192076
     3  O   -0.182436
 Electronic spatial extent (au):  <R**2>=            194.2153
 Charge=             -0.0000 electrons
 Dipole moment (field-independent basis, Debye):
    X=             -1.1490    Y=             -0.2672    Z=              1.2432  Tot=              1.7138
 Evaluate density.
 Using the total density.
 Monte-Carlo method of calculating molar volume:
 based on  0.001 e/bohr**3 density envelope.
 Number of points per bohr**3 =  100 CutOff= 1.00D-04
 Using the SCF density.
 There are      1453 points.  Will hold      1453 in memory.
 LenV=  1048484229 MDV=  1048576000.
 Box volume = 3073.167 fraction occupied=0.156
 Integrated density= 4.4548647380531804D+01 error= 1.8548647380531804D+01
 Molar volume =  480.116 bohr**3/mol ( 42.845 cm**3/mol)
 Recommended a0 for SCRF calculation =  3.33 angstrom (  6.29 bohr)
 1\1\GINC-C461\SP\RwB97XD\def2SVPP\C2H6O1\PETERCHAO1\02-Feb-2023\0\\#T 
 wB97XD//def2svpp Volume=tight Geom=AllCheckpoint Guess=Read\\Monomer\\
 0,1\C,0,-1.275542598,0.2469483677,0.0204074127\C,0,0.0215548112,-0.549
 0323932,-0.0311811228\O,0,1.1661357633,0.2618981588,0.0681258692\H,0,-
 2.1540687022,-0.4209837068,-0.0066925507\H,0,-1.351408152,0.9350212119
 ,-0.8419984735\H,0,-1.3194095745,0.8496749116,0.9432732529\H,0,0.04657
 94157,-1.1704136136,-0.9512167736\H,0,0.0717275671,-1.2432563539,0.823
 3234129\H,0,1.1718733019,0.8781906065,-0.6762467442\\Version=ES64L-G16
 RevB.01\State=1-A\HF=-154.8560339\RMSD=0.000e+00\Dipole=-0.4592704,0.0
 841378,-0.4864469\Quadrupole=-1.7251087,0.9575275,0.7675812,0.7794246,
 -1.4024373,-1.0944383\PG=C01 [X(C2H6O1)]\\@


 IT MATTERS NOT HOW DEEP YOU PLOW,
 BUT HOW LONG YOU STAY IN THE FURROW.
 Job cpu time:       0 days  0 hours  0 minutes  4.9 seconds.
 Elapsed time:       0 days  0 hours  0 minutes  1.5 seconds.
 File lengths (MBytes):  RWF=      6 Int=      0 D2E=      0 Chk=      1 Scr=      1
 Normal termination of Gaussian 16 at Thu Feb  2 12:54:57 2023.
