 Entering Gaussian System, Link 0=g16
 Input=gaussian_test.inp
 Output=gaussian_test.log
 Initial command:
 /sw/restricted/lms/sw/Gaussian/g16_B01/g16/l1.exe "/scratch/user/peterchao1/peterchao1/9286428_1700057733000000343121064/Gau-10235.inp" -scrdir="/scratch/user/peterchao1/peterchao1/9286428_1700057733000000343121064/"
 Entering Link 1 = /sw/restricted/lms/sw/Gaussian/g16_B01/g16/l1.exe PID=     10631.
  
 Copyright (c) 1988-2017, Gaussian, Inc.  All Rights Reserved.
  
 This is part of the Gaussian(R) 16 program.  It is based on
 the Gaussian(R) 09 system (copyright 2009, Gaussian, Inc.),
 the Gaussian(R) 03 system (copyright 2003, Gaussian, Inc.),
 the Gaussian(R) 98 system (copyright 1998, Gaussian, Inc.),
 the Gaussian(R) 94 system (copyright 1995, Gaussian, Inc.),
 the Gaussian 92(TM) system (copyright 1992, Gaussian, Inc.),
 the Gaussian 90(TM) system (copyright 1990, Gaussian, Inc.),
 the Gaussian 88(TM) system (copyright 1988, Gaussian, Inc.),
 the Gaussian 86(TM) system (copyright 1986, Carnegie Mellon
 University), and the Gaussian 82(TM) system (copyright 1983,
 Carnegie Mellon University). Gaussian is a federally registered
 trademark of Gaussian, Inc.
  
 This software contains proprietary and confidential information,
 including trade secrets, belonging to Gaussian, Inc.
  
 This software is provided under written license and may be
 used, copied, transmitted, or stored only in accord with that
 written license.
  
 The following legend is applicable only to US Government
 contracts under FAR:
  
                    RESTRICTED RIGHTS LEGEND
  
 Use, reproduction and disclosure by the US Government is
 subject to restrictions as set forth in subparagraphs (a)
 and (c) of the Commercial Computer Software - Restricted
 Rights clause in FAR 52.227-19.
  
 Gaussian, Inc.
 340 Quinnipiac St., Bldg. 40, Wallingford CT 06492
  
  
 ---------------------------------------------------------------
 Warning -- This program may not be used in any manner that
 competes with the business of Gaussian, Inc. or will provide
 assistance to any competitor of Gaussian, Inc.  The licensee
 of this program is prohibited from giving any competitor of
 Gaussian, Inc. access to this program.  By using this program,
 the user acknowledges that Gaussian, Inc. is engaged in the
 business of creating and licensing software in the field of
 computational chemistry and represents and warrants to the
 licensee that it is not a competitor of Gaussian, Inc. and that
 it will not use this program in any manner prohibited above.
 ---------------------------------------------------------------
  

 Cite this work as:
 Gaussian 16, Revision B.01,
 M. J. Frisch, G. W. Trucks, H. B. Schlegel, G. E. Scuseria, 
 M. A. Robb, J. R. Cheeseman, G. Scalmani, V. Barone, 
 G. A. Petersson, H. Nakatsuji, X. Li, M. Caricato, A. V. Marenich, 
 J. Bloino, B. G. Janesko, R. Gomperts, B. Mennucci, H. P. Hratchian, 
 J. V. Ortiz, A. F. Izmaylov, J. L. Sonnenberg, D. Williams-Young, 
 F. Ding, F. Lipparini, F. Egidi, J. Goings, B. Peng, A. Petrone, 
 T. Henderson, D. Ranasinghe, V. G. Zakrzewski, J. Gao, N. Rega, 
 G. Zheng, W. Liang, M. Hada, M. Ehara, K. Toyota, R. Fukuda, 
 J. Hasegawa, M. Ishida, T. Nakajima, Y. Honda, O. Kitao, H. Nakai, 
 T. Vreven, K. Throssell, J. A. Montgomery, Jr., J. E. Peralta, 
 F. Ogliaro, M. J. Bearpark, J. J. Heyd, E. N. Brothers, K. N. Kudin, 
 V. N. Staroverov, T. A. Keith, R. Kobayashi, J. Normand, 
 K. Raghavachari, A. P. Rendell, J. C. Burant, S. S. Iyengar, 
 J. Tomasi, M. Cossi, J. M. Millam, M. Klene, C. Adamo, R. Cammi, 
 J. W. Ochterski, R. L. Martin, K. Morokuma, O. Farkas, 
 J. B. Foresman, and D. J. Fox, Gaussian, Inc., Wallingford CT, 2016.
 
 ******************************************
 Gaussian 16:  ES64L-G16RevB.01 20-Dec-2017
                15-Nov-2023 
 ******************************************
 %nprocshared=4
 Will use up to    4 processors via shared memory.
 %mem=8000mb
 %chk=1.chk
 %nprocshared=4
 Will use up to    4 processors via shared memory.
 %mem=8000mb
 ----------------------------------------------------------------------
 #T wB97XD/def2svpp opt=(tight,calcall,MaxStep=5) freq int(grid=ultrafi
 ne) scf=(verytight,qc) Volume=tight
 ----------------------------------------------------------------------
 -----
 Dimer
 -----
 Symbolic Z-matrix:
 Charge =  0 Multiplicity = 1
 17                   0    -1.23065   2.10389  -0.19846 
 6                    0    -2.19526   0.97241   0.81336 
 6                    0    -3.06665  -0.00008   0.00005 
 6                    0    -3.93631  -0.80354   0.98421 
 17                   0    -5.09313   0.20754   1.91333 
 6                    0    -3.93699   0.80332  -0.98357 
 17                   0    -5.09344  -0.20785  -1.91306 
 6                    0    -2.19542  -0.97226  -0.81375 
 17                   0    -1.23035  -2.10399   0.19733 
 1                    0    -2.82124   1.59539   1.46654 
 1                    0    -1.47229   0.41168   1.42343 
 1                    0    -3.30762  -1.32441   1.71835 
 1                    0    -4.53558  -1.54443   0.43628 
 1                    0    -3.30873   1.32502  -1.71747 
 1                    0    -4.53663   1.5434   -0.43493 
 1                    0    -1.47271  -0.41114  -1.42377 
 1                    0    -2.82147  -1.5951   -1.46697 
 17                   0     5.09448   1.91256  -0.20922 
 6                    0     3.93787   0.98422   0.80282 
 6                    0     3.06714   0.00033   0.00019 
 6                    0     2.19578  -0.81225   0.97329 
 17                   0     1.23009   0.20009   2.10329 
 6                    0     2.19608   0.8136   -0.9726 
 17                   0     1.22956  -0.19826  -2.10236 
 6                    0     3.93642  -0.98453  -0.80287 
 17                   0     5.09211  -1.91457   0.2086 
 1                    0     3.31001   1.71879   1.32405 
 1                    0     4.53745   0.43598   1.54326 
 1                    0     2.82186  -1.46454   1.59709 
 1                    0     1.47335  -1.42314   0.41291 
 1                    0     2.82236   1.46548  -1.59662 
 1                    0     1.47412   1.42496  -0.41209 
 1                    0     4.53646  -0.43694  -1.5434 
 1                    0     3.30726  -1.71802  -1.32409 
 
 Add virtual bond connecting atoms Cl22       and H11        Dist= 5.28D+00.
 Add virtual bond connecting atoms Cl24       and H16        Dist= 5.28D+00.
 Add virtual bond connecting atoms H30        and Cl9        Dist= 5.28D+00.
 Add virtual bond connecting atoms H32        and Cl1        Dist= 5.29D+00.

 GradGradGradGradGradGradGradGradGradGradGradGradGradGradGradGradGradGrad
 Initialization pass.
                           ----------------------------
                           !    Initial Parameters    !
                           ! (Angstroms and Degrees)  !
 --------------------------                            --------------------------
 ! Name  Definition              Value          Derivative Info.                !
 --------------------------------------------------------------------------------
 ! R1    R(1,2)                  1.7985         calculate D2E/DX2 analytically  !
 ! R2    R(1,32)                 2.7969         calculate D2E/DX2 analytically  !
 ! R3    R(2,3)                  1.5384         calculate D2E/DX2 analytically  !
 ! R4    R(2,10)                 1.0984         calculate D2E/DX2 analytically  !
 ! R5    R(2,11)                 1.0997         calculate D2E/DX2 analytically  !
 ! R6    R(3,4)                  1.5396         calculate D2E/DX2 analytically  !
 ! R7    R(3,6)                  1.5396         calculate D2E/DX2 analytically  !
 ! R8    R(3,8)                  1.5383         calculate D2E/DX2 analytically  !
 ! R9    R(4,5)                  1.7955         calculate D2E/DX2 analytically  !
 ! R10   R(4,12)                 1.098          calculate D2E/DX2 analytically  !
 ! R11   R(4,13)                 1.0992         calculate D2E/DX2 analytically  !
 ! R12   R(6,7)                  1.7955         calculate D2E/DX2 analytically  !
 ! R13   R(6,14)                 1.098          calculate D2E/DX2 analytically  !
 ! R14   R(6,15)                 1.0992         calculate D2E/DX2 analytically  !
 ! R15   R(8,9)                  1.7985         calculate D2E/DX2 analytically  !
 ! R16   R(8,16)                 1.0997         calculate D2E/DX2 analytically  !
 ! R17   R(8,17)                 1.0984         calculate D2E/DX2 analytically  !
 ! R18   R(9,30)                 2.7964         calculate D2E/DX2 analytically  !
 ! R19   R(11,22)                2.7946         calculate D2E/DX2 analytically  !
 ! R20   R(16,24)                2.7943         calculate D2E/DX2 analytically  !
 ! R21   R(18,19)                1.7955         calculate D2E/DX2 analytically  !
 ! R22   R(19,20)                1.5396         calculate D2E/DX2 analytically  !
 ! R23   R(19,27)                1.0979         calculate D2E/DX2 analytically  !
 ! R24   R(19,28)                1.0992         calculate D2E/DX2 analytically  !
 ! R25   R(20,21)                1.5383         calculate D2E/DX2 analytically  !
 ! R26   R(20,23)                1.5383         calculate D2E/DX2 analytically  !
 ! R27   R(20,25)                1.5396         calculate D2E/DX2 analytically  !
 ! R28   R(21,22)                1.7984         calculate D2E/DX2 analytically  !
 ! R29   R(21,29)                1.0984         calculate D2E/DX2 analytically  !
 ! R30   R(21,30)                1.0996         calculate D2E/DX2 analytically  !
 ! R31   R(23,24)                1.7984         calculate D2E/DX2 analytically  !
 ! R32   R(23,31)                1.0984         calculate D2E/DX2 analytically  !
 ! R33   R(23,32)                1.0996         calculate D2E/DX2 analytically  !
 ! R34   R(25,26)                1.7955         calculate D2E/DX2 analytically  !
 ! R35   R(25,33)                1.0992         calculate D2E/DX2 analytically  !
 ! R36   R(25,34)                1.098          calculate D2E/DX2 analytically  !
 ! A1    A(2,1,32)             114.1385         calculate D2E/DX2 analytically  !
 ! A2    A(1,2,3)              113.8336         calculate D2E/DX2 analytically  !
 ! A3    A(1,2,10)             106.4628         calculate D2E/DX2 analytically  !
 ! A4    A(1,2,11)             106.2775         calculate D2E/DX2 analytically  !
 ! A5    A(3,2,10)             110.4936         calculate D2E/DX2 analytically  !
 ! A6    A(3,2,11)             110.0817         calculate D2E/DX2 analytically  !
 ! A7    A(10,2,11)            109.5096         calculate D2E/DX2 analytically  !
 ! A8    A(2,3,4)              108.1741         calculate D2E/DX2 analytically  !
 ! A9    A(2,3,6)              109.1534         calculate D2E/DX2 analytically  !
 ! A10   A(2,3,8)              111.0014         calculate D2E/DX2 analytically  !
 ! A11   A(4,3,6)              111.1855         calculate D2E/DX2 analytically  !
 ! A12   A(4,3,8)              109.1633         calculate D2E/DX2 analytically  !
 ! A13   A(6,3,8)              108.1769         calculate D2E/DX2 analytically  !
 ! A14   A(3,4,5)              113.6306         calculate D2E/DX2 analytically  !
 ! A15   A(3,4,12)             110.5816         calculate D2E/DX2 analytically  !
 ! A16   A(3,4,13)             109.941          calculate D2E/DX2 analytically  !
 ! A17   A(5,4,12)             106.8619         calculate D2E/DX2 analytically  !
 ! A18   A(5,4,13)             106.6329         calculate D2E/DX2 analytically  !
 ! A19   A(12,4,13)            109.0096         calculate D2E/DX2 analytically  !
 ! A20   A(3,6,7)              113.6381         calculate D2E/DX2 analytically  !
 ! A21   A(3,6,14)             110.5806         calculate D2E/DX2 analytically  !
 ! A22   A(3,6,15)             109.9275         calculate D2E/DX2 analytically  !
 ! A23   A(7,6,14)             106.8647         calculate D2E/DX2 analytically  !
 ! A24   A(7,6,15)             106.6299         calculate D2E/DX2 analytically  !
 ! A25   A(14,6,15)            109.0174         calculate D2E/DX2 analytically  !
 ! A26   A(3,8,9)              113.8399         calculate D2E/DX2 analytically  !
 ! A27   A(3,8,16)             110.0712         calculate D2E/DX2 analytically  !
 ! A28   A(3,8,17)             110.4964         calculate D2E/DX2 analytically  !
 ! A29   A(9,8,16)             106.2784         calculate D2E/DX2 analytically  !
 ! A30   A(9,8,17)             106.4603         calculate D2E/DX2 analytically  !
 ! A31   A(16,8,17)            109.5129         calculate D2E/DX2 analytically  !
 ! A32   A(8,9,30)             114.1384         calculate D2E/DX2 analytically  !
 ! A33   A(2,11,22)            144.0292         calculate D2E/DX2 analytically  !
 ! A34   A(8,16,24)            144.0122         calculate D2E/DX2 analytically  !
 ! A35   A(18,19,20)           113.6331         calculate D2E/DX2 analytically  !
 ! A36   A(18,19,27)           106.8599         calculate D2E/DX2 analytically  !
 ! A37   A(18,19,28)           106.6296         calculate D2E/DX2 analytically  !
 ! A38   A(20,19,27)           110.5864         calculate D2E/DX2 analytically  !
 ! A39   A(20,19,28)           109.9332         calculate D2E/DX2 analytically  !
 ! A40   A(27,19,28)           109.0157         calculate D2E/DX2 analytically  !
 ! A41   A(19,20,21)           109.1555         calculate D2E/DX2 analytically  !
 ! A42   A(19,20,23)           108.1837         calculate D2E/DX2 analytically  !
 ! A43   A(19,20,25)           111.1848         calculate D2E/DX2 analytically  !
 ! A44   A(21,20,23)           111.0101         calculate D2E/DX2 analytically  !
 ! A45   A(21,20,25)           108.1712         calculate D2E/DX2 analytically  !
 ! A46   A(23,20,25)           109.1494         calculate D2E/DX2 analytically  !
 ! A47   A(20,21,22)           113.8459         calculate D2E/DX2 analytically  !
 ! A48   A(20,21,29)           110.4906         calculate D2E/DX2 analytically  !
 ! A49   A(20,21,30)           110.0738         calculate D2E/DX2 analytically  !
 ! A50   A(22,21,29)           106.4694         calculate D2E/DX2 analytically  !
 ! A51   A(22,21,30)           106.2695         calculate D2E/DX2 analytically  !
 ! A52   A(29,21,30)           109.5096         calculate D2E/DX2 analytically  !
 ! A53   A(11,22,21)           114.1425         calculate D2E/DX2 analytically  !
 ! A54   A(20,23,24)           113.8354         calculate D2E/DX2 analytically  !
 ! A55   A(20,23,31)           110.4964         calculate D2E/DX2 analytically  !
 ! A56   A(20,23,32)           110.081          calculate D2E/DX2 analytically  !
 ! A57   A(24,23,31)           106.4658         calculate D2E/DX2 analytically  !
 ! A58   A(24,23,32)           106.2708         calculate D2E/DX2 analytically  !
 ! A59   A(31,23,32)           109.5091         calculate D2E/DX2 analytically  !
 ! A60   A(16,24,23)           114.2067         calculate D2E/DX2 analytically  !
 ! A61   A(20,25,26)           113.6364         calculate D2E/DX2 analytically  !
 ! A62   A(20,25,33)           109.934          calculate D2E/DX2 analytically  !
 ! A63   A(20,25,34)           110.5737         calculate D2E/DX2 analytically  !
 ! A64   A(26,25,33)           106.6306         calculate D2E/DX2 analytically  !
 ! A65   A(26,25,34)           106.8713         calculate D2E/DX2 analytically  !
 ! A66   A(33,25,34)           109.0124         calculate D2E/DX2 analytically  !
 ! A67   A(9,30,21)            144.0721         calculate D2E/DX2 analytically  !
 ! A68   A(1,32,23)            143.9818         calculate D2E/DX2 analytically  !
 ! D1    D(32,1,2,3)          -103.066          calculate D2E/DX2 analytically  !
 ! D2    D(32,1,2,10)          134.9526         calculate D2E/DX2 analytically  !
 ! D3    D(32,1,2,11)           18.2686         calculate D2E/DX2 analytically  !
 ! D4    D(2,1,32,23)           85.5506         calculate D2E/DX2 analytically  !
 ! D5    D(1,2,3,4)           -174.3511         calculate D2E/DX2 analytically  !
 ! D6    D(1,2,3,6)            -53.2417         calculate D2E/DX2 analytically  !
 ! D7    D(1,2,3,8)             65.9061         calculate D2E/DX2 analytically  !
 ! D8    D(10,2,3,4)           -54.6251         calculate D2E/DX2 analytically  !
 ! D9    D(10,2,3,6)            66.4843         calculate D2E/DX2 analytically  !
 ! D10   D(10,2,3,8)          -174.3679         calculate D2E/DX2 analytically  !
 ! D11   D(11,2,3,4)            66.4559         calculate D2E/DX2 analytically  !
 ! D12   D(11,2,3,6)          -172.4348         calculate D2E/DX2 analytically  !
 ! D13   D(11,2,3,8)           -53.2869         calculate D2E/DX2 analytically  !
 ! D14   D(1,2,11,22)            5.7542         calculate D2E/DX2 analytically  !
 ! D15   D(3,2,11,22)          129.4616         calculate D2E/DX2 analytically  !
 ! D16   D(10,2,11,22)        -108.87           calculate D2E/DX2 analytically  !
 ! D17   D(2,3,4,5)             63.4084         calculate D2E/DX2 analytically  !
 ! D18   D(2,3,4,12)           -56.7569         calculate D2E/DX2 analytically  !
 ! D19   D(2,3,4,13)          -177.1787         calculate D2E/DX2 analytically  !
 ! D20   D(6,3,4,5)            -56.4325         calculate D2E/DX2 analytically  !
 ! D21   D(6,3,4,12)          -176.5977         calculate D2E/DX2 analytically  !
 ! D22   D(6,3,4,13)            62.9804         calculate D2E/DX2 analytically  !
 ! D23   D(8,3,4,5)           -175.6996         calculate D2E/DX2 analytically  !
 ! D24   D(8,3,4,12)            64.1352         calculate D2E/DX2 analytically  !
 ! D25   D(8,3,4,13)           -56.2867         calculate D2E/DX2 analytically  !
 ! D26   D(2,3,6,7)           -175.7379         calculate D2E/DX2 analytically  !
 ! D27   D(2,3,6,14)            64.0888         calculate D2E/DX2 analytically  !
 ! D28   D(2,3,6,15)           -56.3333         calculate D2E/DX2 analytically  !
 ! D29   D(4,3,6,7)            -56.4805         calculate D2E/DX2 analytically  !
 ! D30   D(4,3,6,14)          -176.6538         calculate D2E/DX2 analytically  !
 ! D31   D(4,3,6,15)            62.9241         calculate D2E/DX2 analytically  !
 ! D32   D(8,3,6,7)             63.3743         calculate D2E/DX2 analytically  !
 ! D33   D(8,3,6,14)           -56.799          calculate D2E/DX2 analytically  !
 ! D34   D(8,3,6,15)          -177.2211         calculate D2E/DX2 analytically  !
 ! D35   D(2,3,8,9)             65.933          calculate D2E/DX2 analytically  !
 ! D36   D(2,3,8,16)           -53.258          calculate D2E/DX2 analytically  !
 ! D37   D(2,3,8,17)          -174.3379         calculate D2E/DX2 analytically  !
 ! D38   D(4,3,8,9)            -53.2178         calculate D2E/DX2 analytically  !
 ! D39   D(4,3,8,16)          -172.4088         calculate D2E/DX2 analytically  !
 ! D40   D(4,3,8,17)            66.5113         calculate D2E/DX2 analytically  !
 ! D41   D(6,3,8,9)           -174.3347         calculate D2E/DX2 analytically  !
 ! D42   D(6,3,8,16)            66.4743         calculate D2E/DX2 analytically  !
 ! D43   D(6,3,8,17)           -54.6056         calculate D2E/DX2 analytically  !
 ! D44   D(3,8,9,30)          -102.9907         calculate D2E/DX2 analytically  !
 ! D45   D(16,8,9,30)           18.3352         calculate D2E/DX2 analytically  !
 ! D46   D(17,8,9,30)          135.0222         calculate D2E/DX2 analytically  !
 ! D47   D(3,8,16,24)          129.402          calculate D2E/DX2 analytically  !
 ! D48   D(9,8,16,24)            5.6924         calculate D2E/DX2 analytically  !
 ! D49   D(17,8,16,24)        -108.9309         calculate D2E/DX2 analytically  !
 ! D50   D(8,9,30,21)           85.5343         calculate D2E/DX2 analytically  !
 ! D51   D(2,11,22,21)         -85.7697         calculate D2E/DX2 analytically  !
 ! D52   D(8,16,24,23)         -85.7243         calculate D2E/DX2 analytically  !
 ! D53   D(18,19,20,21)        175.726          calculate D2E/DX2 analytically  !
 ! D54   D(18,19,20,23)        -63.3703         calculate D2E/DX2 analytically  !
 ! D55   D(18,19,20,25)         56.4713         calculate D2E/DX2 analytically  !
 ! D56   D(27,19,20,21)        -64.1062         calculate D2E/DX2 analytically  !
 ! D57   D(27,19,20,23)         56.7975         calculate D2E/DX2 analytically  !
 ! D58   D(27,19,20,25)        176.6391         calculate D2E/DX2 analytically  !
 ! D59   D(28,19,20,21)         56.3212         calculate D2E/DX2 analytically  !
 ! D60   D(28,19,20,23)        177.2249         calculate D2E/DX2 analytically  !
 ! D61   D(28,19,20,25)        -62.9336         calculate D2E/DX2 analytically  !
 ! D62   D(19,20,21,22)         53.3073         calculate D2E/DX2 analytically  !
 ! D63   D(19,20,21,29)        -66.4335         calculate D2E/DX2 analytically  !
 ! D64   D(19,20,21,30)        172.4927         calculate D2E/DX2 analytically  !
 ! D65   D(23,20,21,22)        -65.8556         calculate D2E/DX2 analytically  !
 ! D66   D(23,20,21,29)        174.4036         calculate D2E/DX2 analytically  !
 ! D67   D(23,20,21,30)         53.3299         calculate D2E/DX2 analytically  !
 ! D68   D(25,20,21,22)        174.4154         calculate D2E/DX2 analytically  !
 ! D69   D(25,20,21,29)         54.6746         calculate D2E/DX2 analytically  !
 ! D70   D(25,20,21,30)        -66.3992         calculate D2E/DX2 analytically  !
 ! D71   D(19,20,23,24)        174.3888         calculate D2E/DX2 analytically  !
 ! D72   D(19,20,23,31)         54.6555         calculate D2E/DX2 analytically  !
 ! D73   D(19,20,23,32)        -66.4261         calculate D2E/DX2 analytically  !
 ! D74   D(21,20,23,24)        -65.8669         calculate D2E/DX2 analytically  !
 ! D75   D(21,20,23,31)        174.3999         calculate D2E/DX2 analytically  !
 ! D76   D(21,20,23,32)         53.3183         calculate D2E/DX2 analytically  !
 ! D77   D(25,20,23,24)         53.2768         calculate D2E/DX2 analytically  !
 ! D78   D(25,20,23,31)        -66.4564         calculate D2E/DX2 analytically  !
 ! D79   D(25,20,23,32)        172.462          calculate D2E/DX2 analytically  !
 ! D80   D(19,20,25,26)         56.4905         calculate D2E/DX2 analytically  !
 ! D81   D(19,20,25,33)        -62.9183         calculate D2E/DX2 analytically  !
 ! D82   D(19,20,25,34)        176.6661         calculate D2E/DX2 analytically  !
 ! D83   D(21,20,25,26)        -63.3507         calculate D2E/DX2 analytically  !
 ! D84   D(21,20,25,33)        177.2405         calculate D2E/DX2 analytically  !
 ! D85   D(21,20,25,34)         56.8249         calculate D2E/DX2 analytically  !
 ! D86   D(23,20,25,26)        175.7567         calculate D2E/DX2 analytically  !
 ! D87   D(23,20,25,33)         56.3478         calculate D2E/DX2 analytically  !
 ! D88   D(23,20,25,34)        -64.0677         calculate D2E/DX2 analytically  !
 ! D89   D(20,21,22,11)        103.0528         calculate D2E/DX2 analytically  !
 ! D90   D(29,21,22,11)       -134.9572         calculate D2E/DX2 analytically  !
 ! D91   D(30,21,22,11)        -18.2739         calculate D2E/DX2 analytically  !
 ! D92   D(20,21,30,9)        -129.3654         calculate D2E/DX2 analytically  !
 ! D93   D(22,21,30,9)          -5.6526         calculate D2E/DX2 analytically  !
 ! D94   D(29,21,30,9)         108.9751         calculate D2E/DX2 analytically  !
 ! D95   D(20,23,24,16)        103.0264         calculate D2E/DX2 analytically  !
 ! D96   D(31,23,24,16)       -134.9854         calculate D2E/DX2 analytically  !
 ! D97   D(32,23,24,16)        -18.3037         calculate D2E/DX2 analytically  !
 ! D98   D(20,23,32,1)        -129.3138         calculate D2E/DX2 analytically  !
 ! D99   D(24,23,32,1)          -5.6088         calculate D2E/DX2 analytically  !
 ! D100  D(31,23,32,1)         109.0152         calculate D2E/DX2 analytically  !
 --------------------------------------------------------------------------------
 Trust Radius=5.00D-02 FncErr=1.00D-07 GrdErr=1.00D-06 EigMax=2.50D+02 EigMin=1.00D-04
 Number of steps in this run=    204 maximum allowed number of steps=    204.
 GradGradGradGradGradGradGradGradGradGradGradGradGradGradGradGradGradGrad

                    Distance matrix (angstroms):
                    1          2          3          4          5
     1  Cl   0.000000
     2  C    1.798470   0.000000
     3  C    2.799457   1.538354   0.000000
     4  C    4.143962   2.492878   1.539618   0.000000
     5  Cl   4.793171   3.192581   2.794696   1.795487   0.000000
     6  C    3.103563   2.508218   1.539623   2.540503   3.175467
     7  Cl   4.817160   4.150397   2.794819   3.176156   3.848861
     8  C    3.282077   2.535600   1.538334   2.508354   4.150375
     9  Cl   4.226449   3.282499   2.799528   3.103631   4.817555
    10  H    2.358130   1.098447   2.180900   2.689030   2.699485
    11  H    2.356366   1.099676   2.176589   2.782280   3.659533
    12  H    4.443097   2.707711   2.182759   1.097954   2.360705
    13  H    4.963432   3.457425   2.175563   1.099215   2.358369
    14  H    2.689317   2.787345   2.182751   3.496249   4.197088
    15  H    3.361480   2.714087   2.175400   2.807575   2.758352
    16  H    2.808076   2.727826   2.176434   3.467223   4.962493
    17  H    4.221647   3.490586   2.180911   2.806729   4.453802
    18  Cl   6.328040   7.420913   8.384873   9.505611  10.545128
    19  C    5.382370   6.133155   7.118752   8.076613   9.132109
    20  C    4.789092   5.412859   6.133789   7.117777   8.384090
    21  C    4.649436   4.742553   5.412944   6.132100   7.419689
    22  Cl   3.870110   3.740777   4.788073   5.380637   6.326074
    23  C    3.742544   4.743288   5.413359   6.637048   7.863105
    24  Cl   3.870060   4.647724   4.787155   6.048096   7.501119
    25  C    6.049977   6.636212   7.117359   8.075035   9.504284
    26  Cl   7.502737   7.861694   8.382970   9.129528  10.542701
    27  H    4.804576   5.579058   6.735671   7.680283   8.558262
    28  H    6.251917   6.793369   7.771353   8.582158   9.640389
    29  H    5.690389   5.632448   6.274530   6.818016   8.095856
    30  H    4.486125   4.399742   4.775681   5.474908   6.930292
    31  H    4.334664   5.588172   6.275163   7.582132   8.749690
    32  H    2.796852   3.894984   4.776946   6.015697   7.072370
    33  H    6.443932   7.270261   7.770481   8.849348  10.251500
    34  H    6.038767   6.487291   6.732865   7.657274   9.206260
                    6          7          8          9         10
     6  C    0.000000
     7  Cl   1.795489   0.000000
     8  C    2.492909   3.192386   0.000000
     9  Cl   4.144011   4.792965   1.798455   0.000000
    10  H    2.806296   4.453786   3.490590   4.222228   0.000000
    11  H    3.467239   4.962727   2.728220   2.808995   1.795186
    12  H    3.496233   4.197968   2.787922   2.690029   2.970717
    13  H    2.808236   2.759896   2.714100   3.360768   3.722749
    14  H    1.097955   2.360746   2.708083   4.443453   3.232445
    15  H    1.099222   2.358333   3.457359   4.963331   2.561419
    16  H    2.782323   3.659287   1.099673   2.356363   3.768094
    17  H    2.688954   2.699131   1.098438   2.358076   4.334133
    18  Cl   9.132223  10.544805   7.863223   7.503432   8.097373
    19  C    8.076964   9.505871   6.637647   6.050967   6.819065
    20  C    7.118310   8.384441   5.413217   4.789100   6.274342
    21  C    6.637028   7.863138   4.743596   3.742872   5.586631
    22  Cl   6.049069   7.502294   4.649475   3.872369   4.331923
    23  C    6.133085   7.420570   4.743390   4.649891   5.633303
    24  Cl   5.380343   6.325839   3.740328   3.869308   5.688868
    25  C    8.075864   9.130940   6.131857   5.380439   7.581035
    26  Cl   9.504358  10.543233   7.418977   6.325312   8.747762
    27  H    7.660426   9.209163   6.490120   6.041361   6.134145
    28  H    8.850752  10.252539   7.271182   6.444416   7.449855
    29  H    7.581884   8.749418   5.588160   4.334587   6.420651
    30  H    6.014895   7.071752   3.894585   2.796428   5.353982
    31  H    6.819315   8.096912   5.633254   5.690683   6.422620
    32  H    5.476599   6.931941   4.401537   4.487658   4.691312
    33  H    8.582013   9.639711   6.792429   6.250225   8.205233
    34  H    7.678039   8.555659   5.576387   4.801423   7.504989
                   11         12         13         14         15
    11  H    0.000000
    12  H    2.543505   0.000000
    13  H    3.766248   1.788857   0.000000
    14  H    3.751263   4.338702   3.791778   0.000000
    15  H    3.758254   3.790958   3.208374   1.788950   0.000000
    16  H    2.963701   3.751505   3.758364   2.543911   3.766375
    17  H    3.768537   3.233552   2.561860   2.971078   3.722506
    18  Cl   6.931133   9.208078  10.252103   8.557690   9.640830
    19  C    5.475651   7.659309   8.850303   7.679930   8.582653
    20  C    4.775057   6.733830   7.770318   6.734753   7.770950
    21  C    3.892982   5.577164   6.792327   6.489049   7.270313
    22  Cl   2.794604   4.802398   6.250220   6.038592   6.442211
    23  C    4.399929   6.488675   7.270524   5.578471   6.793459
    24  Cl   4.483655   6.037544   6.441564   4.802567   6.250013
    25  C    6.013305   7.677763   8.580432   7.659161   8.849765
    26  Cl   7.069551   8.554708   9.637498   9.207547  10.251066
    27  H    4.958704   7.294483   8.543422   7.294767   8.043290
    28  H    6.010975   8.042053   9.352396   8.543142   9.352992
    29  H    4.689355   6.132276   7.448881   7.506806   8.205130
    30  H    3.614481   4.956965   6.010198   5.912631   6.755664
    31  H    5.354918   7.506602   8.205582   6.133889   7.450525
    32  H    3.616234   5.912932   6.756742   4.958801   6.011962
    33  H    6.754793   8.541433   9.351343   8.042502   9.352615
    34  H    5.910040   7.291638   8.039857   7.292892   8.541319
                   16         17         18         19         20
    16  H    0.000000
    17  H    1.795211   0.000000
    18  Cl   7.071261   8.749166   0.000000
    19  C    6.014910   7.582450   1.795494   0.000000
    20  C    4.775689   6.274844   2.794740   1.539617   0.000000
    21  C    4.400521   5.633871   4.150345   2.508232   1.538335
    22  Cl   4.485404   5.690746   4.818068   3.104538   2.799584
    23  C    3.894040   5.587665   3.192369   2.493009   1.538331
    24  Cl   2.794296   4.331941   4.793450   4.144067   2.799436
    25  C    5.474761   6.817836   3.175942   2.540507   1.539642
    26  Cl   6.929782   8.095331   3.849867   3.176212   2.794784
    27  H    5.912824   7.507775   2.360678   1.097948   2.182814
    28  H    6.755950   8.206121   2.358334   1.099223   2.175467
    29  H    5.355237   6.422823   4.453351   2.805840   2.180847
    30  H    3.616183   4.691368   4.962517   3.467176   2.176419
    31  H    4.690332   6.421586   2.699503   2.689486   2.180915
    32  H    3.616432   5.355899   3.658679   2.782146   2.176520
    33  H    6.010417   7.448910   2.758910   2.807629   2.175499
    34  H    4.956416   6.131630   4.197401   3.496214   2.182688
                   21         22         23         24         25
    21  C    0.000000
    22  Cl   1.798410   0.000000
    23  C    2.535715   3.281864   0.000000
    24  Cl   3.281791   4.224471   1.798434   0.000000
    25  C    2.492836   4.144064   2.508153   3.103864   0.000000
    26  Cl   3.191961   4.793417   4.150319   4.817214   1.795460
    27  H    2.787597   2.690677   2.708286   4.443378   3.496293
    28  H    2.714103   3.362720   3.457478   4.963356   2.807736
    29  H    1.098449   2.358171   3.490674   4.221938   2.689316
    30  H    1.099606   2.356152   2.728549   2.808259   2.781586
    31  H    3.490715   4.222071   1.098446   2.358140   2.806016
    32  H    2.728580   2.808375   1.099624   2.356204   3.467168
    33  H    3.457365   4.963492   2.714228   3.362286   1.099223
    34  H    2.708096   4.443055   2.786998   2.689277   1.097966
                   26         27         28         29         30
    26  Cl   0.000000
    27  H    4.197789   0.000000
    28  H    2.759360   1.788925   0.000000
    29  H    2.698973   3.232096   2.560883   0.000000
    30  H    3.657693   3.751702   3.758027   1.795129   0.000000
    31  H    4.453694   2.971914   3.722936   4.334145   3.768582
    32  H    4.962620   2.543810   3.766353   3.768606   2.965185
    33  H    2.358318   3.791258   3.207724   3.722698   3.765953
    34  H    2.360819   4.338700   3.791410   2.972062   2.543103
                   31         32         33         34
    31  H    0.000000
    32  H    1.795136   0.000000
    33  H    2.561289   3.758255   0.000000
    34  H    3.231734   3.751068   1.788903   0.000000
 Framework group  C1[X(C10H16Cl8)]
 Deg. of freedom    96
                         Standard orientation:                         
 ---------------------------------------------------------------------
 Center     Atomic      Atomic             Coordinates (Angstroms)
 Number     Number       Type             X           Y           Z
 ---------------------------------------------------------------------
      1         17           0        1.230654   -2.103981   -0.197446
      2          6           0        2.195262   -0.972018    0.813834
      3          6           0        3.066651    0.000079    0.000053
      4          6           0        3.936306    0.804020    0.983823
      5         17           0        5.093128   -0.206612    1.913425
      6          6           0        3.936988   -0.803793   -0.983177
      7         17           0        5.093438    0.206921   -1.913155
      8          6           0        2.195416    0.971869   -0.814222
      9         17           0        1.230353    2.104086    0.196312
     10          1           0        2.821239   -1.594676    1.467314
     11          1           0        1.472285   -0.410993    1.423624
     12          1           0        3.307615    1.325238    1.717704
     13          1           0        4.535584    1.544640    0.435533
     14          1           0        3.308732   -1.325855   -1.716833
     15          1           0        4.536631   -1.543605   -0.434183
     16          1           0        1.472713    0.410447   -1.423965
     17          1           0        2.821469    1.594391   -1.467744
     18         17           0       -5.094484   -1.912656   -0.208296
     19          6           0       -3.937873   -0.983827    0.803299
     20          6           0       -3.067138   -0.000334    0.000190
     21          6           0       -2.195778    0.812717    0.972895
     22         17           0       -1.230089   -0.199072    2.103385
     23          6           0       -2.196079   -0.814066   -0.972209
     24         17           0       -1.229561    0.197247   -2.102455
     25          6           0       -3.936419    0.984137   -0.803341
     26         17           0       -5.092112    1.914672    0.207677
     27          1           0       -3.310009   -1.718151    1.324876
     28          1           0       -4.537446   -0.435237    1.543470
     29          1           0       -2.821860    1.465312    1.596377
     30          1           0       -1.473345    1.423344    0.412217
     31          1           0       -2.822358   -1.466255   -1.595914
     32          1           0       -1.474121   -1.425161   -0.411397
     33          1           0       -4.536458    0.436197   -1.543615
     34          1           0       -3.307264    1.717380   -1.324923
 ---------------------------------------------------------------------
 Rotational constants (GHZ):           0.3731818           0.0858580           0.0858520
   316 basis functions,   610 primitive gaussians,   334 cartesian basis functions
   106 alpha electrons      106 beta electrons
       nuclear repulsion energy      2645.2751745672 Hartrees.
 NAtoms=   34 NActive=   34 NUniq=   34 SFac= 1.00D+00 NAtFMM=   60 NAOKFM=F Big=F
 Nuclear repulsion after empirical dispersion term =     2645.2430603807 Hartrees.
   1 Symmetry operations used in ECPInt.
 ECPInt:  NShTT=   12246 NPrTT=   54318 LenC2=   10626 LenP2D=   30419.
 LDataN:  DoStor=T MaxTD1= 4 Len=   56
 ExpMin= 1.22D-01 ExpMax= 1.04D+04 ExpMxC= 1.57D+03 IAcc=3 IRadAn=         5 AccDes= 0.00D+00
 Harris functional with IExCor= 4639 and IRadAn=       5 diagonalized for initial guess.
 HarFok:  IExCor= 4639 AccDes= 0.00D+00 IRadAn=         5 IDoV= 1 UseB2=F ITyADJ=14
 ICtDFT=  3500011 ScaDFX=  1.000000  1.000000  1.000000  1.000000
 FoFCou: FMM=F IPFlag=           0 FMFlag=      100000 FMFlg1=           0
         NFxFlg=           0 DoJE=T BraDBF=F KetDBF=T FulRan=T
         wScrn=  0.000000 ICntrl=       500 IOpCl=  0 I1Cent=   200000004 NGrid=           0
         NMat0=    1 NMatS0=      1 NMatT0=    0 NMatD0=    1 NMtDS0=    0 NMtDT0=    0
 Petite list used in FoFCou.
     Accept linear search using points  3 and  4.
     Accept linear search using points  2 and  3.
     Accept linear search using points  2 and  3.
     Accept linear search using points  1 and  2.
     Accept linear search using points  2 and  3.
     Minimum is close to point  2 DX=  3.84D-04 DF= -2.27D-12 DXR=  3.83D-04 DFR=  1.58D-07 which will be used.
 SCF Done:  E(RwB97XD) =  -4070.73752386     a.u. after    8 cycles
            Convg  =    0.5429D-09                    34 Fock formations.
              S**2 =  0.0000                  -V/T =  2.0030
 DoSCS=F DFT=T ScalE2(SS,OS)=  1.000000  1.000000
 NROrb=    316 NOA=   106 NOB=   106 NVA=   210 NVB=   210
   1 Symmetry operations used in ECPInt.
 ECPInt:  NShTT=   12246 NPrTT=   54318 LenC2=   10626 LenP2D=   30419.
 LDataN:  DoStor=T MaxTD1= 5 Len=  102
 Symmetrizing basis deriv contribution to polar:
 IMax=3 JMax=2 DiffMx= 0.00D+00
 Calling FoFCou, ICntrl=  3107 FMM=F I1Cent=   0 AccDes= 0.00D+00.
 End of G2Drv F.D. properties file   721 does not exist.
 End of G2Drv F.D. properties file   722 does not exist.
 End of G2Drv F.D. properties file   788 does not exist.
          IDoAtm=1111111111111111111111111111111111
 CalDSu exits because no D1Ps are significant.
 End of Minotr F.D. properties file   721 does not exist.
 End of Minotr F.D. properties file   722 does not exist.
 End of Minotr F.D. properties file   788 does not exist.

 **********************************************************************

            Population analysis using the SCF Density.

 **********************************************************************

 Orbital symmetries:
       Occupied  (A) (A) (A) (A) (A) (A) (A) (A) (A) (A) (A) (A)
                 (A) (A) (A) (A) (A) (A) (A) (A) (A) (A) (A) (A)
                 (A) (A) (A) (A) (A) (A) (A) (A) (A) (A) (A) (A)
                 (A) (A) (A) (A) (A) (A) (A) (A) (A) (A) (A) (A)
                 (A) (A) (A) (A) (A) (A) (A) (A) (A) (A) (A) (A)
                 (A) (A) (A) (A) (A) (A) (A) (A) (A) (A) (A) (A)
                 (A) (A) (A) (A) (A) (A) (A) (A) (A) (A) (A) (A)
                 (A) (A) (A) (A) (A) (A) (A) (A) (A) (A) (A) (A)
                 (A) (A) (A) (A) (A) (A) (A) (A) (A) (A)
       Virtual   (A) (A) (A) (A) (A) (A) (A) (A) (A) (A) (A) (A)
                 (A) (A) (A) (A) (A) (A) (A) (A) (A) (A) (A) (A)
                 (A) (A) (A) (A) (A) (A) (A) (A) (A) (A) (A) (A)
                 (A) (A) (A) (A) (A) (A) (A) (A) (A) (A) (A) (A)
                 (A) (A) (A) (A) (A) (A) (A) (A) (A) (A) (A) (A)
                 (A) (A) (A) (A) (A) (A) (A) (A) (A) (A) (A) (A)
                 (A) (A) (A) (A) (A) (A) (A) (A) (A) (A) (A) (A)
                 (A) (A) (A) (A) (A) (A) (A) (A) (A) (A) (A) (A)
                 (A) (A) (A) (A) (A) (A) (A) (A) (A) (A) (A) (A)
                 (A) (A) (A) (A) (A) (A) (A) (A) (A) (A) (A) (A)
                 (A) (A) (A) (A) (A) (A) (A) (A) (A) (A) (A) (A)
                 (A) (A) (A) (A) (A) (A) (A) (A) (A) (A) (A) (A)
                 (A) (A) (A) (A) (A) (A) (A) (A) (A) (A) (A) (A)
                 (A) (A) (A) (A) (A) (A) (A) (A) (A) (A) (A) (A)
                 (A) (A) (A) (A) (A) (A) (A) (A) (A) (A) (A) (A)
                 (A) (A) (A) (A) (A) (A) (A) (A) (A) (A) (A) (A)
                 (A) (A) (A) (A) (A) (A) (A) (A) (A) (A) (A) (A)
                 (A) (A) (A) (A) (A) (A)
 The electronic state is 1-A.
 Alpha  occ. eigenvalues -- -101.68322-101.68320-101.68319-101.68317-101.67841
 Alpha  occ. eigenvalues -- -101.67839-101.67838-101.67837 -10.36800 -10.36798
 Alpha  occ. eigenvalues --  -10.36796 -10.36793 -10.36757 -10.36754 -10.36752
 Alpha  occ. eigenvalues --  -10.36750 -10.36533 -10.36530  -9.59047  -9.59046
 Alpha  occ. eigenvalues --   -9.59045  -9.59043  -9.58601  -9.58601  -9.58599
 Alpha  occ. eigenvalues --   -9.58598  -7.34420  -7.34419  -7.34417  -7.34417
 Alpha  occ. eigenvalues --   -7.33986  -7.33985  -7.33984  -7.33982  -7.33467
 Alpha  occ. eigenvalues --   -7.33467  -7.33465  -7.33465  -7.33447  -7.33446
 Alpha  occ. eigenvalues --   -7.33444  -7.33444  -7.33021  -7.33021  -7.33019
 Alpha  occ. eigenvalues --   -7.33018  -7.32985  -7.32984  -7.32982  -7.32981
 Alpha  occ. eigenvalues --   -1.01541  -1.01419  -0.96441  -0.96191  -0.96026
 Alpha  occ. eigenvalues --   -0.96023  -0.95609  -0.95606  -0.88523  -0.88451
 Alpha  occ. eigenvalues --   -0.78564  -0.78563  -0.78193  -0.78188  -0.76702
 Alpha  occ. eigenvalues --   -0.76449  -0.65595  -0.65288  -0.61155  -0.61060
 Alpha  occ. eigenvalues --   -0.58714  -0.58712  -0.57941  -0.57937  -0.56618
 Alpha  occ. eigenvalues --   -0.56057  -0.54189  -0.53077  -0.51273  -0.51272
 Alpha  occ. eigenvalues --   -0.50931  -0.50928  -0.50109  -0.49443  -0.47898
 Alpha  occ. eigenvalues --   -0.47898  -0.47501  -0.47500  -0.47129  -0.47107
 Alpha  occ. eigenvalues --   -0.41898  -0.41247  -0.40504  -0.40504  -0.39952
 Alpha  occ. eigenvalues --   -0.39950  -0.39531  -0.39458  -0.38958  -0.38687
 Alpha  occ. eigenvalues --   -0.38223  -0.38221  -0.38067  -0.37845  -0.37778
 Alpha  occ. eigenvalues --   -0.37776
 Alpha virt. eigenvalues --    0.09249   0.09447   0.09925   0.09926   0.10168
 Alpha virt. eigenvalues --    0.10555   0.10817   0.10820   0.14984   0.15866
 Alpha virt. eigenvalues --    0.16717   0.16721   0.17013   0.17038   0.17040
 Alpha virt. eigenvalues --    0.17332   0.18427   0.19390   0.20359   0.22144
 Alpha virt. eigenvalues --    0.22147   0.23047   0.23054   0.24602   0.24944
 Alpha virt. eigenvalues --    0.24966   0.25777   0.26308   0.26898   0.26899
 Alpha virt. eigenvalues --    0.28665   0.28674   0.44454   0.45260   0.46845
 Alpha virt. eigenvalues --    0.47241   0.47321   0.47327   0.48095   0.48148
 Alpha virt. eigenvalues --    0.48929   0.48930   0.52167   0.52174   0.54325
 Alpha virt. eigenvalues --    0.54341   0.55947   0.57099   0.60570   0.61184
 Alpha virt. eigenvalues --    0.61763   0.61914   0.63535   0.63636   0.63955
 Alpha virt. eigenvalues --    0.63957   0.65238   0.65241   0.66839   0.66843
 Alpha virt. eigenvalues --    0.68707   0.68711   0.69098   0.71045   0.72033
 Alpha virt. eigenvalues --    0.72589   0.72594   0.72628   0.73268   0.73270
 Alpha virt. eigenvalues --    0.73569   0.73995   0.74571   0.74595   0.74599
 Alpha virt. eigenvalues --    0.74830   0.75913   0.75915   0.77097   0.77905
 Alpha virt. eigenvalues --    0.77908   0.78057   0.78101   0.78441   0.81095
 Alpha virt. eigenvalues --    0.81457   0.81467   0.81504   0.83777   0.84490
 Alpha virt. eigenvalues --    0.85036   0.85880   0.85881   0.85982   0.85997
 Alpha virt. eigenvalues --    0.86541   0.86545   0.86720   0.87254   0.87521
 Alpha virt. eigenvalues --    0.88077   0.88083   0.88535   0.88817   0.88821
 Alpha virt. eigenvalues --    0.89042   0.89874   0.89875   0.90239   0.91027
 Alpha virt. eigenvalues --    0.91071   0.91792   0.92176   0.92329   0.92332
 Alpha virt. eigenvalues --    0.92559   0.93123   0.93128   0.94006   0.95800
 Alpha virt. eigenvalues --    0.95988   0.96000   1.00386   1.00395   1.01385
 Alpha virt. eigenvalues --    1.01723   1.07362   1.07821   1.08562   1.08587
 Alpha virt. eigenvalues --    1.10070   1.12336   1.12697   1.13901   1.13910
 Alpha virt. eigenvalues --    1.16044   1.16048   1.17398   1.18418   1.18428
 Alpha virt. eigenvalues --    1.19327   1.20183   1.21699   1.21706   1.23514
 Alpha virt. eigenvalues --    1.23628   1.27114   1.27116   1.27543   1.31819
 Alpha virt. eigenvalues --    1.32820   1.32835   1.39471   1.40954   1.40959
 Alpha virt. eigenvalues --    1.42180   1.44252   1.45160   1.47564   1.47609
 Alpha virt. eigenvalues --    1.51595   1.52116   1.57456   1.58042   1.78937
 Alpha virt. eigenvalues --    1.78937   1.80591   1.80601   1.82523   1.82613
 Alpha virt. eigenvalues --    1.85895   1.86682   1.88359   1.88364   1.89379
 Alpha virt. eigenvalues --    1.89386   2.06756   2.07040   2.07040   2.08308
 Alpha virt. eigenvalues --    2.08315   2.09179   2.09964   2.10097   2.10634
 Alpha virt. eigenvalues --    2.11459   2.19999   2.20010   2.20199   2.20200
 Alpha virt. eigenvalues --    2.21987   2.21997   2.24563   2.24603   2.27358
 Alpha virt. eigenvalues --    2.27361   2.28466   2.28477   2.31998   2.32113
 Alpha virt. eigenvalues --    2.57743   2.57990   2.59671   2.59780   2.73127
 Alpha virt. eigenvalues --    2.73128   2.73977   2.74262   2.74272   2.74355
          Condensed to atoms (all electrons):
 Mulliken charges:
               1
     1  Cl  -0.135992
     2  C   -0.139876
     3  C   -0.275355
     4  C   -0.129393
     5  Cl  -0.142574
     6  C   -0.129427
     7  Cl  -0.142576
     8  C   -0.139873
     9  Cl  -0.135994
    10  H    0.171250
    11  H    0.168025
    12  H    0.172952
    13  H    0.173232
    14  H    0.172958
    15  H    0.173221
    16  H    0.168059
    17  H    0.171259
    18  Cl  -0.142572
    19  C   -0.129398
    20  C   -0.275396
    21  C   -0.139826
    22  Cl  -0.135932
    23  C   -0.139769
    24  Cl  -0.135937
    25  C   -0.129460
    26  Cl  -0.142551
    27  H    0.172946
    28  H    0.173216
    29  H    0.171266
    30  H    0.168029
    31  H    0.171263
    32  H    0.168030
    33  H    0.173224
    34  H    0.172971
 Sum of Mulliken charges =   0.00000
 Mulliken charges with hydrogens summed into heavy atoms:
               1
     1  Cl  -0.135992
     2  C    0.199400
     3  C   -0.275355
     4  C    0.216791
     5  Cl  -0.142574
     6  C    0.216752
     7  Cl  -0.142576
     8  C    0.199445
     9  Cl  -0.135994
    18  Cl  -0.142572
    19  C    0.216764
    20  C   -0.275396
    21  C    0.199469
    22  Cl  -0.135932
    23  C    0.199524
    24  Cl  -0.135937
    25  C    0.216735
    26  Cl  -0.142551
 APT charges:
               1
     1  Cl  -0.309988
     2  C    0.246305
     3  C   -0.057257
     4  C    0.272772
     5  Cl  -0.298077
     6  C    0.272715
     7  Cl  -0.298146
     8  C    0.246313
     9  Cl  -0.310026
    10  H    0.027423
    11  H    0.046893
    12  H    0.027516
    13  H    0.015781
    14  H    0.027601
    15  H    0.015773
    16  H    0.046886
    17  H    0.027436
    18  Cl  -0.298110
    19  C    0.272831
    20  C   -0.057269
    21  C    0.246379
    22  Cl  -0.309881
    23  C    0.246372
    24  Cl  -0.309933
    25  C    0.272655
    26  Cl  -0.298074
    27  H    0.027435
    28  H    0.015757
    29  H    0.027459
    30  H    0.046775
    31  H    0.027449
    32  H    0.046792
    33  H    0.015798
    34  H    0.027644
 Sum of APT charges =   0.00000
 APT charges with hydrogens summed into heavy atoms:
               1
     1  Cl  -0.309988
     2  C    0.320621
     3  C   -0.057257
     4  C    0.316069
     5  Cl  -0.298077
     6  C    0.316090
     7  Cl  -0.298146
     8  C    0.320635
     9  Cl  -0.310026
    18  Cl  -0.298110
    19  C    0.316023
    20  C   -0.057269
    21  C    0.320613
    22  Cl  -0.309881
    23  C    0.320612
    24  Cl  -0.309933
    25  C    0.316097
    26  Cl  -0.298074
 Electronic spatial extent (au):  <R**2>=          12248.2143
 Charge=              0.0000 electrons
 Dipole moment (field-independent basis, Debye):
    X=             -0.0046    Y=             -0.0014    Z=              0.0013  Tot=              0.0049
  Exact polarizability: 210.509  -0.005 157.249   0.002   0.006 157.225
 Approx polarizability: 210.465  -0.006 194.688   0.002   0.009 194.660
 Evaluate density.
 Using the total density.
 Monte-Carlo method of calculating molar volume:
 based on  0.001 e/bohr**3 density envelope.
 Number of points per bohr**3 =  100 CutOff= 1.00D-04
 Using the SCF density.
 There are      2753 points.  Will hold      2753 in memory.
 LenV=  1047539455 MDV=  1048576000.
 Box volume =20865.133 fraction occupied=0.115
 Integrated density= 1.2382680013612325D+02 error=-8.8173199863876746D+01
 Molar volume = 2394.981 bohr**3/mol (213.726 cm**3/mol)
 Recommended a0 for SCRF calculation =  5.33 angstrom ( 10.08 bohr)
   1 Symmetry operations used in ECPInt.
 ECPInt:  NShTT=   12246 NPrTT=   54318 LenC2=   10626 LenP2D=   30419.
 LDataN:  DoStor=T MaxTD1= 6 Len=  172
 Calling FoFJK, ICntrl=    100127 FMM=F ISym2X=0 I1Cent= 0 IOpClX= 0 NMat=1 NMatS=1 NMatT=0.
 FormGI is forming the generalized inverse of G from B-inverse, IUseBI=4.

 GradGradGradGradGradGradGradGradGradGradGradGradGradGradGradGradGradGrad
 Internal  Forces:  Max     0.000183530 RMS     0.000055224
 Step number   1 out of a maximum of  204
 All quantities printed in internal units (Hartrees-Bohrs-Radians)
 Mixed Optimization -- En-DIIS/RFO-DIIS
 Second derivative matrix not updated -- analytic derivatives used.
 ITU=  0
     Eigenvalues ---    0.00060   0.00061   0.00124   0.00200   0.00268
     Eigenvalues ---    0.00382   0.00385   0.00387   0.00474   0.00525
     Eigenvalues ---    0.00547   0.00548   0.00550   0.00552   0.01037
     Eigenvalues ---    0.01241   0.03096   0.03101   0.03384   0.03643
     Eigenvalues ---    0.04274   0.04277   0.04612   0.04633   0.04643
     Eigenvalues ---    0.04644   0.04738   0.04739   0.04963   0.04990
     Eigenvalues ---    0.05558   0.05559   0.06142   0.06251   0.06251
     Eigenvalues ---    0.06509   0.06549   0.06648   0.06648   0.07364
     Eigenvalues ---    0.07692   0.08155   0.08158   0.08213   0.09502
     Eigenvalues ---    0.10029   0.10218   0.10220   0.12480   0.12481
     Eigenvalues ---    0.12799   0.12937   0.13640   0.14583   0.14601
     Eigenvalues ---    0.14613   0.15524   0.16182   0.17719   0.18340
     Eigenvalues ---    0.20255   0.21446   0.21657   0.21661   0.22956
     Eigenvalues ---    0.22971   0.23053   0.23054   0.24137   0.24139
     Eigenvalues ---    0.25392   0.25400   0.26528   0.26530   0.28707
     Eigenvalues ---    0.28826   0.32381   0.32675   0.32680   0.33512
     Eigenvalues ---    0.33525   0.34171   0.34961   0.35075   0.35076
     Eigenvalues ---    0.35087   0.35096   0.35124   0.35347   0.35347
     Eigenvalues ---    0.35448   0.35461   0.35692   0.35693   0.36072
     Eigenvalues ---    0.36091
 Linear search not attempted -- first point.
 Iteration  1 RMS(Cart)=  0.00213092 RMS(Int)=  0.00000213
 Iteration  2 RMS(Cart)=  0.00000244 RMS(Int)=  0.00000040
 Iteration  3 RMS(Cart)=  0.00000000 RMS(Int)=  0.00000040
 Variable       Old X    -DE/DX   Delta X   Delta X   Delta X     New X
                                 (Linear)    (Quad)   (Total)
    R1        3.39862   0.00002   0.00000  -0.00008  -0.00008   3.39854
    R2        5.28528  -0.00004   0.00000  -0.00910  -0.00910   5.27619
    R3        2.90707   0.00008   0.00000  -0.00001  -0.00001   2.90705
    R4        2.07576   0.00002   0.00000   0.00007   0.00007   2.07583
    R5        2.07809   0.00002   0.00000   0.00006   0.00006   2.07815
    R6        2.90946  -0.00002   0.00000   0.00021   0.00021   2.90966
    R7        2.90947  -0.00002   0.00000   0.00020   0.00020   2.90967
    R8        2.90703   0.00008   0.00000   0.00003   0.00003   2.90706
    R9        3.39298  -0.00007   0.00000  -0.00006  -0.00006   3.39291
   R10        2.07483  -0.00005   0.00000  -0.00014  -0.00014   2.07469
   R11        2.07722   0.00005   0.00000   0.00009   0.00009   2.07731
   R12        3.39298  -0.00008   0.00000  -0.00007  -0.00007   3.39291
   R13        2.07483  -0.00006   0.00000  -0.00015  -0.00015   2.07469
   R14        2.07723   0.00004   0.00000   0.00008   0.00008   2.07730
   R15        3.39859   0.00003   0.00000  -0.00005  -0.00005   3.39854
   R16        2.07808   0.00003   0.00000   0.00007   0.00007   2.07815
   R17        2.07575   0.00003   0.00000   0.00008   0.00008   2.07583
   R18        5.28448  -0.00004   0.00000  -0.00822  -0.00822   5.27626
   R19        5.28104  -0.00001   0.00000  -0.00498  -0.00498   5.27605
   R20        5.28045  -0.00001   0.00000  -0.00432  -0.00432   5.27613
   R21        3.39299  -0.00007   0.00000  -0.00008  -0.00008   3.39291
   R22        2.90945  -0.00003   0.00000   0.00021   0.00021   2.90966
   R23        2.07482  -0.00004   0.00000  -0.00013  -0.00013   2.07469
   R24        2.07723   0.00004   0.00000   0.00008   0.00008   2.07730
   R25        2.90703   0.00007   0.00000   0.00002   0.00002   2.90706
   R26        2.90703   0.00008   0.00000   0.00003   0.00003   2.90706
   R27        2.90950  -0.00002   0.00000   0.00016   0.00016   2.90967
   R28        3.39850   0.00004   0.00000   0.00003   0.00003   3.39853
   R29        2.07577   0.00002   0.00000   0.00006   0.00006   2.07583
   R30        2.07795   0.00005   0.00000   0.00020   0.00020   2.07815
   R31        3.39855   0.00004   0.00000  -0.00001  -0.00001   3.39854
   R32        2.07576   0.00002   0.00000   0.00007   0.00007   2.07583
   R33        2.07799   0.00004   0.00000   0.00016   0.00016   2.07815
   R34        3.39293  -0.00007   0.00000  -0.00001  -0.00001   3.39292
   R35        2.07723   0.00004   0.00000   0.00007   0.00007   2.07731
   R36        2.07485  -0.00006   0.00000  -0.00017  -0.00017   2.07469
    A1        1.99209   0.00005   0.00000  -0.00044  -0.00044   1.99165
    A2        1.98677   0.00005   0.00000   0.00027   0.00027   1.98704
    A3        1.85813   0.00000   0.00000   0.00019   0.00019   1.85831
    A4        1.85489  -0.00003   0.00000  -0.00005  -0.00005   1.85485
    A5        1.92848  -0.00002   0.00000  -0.00034  -0.00034   1.92814
    A6        1.92129  -0.00001   0.00000   0.00013   0.00013   1.92142
    A7        1.91130   0.00001   0.00000  -0.00020  -0.00020   1.91110
    A8        1.88800  -0.00002   0.00000  -0.00030  -0.00030   1.88770
    A9        1.90509   0.00012   0.00000   0.00069   0.00069   1.90577
   A10        1.93734  -0.00004   0.00000   0.00065   0.00065   1.93799
   A11        1.94055  -0.00016   0.00000  -0.00121  -0.00121   1.93934
   A12        1.90526   0.00011   0.00000   0.00051   0.00051   1.90577
   A13        1.88804  -0.00002   0.00000  -0.00035  -0.00035   1.88769
   A14        1.98323  -0.00014   0.00000  -0.00051  -0.00051   1.98272
   A15        1.93001   0.00016   0.00000   0.00099   0.00099   1.93101
   A16        1.91883  -0.00004   0.00000  -0.00030  -0.00030   1.91853
   A17        1.86509  -0.00002   0.00000  -0.00052  -0.00052   1.86458
   A18        1.86110   0.00005   0.00000  -0.00014  -0.00014   1.86095
   A19        1.90258  -0.00000   0.00000   0.00047   0.00047   1.90305
   A20        1.98336  -0.00018   0.00000  -0.00065  -0.00064   1.98271
   A21        1.92999   0.00017   0.00000   0.00101   0.00101   1.93101
   A22        1.91860  -0.00001   0.00000  -0.00006  -0.00006   1.91854
   A23        1.86514  -0.00001   0.00000  -0.00057  -0.00057   1.86457
   A24        1.86104   0.00005   0.00000  -0.00009  -0.00009   1.86095
   A25        1.90271  -0.00002   0.00000   0.00033   0.00033   1.90305
   A26        1.98688   0.00004   0.00000   0.00016   0.00016   1.98704
   A27        1.92110  -0.00001   0.00000   0.00031   0.00031   1.92142
   A28        1.92853  -0.00002   0.00000  -0.00039  -0.00039   1.92814
   A29        1.85491  -0.00002   0.00000  -0.00006  -0.00006   1.85484
   A30        1.85808   0.00000   0.00000   0.00023   0.00023   1.85831
   A31        1.91136   0.00001   0.00000  -0.00026  -0.00026   1.91110
   A32        1.99209   0.00005   0.00000  -0.00043  -0.00043   1.99166
   A33        2.51378  -0.00002   0.00000   0.00107   0.00107   2.51486
   A34        2.51349  -0.00001   0.00000   0.00134   0.00134   2.51483
   A35        1.98327  -0.00015   0.00000  -0.00056  -0.00056   1.98272
   A36        1.86506  -0.00001   0.00000  -0.00047  -0.00047   1.86458
   A37        1.86104   0.00005   0.00000  -0.00009  -0.00009   1.86095
   A38        1.93010   0.00014   0.00000   0.00090   0.00090   1.93100
   A39        1.91870  -0.00003   0.00000  -0.00016  -0.00016   1.91854
   A40        1.90268  -0.00000   0.00000   0.00036   0.00036   1.90305
   A41        1.90512   0.00011   0.00000   0.00064   0.00064   1.90577
   A42        1.88816  -0.00003   0.00000  -0.00046  -0.00046   1.88770
   A43        1.94054  -0.00016   0.00000  -0.00120  -0.00120   1.93934
   A44        1.93749  -0.00004   0.00000   0.00051   0.00051   1.93800
   A45        1.88794  -0.00001   0.00000  -0.00025  -0.00025   1.88770
   A46        1.90502   0.00012   0.00000   0.00076   0.00076   1.90577
   A47        1.98699   0.00003   0.00000   0.00005   0.00005   1.98704
   A48        1.92842  -0.00001   0.00000  -0.00029  -0.00029   1.92814
   A49        1.92115  -0.00001   0.00000   0.00027   0.00027   1.92142
   A50        1.85824  -0.00000   0.00000   0.00007   0.00007   1.85831
   A51        1.85475  -0.00001   0.00000   0.00009   0.00009   1.85485
   A52        1.91130   0.00000   0.00000  -0.00020  -0.00020   1.91110
   A53        1.99216   0.00004   0.00000  -0.00049  -0.00050   1.99167
   A54        1.98680   0.00005   0.00000   0.00024   0.00024   1.98704
   A55        1.92853  -0.00003   0.00000  -0.00039  -0.00039   1.92813
   A56        1.92128  -0.00002   0.00000   0.00014   0.00015   1.92142
   A57        1.85818   0.00000   0.00000   0.00013   0.00013   1.85831
   A58        1.85478  -0.00001   0.00000   0.00007   0.00007   1.85484
   A59        1.91129   0.00000   0.00000  -0.00019  -0.00020   1.91110
   A60        1.99328   0.00004   0.00000  -0.00167  -0.00167   1.99161
   A61        1.98333  -0.00016   0.00000  -0.00061  -0.00061   1.98272
   A62        1.91871  -0.00003   0.00000  -0.00017  -0.00017   1.91854
   A63        1.92987   0.00018   0.00000   0.00114   0.00114   1.93101
   A64        1.86105   0.00005   0.00000  -0.00010  -0.00010   1.86095
   A65        1.86526  -0.00003   0.00000  -0.00069  -0.00069   1.86457
   A66        1.90262  -0.00001   0.00000   0.00043   0.00042   1.90305
   A67        2.51453  -0.00003   0.00000   0.00036   0.00036   2.51490
   A68        2.51296  -0.00002   0.00000   0.00200   0.00200   2.51496
    D1       -1.79884   0.00002   0.00000   0.00170   0.00170  -1.79714
    D2        2.35537   0.00001   0.00000   0.00183   0.00183   2.35720
    D3        0.31885   0.00002   0.00000   0.00200   0.00200   0.32084
    D4        1.49314  -0.00003   0.00000   0.00056   0.00056   1.49370
    D5       -3.04300   0.00008   0.00000   0.00111   0.00111  -3.04189
    D6       -0.92924  -0.00005   0.00000  -0.00013  -0.00013  -0.92937
    D7        1.15028  -0.00003   0.00000   0.00028   0.00028   1.15056
    D8       -0.95339   0.00010   0.00000   0.00129   0.00129  -0.95210
    D9        1.16037  -0.00003   0.00000   0.00005   0.00005   1.16042
   D10       -3.04329  -0.00000   0.00000   0.00046   0.00046  -3.04284
   D11        1.15987   0.00008   0.00000   0.00090   0.00090   1.16077
   D12       -3.00955  -0.00005   0.00000  -0.00034  -0.00034  -3.00989
   D13       -0.93003  -0.00002   0.00000   0.00007   0.00007  -0.92997
   D14        0.10043  -0.00002   0.00000  -0.00193  -0.00193   0.09850
   D15        2.25953   0.00002   0.00000  -0.00155  -0.00155   2.25798
   D16       -1.90014  -0.00001   0.00000  -0.00203  -0.00203  -1.90217
   D17        1.10668   0.00004   0.00000   0.00090   0.00090   1.10758
   D18       -0.99059   0.00005   0.00000   0.00120   0.00120  -0.98940
   D19       -3.09235  -0.00003   0.00000   0.00017   0.00017  -3.09219
   D20       -0.98493  -0.00001   0.00000   0.00097   0.00097  -0.98397
   D21       -3.08221   0.00000   0.00000   0.00127   0.00127  -3.08095
   D22        1.09922  -0.00007   0.00000   0.00023   0.00023   1.09945
   D23       -3.06654   0.00004   0.00000   0.00182   0.00181  -3.06472
   D24        1.11937   0.00005   0.00000   0.00211   0.00211   1.12148
   D25       -0.98239  -0.00002   0.00000   0.00108   0.00108  -0.98131
   D26       -3.06721   0.00004   0.00000   0.00252   0.00251  -3.06469
   D27        1.11856   0.00006   0.00000   0.00296   0.00296   1.12152
   D28       -0.98320  -0.00002   0.00000   0.00193   0.00193  -0.98127
   D29       -0.98577   0.00000   0.00000   0.00184   0.00184  -0.98393
   D30       -3.08319   0.00002   0.00000   0.00229   0.00229  -3.08090
   D31        1.09823  -0.00006   0.00000   0.00126   0.00126   1.09949
   D32        1.10609   0.00003   0.00000   0.00153   0.00153   1.10762
   D33       -0.99133   0.00005   0.00000   0.00197   0.00197  -0.98935
   D34       -3.09309  -0.00003   0.00000   0.00094   0.00095  -3.09215
   D35        1.15075  -0.00002   0.00000  -0.00018  -0.00018   1.15057
   D36       -0.92953  -0.00002   0.00000  -0.00043  -0.00043  -0.92996
   D37       -3.04277  -0.00001   0.00000  -0.00005  -0.00005  -3.04282
   D38       -0.92883  -0.00005   0.00000  -0.00054  -0.00054  -0.92937
   D39       -3.00910  -0.00005   0.00000  -0.00079  -0.00079  -3.00989
   D40        1.16084  -0.00003   0.00000  -0.00041  -0.00041   1.16043
   D41       -3.04271   0.00009   0.00000   0.00083   0.00083  -3.04188
   D42        1.16020   0.00009   0.00000   0.00059   0.00059   1.16078
   D43       -0.95305   0.00010   0.00000   0.00096   0.00096  -0.95209
   D44       -1.79753   0.00001   0.00000   0.00037   0.00037  -1.79715
   D45        0.32001   0.00001   0.00000   0.00082   0.00082   0.32083
   D46        2.35658   0.00001   0.00000   0.00060   0.00060   2.35718
   D47        2.25849   0.00002   0.00000  -0.00048  -0.00048   2.25801
   D48        0.09935  -0.00001   0.00000  -0.00082  -0.00082   0.09853
   D49       -1.90120  -0.00001   0.00000  -0.00093  -0.00093  -1.90213
   D50        1.49285  -0.00003   0.00000   0.00083   0.00083   1.49368
   D51       -1.49696   0.00002   0.00000   0.00298   0.00298  -1.49398
   D52       -1.49617   0.00004   0.00000   0.00211   0.00211  -1.49406
   D53        3.06700  -0.00004   0.00000  -0.00227  -0.00227   3.06473
   D54       -1.10602  -0.00004   0.00000  -0.00156  -0.00156  -1.10758
   D55        0.98561   0.00000   0.00000  -0.00164  -0.00164   0.98397
   D56       -1.11886  -0.00005   0.00000  -0.00261  -0.00261  -1.12147
   D57        0.99130  -0.00005   0.00000  -0.00190  -0.00190   0.98941
   D58        3.08293  -0.00001   0.00000  -0.00198  -0.00198   3.08095
   D59        0.98299   0.00002   0.00000  -0.00168  -0.00168   0.98131
   D60        3.09316   0.00002   0.00000  -0.00097  -0.00097   3.09219
   D61       -1.09840   0.00006   0.00000  -0.00105  -0.00105  -1.09945
   D62        0.93039   0.00004   0.00000  -0.00101  -0.00101   0.92937
   D63       -1.15948   0.00003   0.00000  -0.00093  -0.00093  -1.16042
   D64        3.01057   0.00004   0.00000  -0.00067  -0.00067   3.00990
   D65       -1.14940   0.00002   0.00000  -0.00116  -0.00116  -1.15056
   D66        3.04392   0.00002   0.00000  -0.00108  -0.00108   3.04284
   D67        0.93078   0.00003   0.00000  -0.00082  -0.00081   0.92997
   D68        3.04412  -0.00009   0.00000  -0.00223  -0.00223   3.04189
   D69        0.95425  -0.00010   0.00000  -0.00215  -0.00215   0.95210
   D70       -1.15888  -0.00009   0.00000  -0.00189  -0.00189  -1.16077
   D71        3.04366  -0.00008   0.00000  -0.00173  -0.00173   3.04193
   D72        0.95392  -0.00010   0.00000  -0.00179  -0.00179   0.95213
   D73       -1.15935  -0.00007   0.00000  -0.00138  -0.00138  -1.16074
   D74       -1.14959   0.00002   0.00000  -0.00093  -0.00093  -1.15053
   D75        3.04385   0.00000   0.00000  -0.00099  -0.00099   3.04287
   D76        0.93058   0.00003   0.00000  -0.00058  -0.00058   0.93000
   D77        0.92986   0.00005   0.00000  -0.00045  -0.00045   0.92941
   D78       -1.15988   0.00004   0.00000  -0.00050  -0.00050  -1.16039
   D79        3.01003   0.00006   0.00000  -0.00010  -0.00010   3.00993
   D80        0.98594  -0.00000   0.00000  -0.00201  -0.00201   0.98394
   D81       -1.09813   0.00007   0.00000  -0.00135  -0.00135  -1.09948
   D82        3.08340  -0.00002   0.00000  -0.00250  -0.00250   3.08091
   D83       -1.10568  -0.00004   0.00000  -0.00192  -0.00192  -1.10760
   D84        3.09343   0.00003   0.00000  -0.00127  -0.00127   3.09216
   D85        0.99178  -0.00005   0.00000  -0.00242  -0.00242   0.98937
   D86        3.06753  -0.00005   0.00000  -0.00283  -0.00283   3.06470
   D87        0.98346   0.00002   0.00000  -0.00218  -0.00218   0.98128
   D88       -1.11819  -0.00007   0.00000  -0.00333  -0.00333  -1.12152
   D89        1.79861  -0.00001   0.00000  -0.00141  -0.00141   1.79720
   D90       -2.35545  -0.00001   0.00000  -0.00169  -0.00169  -2.35714
   D91       -0.31894  -0.00001   0.00000  -0.00184  -0.00184  -0.32078
   D92       -2.25785  -0.00001   0.00000   0.00002   0.00002  -2.25783
   D93       -0.09866   0.00001   0.00000   0.00030   0.00030  -0.09835
   D94        1.90197   0.00001   0.00000   0.00034   0.00034   1.90231
   D95        1.79815  -0.00002   0.00000  -0.00090  -0.00090   1.79725
   D96       -2.35594  -0.00002   0.00000  -0.00115  -0.00115  -2.35709
   D97       -0.31946  -0.00002   0.00000  -0.00128  -0.00128  -0.32074
   D98       -2.25695  -0.00003   0.00000  -0.00092  -0.00092  -2.25787
   D99       -0.09789   0.00001   0.00000  -0.00050  -0.00050  -0.09839
   D100       1.90267   0.00001   0.00000  -0.00040  -0.00040   1.90227
         Item               Value     Threshold  Converged?
 Maximum Force            0.000184     0.000015     NO 
 RMS     Force            0.000055     0.000010     NO 
 Maximum Displacement     0.008678     0.000060     NO 
 RMS     Displacement     0.002131     0.000040     NO 
 GradGradGradGradGradGradGradGradGradGradGradGradGradGradGradGradGradGrad

                    Distance matrix (angstroms):
                    1          2          3          4          5
     1  Cl   0.000000
     2  C    1.798428   0.000000
     3  C    2.799658   1.538347   0.000000
     4  C    4.143920   2.492695   1.539728   0.000000
     5  Cl   4.791986   3.192312   2.794293   1.795453   0.000000
     6  C    3.104844   2.508912   1.539728   2.539628   3.172922
     7  Cl   4.819342   4.150364   2.794290   3.172893   3.843087
     8  C    3.283272   2.536174   1.538348   2.508911   4.150367
     9  Cl   4.227611   3.283280   2.799661   3.104843   4.819330
    10  H    2.358267   1.098482   2.180674   2.687867   2.698261
    11  H    2.356314   1.099709   2.176701   2.782592   3.660455
    12  H    4.443702   2.707756   2.183518   1.097878   2.360209
    13  H    4.963458   3.457204   2.175477   1.099263   2.358255
    14  H    2.693790   2.790424   2.183519   3.496000   4.195444
    15  H    3.361162   2.714032   2.175482   2.807006   2.755715
    16  H    2.810206   2.729057   2.176701   3.467886   4.962481
    17  H    4.222772   3.490864   2.180674   2.806855   4.452907
    18  Cl   6.324706   7.417625   8.380719   9.502326  10.542438
    19  C    5.377715   6.128688   7.113824   8.072687   9.128830
    20  C    4.785233   5.408642   6.128791   7.113860   8.380760
    21  C    4.647144   4.739374   5.408659   6.128744   7.417659
    22  Cl   3.869615   3.738727   4.785187   5.377762   6.324726
    23  C    3.738846   4.739409   5.408642   6.633381   7.859289
    24  Cl   3.869834   4.647194   4.785238   6.047438   7.499857
    25  C    6.047513   6.633412   7.113901   8.072732   9.502373
    26  Cl   7.499872   7.859288   8.380821   9.128909  10.542488
    27  H    4.800022   5.575568   6.731923   7.677693   8.556194
    28  H    6.246861   6.788261   7.765908   8.577629   9.636777
    29  H    5.688540   5.630038   6.270859   6.815398   8.095108
    30  H    4.484421   4.396820   4.771291   5.471521   6.928089
    31  H    4.330578   5.584200   6.270830   7.578679   8.745536
    32  H    2.792037   3.890065   4.771229   6.010887   7.067462
    33  H    6.440239   7.266465   7.765956   8.846070  10.248326
    34  H    6.039958   6.487333   6.732073   7.657155   9.206547
                    6          7          8          9         10
     6  C    0.000000
     7  Cl   1.795453   0.000000
     8  C    2.492691   3.192324   0.000000
     9  Cl   4.143918   4.791986   1.798428   0.000000
    10  H    2.806854   4.452892   3.490865   4.222784   0.000000
    11  H    3.467887   4.962478   2.729062   2.810222   1.795112
    12  H    3.496001   4.195406   2.790403   2.693763   2.968919
    13  H    2.806979   2.755651   2.714041   3.361186   3.721752
    14  H    1.097878   2.360205   2.707733   4.443687   3.235776
    15  H    1.099262   2.358257   3.457204   4.963465   2.561362
    16  H    2.782591   3.660485   1.099710   2.356313   3.769236
    17  H    2.687858   2.698272   1.098482   2.358267   4.333902
    18  Cl   9.128803  10.542436   7.859232   7.499846   8.095078
    19  C    8.072660   9.502336   6.633364   6.047482   6.815325
    20  C    7.113866   8.380795   5.408652   4.785245   6.270827
    21  C    6.633404   7.859321   4.739424   3.738854   5.584139
    22  Cl   6.047404   7.499815   4.647135   3.869761   4.330433
    23  C    6.128735   7.417675   4.739350   4.647116   5.630095
    24  Cl   5.377829   6.324815   3.738755   3.869605   5.688616
    25  C    8.072769   9.128959   6.128785   5.377809   7.578701
    26  Cl   9.502428  10.542598   7.417762   6.324858   8.745502
    27  H    7.657018   9.206436   6.487213   6.039850   6.131352
    28  H    8.846023  10.248312   7.266446   6.440239   7.445346
    29  H    7.578711   8.745578   5.584231   4.330609   6.418992
    30  H    6.010947   7.067528   3.890114   2.792076   5.351567
    31  H    6.815375   8.095117   5.630007   5.688511   6.419094
    32  H    5.471467   6.928051   4.396748   4.484358   4.687272
    33  H    8.577683   9.636884   6.788332   6.246932   8.201968
    34  H    7.677856   8.556405   5.575735   4.800160   7.505338
                   11         12         13         14         15
    11  H    0.000000
    12  H    2.544248   0.000000
    13  H    3.766402   1.789135   0.000000
    14  H    3.754134   4.339702   3.790224   0.000000
    15  H    3.758314   3.790259   3.207944   1.789133   0.000000
    16  H    2.965145   3.754117   3.758319   2.544228   3.766391
    17  H    3.769241   3.235751   2.561372   2.968876   3.721754
    18  Cl   6.928045   9.206491  10.248282   8.556193   9.636729
    19  C    5.471459   7.657104   8.846045   7.677695   8.577566
    20  C    4.771232   6.731993   7.765936   6.732007   7.765918
    21  C    3.890021   5.575654   6.788336   6.487297   7.266436
    22  Cl   2.791967   4.800140   6.246927   6.039795   6.440108
    23  C    4.396813   6.487267   7.266423   5.575654   6.788306
    24  Cl   4.484379   6.039802   6.440146   4.800208   6.246981
    25  C    6.010886   7.677747   8.577673   7.657183   8.846098
    26  Cl   7.067432   8.556283   9.636885   9.206586  10.248352
    27  H    4.955798   7.293565   8.540578   7.293496   8.038944
    28  H    6.005947   8.039066   9.347591   8.540588   9.347517
    29  H    4.687200   6.131450   7.445459   7.505319   8.201943
    30  H    3.612124   4.955861   6.006027   5.910184   6.751613
    31  H    5.351587   7.505284   8.201920   6.131435   7.445410
    32  H    3.612161   5.910128   6.751556   4.955822   6.005956
    33  H    6.751572   8.540619   9.347597   8.039116   9.347611
    34  H    5.910131   7.293598   8.039116   7.293723   8.540718
                   16         17         18         19         20
    16  H    0.000000
    17  H    1.795112   0.000000
    18  Cl   7.067377   8.745463   0.000000
    19  C    6.010843   7.578665   1.795452   0.000000
    20  C    4.771244   6.270844   2.794291   1.539728   0.000000
    21  C    4.396829   5.630108   4.150363   2.508908   1.538347
    22  Cl   4.484332   5.688555   4.819316   3.104834   2.799654
    23  C    3.889996   5.584113   3.192302   2.492693   1.538348
    24  Cl   2.792009   4.330451   4.791998   4.143923   2.799661
    25  C    5.471555   6.815437   3.172923   2.539629   1.539728
    26  Cl   6.928172   8.095242   3.843108   3.172903   2.794291
    27  H    5.910026   7.505228   2.360214   1.097878   2.183516
    28  H    6.751555   8.201961   2.358255   1.099262   2.175479
    29  H    5.351616   6.419125   4.452899   2.806844   2.180673
    30  H    3.612206   4.687313   4.962480   3.467885   2.176704
    31  H    4.687168   6.418960   2.698259   2.687879   2.180672
    32  H    3.612047   5.351492   3.660416   2.782576   2.176705
    33  H    6.006015   7.445433   2.755710   2.807001   2.175482
    34  H    4.955970   6.131533   4.195443   3.496002   2.183521
                   21         22         23         24         25
    21  C    0.000000
    22  Cl   1.798427   0.000000
    23  C    2.536180   3.283273   0.000000
    24  Cl   3.283260   4.227572   1.798429   0.000000
    25  C    2.492692   4.143916   2.508913   3.104868   0.000000
    26  Cl   3.192318   4.791985   4.150366   4.819359   1.795454
    27  H    2.790390   2.693740   2.707755   4.443692   3.496000
    28  H    2.714040   3.361186   3.457205   4.963463   2.806980
    29  H    1.098482   2.358266   3.490868   4.222771   2.687863
    30  H    1.099709   2.356313   2.729072   2.810198   2.782592
    31  H    3.490868   4.222790   1.098481   2.358267   2.806833
    32  H    2.729087   2.810230   1.099710   2.356313   3.467892
    33  H    3.457205   4.963459   2.714035   3.361208   1.099262
    34  H    2.707742   4.443691   2.790424   2.693814   1.097877
                   26         27         28         29         30
    26  Cl   0.000000
    27  H    4.195412   0.000000
    28  H    2.755662   1.789133   0.000000
    29  H    2.698266   3.235728   2.561362   0.000000
    30  H    3.660469   3.754109   3.758318   1.795112   0.000000
    31  H    4.452882   2.968947   3.721759   4.333901   3.769242
    32  H    4.962484   2.544227   3.766394   3.769259   2.965189
    33  H    2.358257   3.790257   3.207935   3.721754   3.766398
    34  H    2.360201   4.339701   3.790229   2.968895   2.544237
                   31         32         33         34
    31  H    0.000000
    32  H    1.795111   0.000000
    33  H    2.561340   3.758311   0.000000
    34  H    3.235747   3.754149   1.789134   0.000000
 Framework group  C1[X(C10H16Cl8)]
 Deg. of freedom    96
                         Standard orientation:                         
 ---------------------------------------------------------------------
 Center     Atomic      Atomic             Coordinates (Angstroms)
 Number     Number       Type             X           Y           Z
 ---------------------------------------------------------------------
      1         17           0        1.228647   -1.894090   -0.938394
      2          6           0        2.193482   -1.199600    0.411095
      3          6           0        3.064391   -0.000006   -0.000005
      4          6           0        3.935214    0.396494    1.206320
      5         17           0        5.093091   -0.880797    1.707818
      6          6           0        3.935218   -0.396510   -1.206325
      7         17           0        5.093146    0.880754   -1.707773
      8          6           0        2.193500    1.199599   -0.411114
      9         17           0        1.228668    1.894112    0.938366
     10          1           0        2.820116   -2.014778    0.797717
     11          1           0        1.470644   -0.895062    1.181888
     12          1           0        3.308316    0.618096    2.079948
     13          1           0        4.534097    1.284817    0.960149
     14          1           0        3.308326   -0.618064   -2.079971
     15          1           0        4.534063   -1.284864   -0.960175
     16          1           0        1.470659    0.895066   -1.181907
     17          1           0        2.820146    2.014766   -0.797740
     18         17           0       -5.093054   -1.707798   -0.880912
     19          6           0       -3.935184   -1.206365    0.396410
     20          6           0       -3.064400    0.000015   -0.000004
     21          6           0       -2.193509    0.411049    1.199626
     22         17           0       -1.228631   -0.938464    1.894006
     23          6           0       -2.193496   -0.410968   -1.199644
     24         17           0       -1.228662    0.938587   -1.894008
     25          6           0       -3.935264    1.206343   -0.396404
     26         17           0       -5.093180    1.707671    0.880920
     27          1           0       -3.308253   -2.079988    0.617945
     28          1           0       -4.534068   -0.960284    1.284757
     29          1           0       -2.820161    0.797581    2.014834
     30          1           0       -1.470696    1.181893    0.895156
     31          1           0       -2.820137   -0.797509   -2.014855
     32          1           0       -1.470656   -1.181793   -0.895189
     33          1           0       -4.534122    0.960241   -1.284763
     34          1           0       -3.308402    2.080022   -0.617903
 ---------------------------------------------------------------------
 Rotational constants (GHZ):           0.3734761           0.0858976           0.0858974
   316 basis functions,   610 primitive gaussians,   334 cartesian basis functions
   106 alpha electrons      106 beta electrons
       nuclear repulsion energy      2645.7548936980 Hartrees.
 NAtoms=   34 NActive=   34 NUniq=   34 SFac= 1.00D+00 NAtFMM=   60 NAOKFM=F Big=F
 Nuclear repulsion after empirical dispersion term =     2645.7227713064 Hartrees.
   1 Symmetry operations used in ECPInt.
 ECPInt:  NShTT=   12246 NPrTT=   54318 LenC2=   10630 LenP2D=   30423.
 LDataN:  DoStor=T MaxTD1= 4 Len=   56
 Initial guess from the checkpoint file:  "1.chk"
 B after Tr=     0.000000   -0.000000    0.000000
         Rot=    0.983191   -0.182579   -0.000007   -0.000031 Ang= -21.04 deg.
     Accept linear search using points  2 and  3.
     Minimum is close to point  2 DX=  1.14D-05 DF=  0.00D+00 DXR=  1.14D-05 DFR=  0.00D+00 which will be used.
 SCF Done:  E(RwB97XD) =  -4070.73750929     a.u. after    2 cycles
            Convg  =    0.1246D-05                    12 Fock formations.
              S**2 =  0.0000                  -V/T =  2.0030
 DoSCS=F DFT=T ScalE2(SS,OS)=  1.000000  1.000000
 NROrb=    316 NOA=   106 NOB=   106 NVA=   210 NVB=   210
   1 Symmetry operations used in ECPInt.
 ECPInt:  NShTT=   12246 NPrTT=   54318 LenC2=   10630 LenP2D=   30423.
 LDataN:  DoStor=T MaxTD1= 5 Len=  102
 Symmetrizing basis deriv contribution to polar:
 IMax=3 JMax=2 DiffMx= 0.00D+00
 Calling FoFCou, ICntrl=  3107 FMM=F I1Cent=   0 AccDes= 0.00D+00.
 End of G2Drv F.D. properties file   721 does not exist.
 End of G2Drv F.D. properties file   722 does not exist.
 End of G2Drv F.D. properties file   788 does not exist.
          IDoAtm=1111111111111111111111111111111111
 CalDSu exits because no D1Ps are significant.
 End of Minotr F.D. properties file   721 does not exist.
 End of Minotr F.D. properties file   722 does not exist.
 End of Minotr F.D. properties file   788 does not exist.
   1 Symmetry operations used in ECPInt.
 ECPInt:  NShTT=   12246 NPrTT=   54318 LenC2=   10630 LenP2D=   30423.
 LDataN:  DoStor=T MaxTD1= 6 Len=  172
 Calling FoFJK, ICntrl=    100127 FMM=F ISym2X=0 I1Cent= 0 IOpClX= 0 NMat=1 NMatS=1 NMatT=0.
[...]
 0016117,0.00078698,0.00913046,-0.00927007,0.01111584,0.08993118,-0.146
 50426,0.10044277,0.01180061,-0.01076891,0.00010901,-0.00310296,-0.0014
 3919,0.00126052,0.00019715,0.00048185,-0.00019905,0.00074069,0.0000115
 3,-0.00008505,0.00131281,-0.00004906,-0.00147468,0.00000418,-0.0000036
 5,-0.00002108,-0.00071064,-0.00041223,-0.00023943,-0.10069173,0.153931
 56,0.00002141,0.00002516,0.00006558,0.00001898,0.00012100,-0.00005183,
 0.00000791,-0.00011611,0.00001896,-0.00000074,0.00000940,0.00000936,-0
 .00000338,0.00001595,0.00001346,-0.00000920,0.00003445,0.00000029,0.00
 002573,0.00001701,0.00003118,0.00007185,-0.00003860,0.00000196,-0.0002
 3877,-0.00001753,0.00001977,-0.00001508,-0.00001582,0.00002339,-0.0002
 3107,-0.00017302,-0.00004647,-0.00000750,-0.00001864,-0.00000798,0.000
 01143,0.00000246,-0.00000173,0.00000216,-0.00000740,-0.00000821,-0.000
 00947,0.00000513,-0.00000511,0.00006018,-0.00002108,-0.00000383,-0.000
 01259,0.00001582,0.00000790,0.00010361,-0.00011325,0.00004364,-0.00028
 837,-0.00105968,0.00015156,-0.01099683,0.01015614,-0.01013363,-0.09900
 183,0.09910164,-0.14118831,0.01886571,-0.01928878,0.00330420,0.0034998
 0,0.00206520,-0.00179886,0.00018392,0.00001892,0.00013117,-0.00119015,
 0.00142385,-0.00084117,0.00048716,-0.00063064,0.00060006,0.00009537,-0
 .00003336,-0.00001931,0.00020257,0.00027287,0.00043491,0.09525671,-0.1
 0211366,0.15592642,-0.00009571,-0.00014188,0.00000433,0.00010592,0.000
 14514,-0.00009708,0.00000105,0.00006319,0.00026140,-0.00014270,0.00003
 514,0.00005089,0.00011805,-0.00010031,-0.00009103,0.00001609,-0.000082
 72,-0.00016609,0.00004085,-0.00003985,0.00001069,-0.00031781,0.0009091
 4,-0.00044547,-0.00171805,-0.00108549,0.00047741,0.00001241,-0.0000601
 8,0.00001895,0.00008860,0.00007555,0.00012920,-0.00001967,0.00001169,0
 .00008501,-0.00003048,-0.00001231,-0.00000512,-0.00000219,0.00002643,0
 .00001062,0.00005252,-0.00002351,0.00004266,0.00008851,-0.00006528,-0.
 00002425,0.00012763,-0.00023106,0.00008123,-0.00050922,-0.00073134,0.0
 0002937,-0.00057641,-0.00059269,0.00234110,-0.01004703,-0.00894638,-0.
 00770542,-0.17342467,-0.10633345,-0.10198193,0.00549795,0.01640778,0.0
 1673506,0.00019546,0.00039651,-0.00058538,-0.00017650,0.00051880,-0.00
 029715,0.00011602,-0.00060585,-0.00095453,-0.00006215,0.00017929,0.000
 20786,-0.00010653,-0.00013836,0.00004249,0.00019190,0.00017979,0.00021
 068,-0.00757697,-0.01004890,-0.00618929,0.18844786,-0.00009887,0.00001
 622,0.00006422,0.00009915,0.00006782,-0.00003538,0.00005637,-0.0000524
 4,0.00012040,0.00000430,-0.00000721,-0.00002944,-0.00002077,0.00000300
 ,0.00002163,0.00002912,-0.00001002,-0.00002283,-0.00001996,-0.00000945
 ,-0.00000707,0.00016032,0.00018412,-0.00031179,-0.00138326,-0.00074332
 ,0.00042074,-0.00003275,-0.00000382,-0.00000818,0.00002423,-0.00001789
 ,-0.00009652,0.00000571,-0.00000418,-0.00000627,-0.00000235,-0.0000004
 1,0.00000649,0.00000897,-0.00000796,0.00000572,0.00000496,-0.00000574,
 0.00000754,0.00012916,-0.00001091,0.00009650,0.00001150,-0.00004648,0.
 00004359,-0.00064706,-0.00049872,-0.00003974,-0.00095887,-0.00032582,0
 .00276797,-0.01289306,-0.00998440,-0.00740277,-0.10489884,-0.13274374,
 -0.07384972,-0.00249864,-0.01120801,-0.01292427,-0.00077488,-0.0004709
 9,-0.00132645,0.00030128,0.00034213,0.00047014,0.00076229,0.00062660,-
 0.00035116,0.00014646,-0.00029298,-0.00008255,0.00024777,0.00017329,-0
 .00009201,-0.00007443,0.00002226,-0.00011544,0.01217738,0.01420147,0.0
 1021342,0.10999456,0.14039100,0.00009349,0.00005151,-0.00002587,-0.000
 04232,-0.00008481,0.00005848,-0.00001592,-0.00000425,-0.00012444,0.000
 03533,-0.00001723,-0.00000911,-0.00000289,0.00001968,0.00000753,-0.000
 03582,0.00001697,0.00003249,0.00001420,0.00002615,0.00001317,-0.000176
 81,-0.00056056,0.00010499,0.00015643,0.00061093,-0.00049095,-0.0000017
 3,0.00002108,-0.00000599,-0.00006531,-0.00005970,-0.00001092,0.0000131
 0,-0.00001819,-0.00000236,0.00001151,0.00000553,-0.00000294,-0.0000058
 7,0.00000001,-0.00000840,-0.00001288,0.00001009,-0.00001069,-0.0000755
 0,0.00005969,-0.00001788,-0.00009145,0.00017303,-0.00010354,0.00124608
 ,0.00141281,-0.00012941,0.00107315,0.00089333,-0.00318535,0.01468885,0
 .01257201,0.01183968,-0.10128591,-0.07661570,-0.12093681,-0.00215308,-
 0.01285280,-0.01188588,0.00042118,0.00057171,0.00102940,-0.00021048,0.
 00067286,-0.00189215,-0.00018727,0.00063575,0.00119190,-0.00035012,0.0
 0008633,0.00003157,-0.00000668,0.00010525,-0.00002761,0.00006179,-0.00
 010755,-0.00011436,-0.01009439,-0.00961942,-0.00598787,0.09693696,0.08
 245287,0.13092131,-0.00020218,0.00014476,-0.00002147,0.00000646,-0.000
 03648,0.00000624,0.00000412,-0.00004671,0.00000026,0.00001247,0.000016
 25,-0.00000927,-0.00002389,0.00001478,0.00002206,0.00000087,-0.0000023
 8,0.00001802,-0.00000927,0.00000942,-0.00000366,0.00001904,0.00004969,
 -0.00002081,-0.00002133,0.00002076,0.00001434,0.00000260,0.00001509,-0
 .00000685,0.00001241,0.00000173,-0.00003275,0.00000150,-0.00000102,-0.
 00000740,0.00000410,0.00000207,-0.00000119,0.00000418,-0.00001412,0.00
 000612,-0.00000740,0.00000148,-0.00000154,0.00012764,-0.00009146,-0.00
 001150,0.00000260,-0.00001259,0.00001693,-0.00282805,-0.00062378,-0.00
 140085,0.00114338,0.00012415,-0.00032954,0.01201849,0.01194939,-0.0102
 1320,-0.00318114,0.00220578,-0.00203310,0.00018568,-0.00042328,0.00011
 403,-0.14104574,-0.09242874,0.10046757,-0.00871196,-0.00990789,-0.0005
 9265,0.00115591,0.00010536,-0.00083584,0.00001743,-0.00021282,0.000145
 11,-0.00007718,-0.00018676,0.00008605,-0.00009144,-0.00000803,0.000267
 64,0.00066944,0.00061353,-0.00084349,-0.00014256,-0.00006145,0.0000785
 6,0.14886369,0.00028566,-0.00004164,-0.00000088,-0.00009978,-0.0000992
 8,0.00006236,-0.00000836,-0.00005864,-0.00002301,0.00001210,0.00002188
 ,0.00001585,-0.00001116,0.00001238,0.00001394,-0.00000982,0.00000624,0
 .00000550,0.00001022,0.00001499,0.00001307,0.00001828,0.00002210,-0.00
 000170,-0.00004687,0.00003690,0.00002022,0.00001693,0.00002339,-0.0000
 0255,-0.00001896,-0.00000599,0.00000818,0.00000029,-0.00000507,-0.0000
 0567,0.00000929,0.00000541,-0.00000640,0.00000074,-0.00000865,-0.00001
 466,-0.00000884,0.00000267,-0.00000201,0.00008123,-0.00010354,-0.00004
 360,0.00000685,0.00000790,0.00000254,-0.00131291,-0.00004903,-0.001474
 54,-0.00074068,0.00001156,-0.00008500,-0.00912987,-0.00927009,0.011116
 71,0.00310307,-0.00143926,0.00126031,-0.00019716,0.00048185,-0.0001990
 3,-0.08992332,-0.14650135,0.10044831,-0.01180062,-0.01076860,0.0001100
 0,-0.00105430,-0.00016116,0.00078707,-0.00010941,0.00043370,-0.0003628
 9,0.00012152,0.00000393,0.00005314,-0.00004377,-0.00010090,-0.00002440
 ,-0.00061350,-0.00031113,0.00055279,0.00002453,0.00012548,-0.00022253,
 0.10068370,0.15392835,0.00023880,-0.00001756,0.00001976,-0.00007186,-0
 .00003859,0.00000197,-0.00000791,-0.00011610,0.00001896,0.00000920,0.0
 0003445,0.00000029,-0.00002572,0.00001701,0.00003118,0.00000074,0.0000
 0940,0.00000936,0.00000339,0.00001595,0.00001346,-0.00001896,0.0001209
 8,-0.00005182,-0.00002142,0.00002516,0.00006559,0.00001259,0.00001582,
 0.00000790,-0.00006019,-0.00002108,-0.00000382,-0.00000216,-0.00000740
 ,-0.00000821,0.00000947,0.00000513,-0.00000511,0.00000749,-0.00001864,
 -0.00000798,-0.00001143,0.00000246,-0.00000173,0.00023105,-0.00017302,
 -0.00004649,0.00001508,-0.00001582,0.00002339,-0.00048699,-0.00063060,
 0.00060012,0.00119001,0.00142379,-0.00084118,0.01099528,0.01015510,-0.
 01013374,-0.00349967,0.00206508,-0.00179842,-0.00018392,0.00001895,0.0
 0013118,0.09900335,0.09910746,-0.14120414,-0.01886499,-0.01928770,0.00
 330577,0.00028828,-0.00105970,0.00015161,-0.00010361,-0.00011323,0.000
 04364,-0.00000864,-0.00008493,-0.00007064,0.00003295,-0.00011062,0.000
 10469,0.00084339,0.00055273,-0.00076254,-0.00014752,-0.00020807,0.0000
 3894,-0.09525772,-0.10212016,0.15594156,-0.00171953,0.00108625,-0.0004
 7715,-0.00031786,-0.00090910,0.00044551,0.00000102,-0.00006319,-0.0002
 6140,0.00001611,0.00008272,0.00016609,0.00004085,0.00003985,-0.0000106
 9,-0.00014271,-0.00003513,-0.00005088,0.00011807,0.00010031,0.00009101
 ,0.00010592,-0.00014515,0.00009708,-0.00009570,0.00014190,-0.00000432,
 0.00012764,0.00023104,-0.00008123,0.00008856,0.00006529,0.00002424,-0.
 00000220,-0.00002643,-0.00001062,0.00005251,0.00002350,-0.00004267,-0.
 00001968,-0.00001169,-0.00008501,-0.00003048,0.00001231,0.00000512,0.0
 0008848,-0.00007549,-0.00012916,0.00001241,0.00006019,-0.00001896,-0.0
 0006214,-0.00017928,-0.00020784,0.00011611,0.00060590,0.00095459,-0.01
 004720,0.00894728,0.00770696,0.00019549,-0.00039648,0.00058538,-0.0001
 7678,-0.00051856,0.00029688,-0.17340530,0.10632763,0.10198422,0.005496
 31,-0.01640876,-0.01673630,-0.00057665,0.00059277,-0.00234124,-0.00050
 930,0.00073144,-0.00002934,-0.00042683,-0.00029568,-0.00078178,0.00025
 086,-0.00008963,-0.00008003,-0.00014257,-0.00002454,0.00014754,0.00002
 376,0.00011328,-0.00015251,-0.00757574,0.01004846,0.00618954,0.1884312
 3,0.00138423,-0.00074382,0.00042056,-0.00016035,0.00018415,-0.00031183
 ,-0.00005637,-0.00005244,0.00012042,-0.00002912,-0.00001003,-0.0000228
 4,0.00001996,-0.00000946,-0.00000707,-0.00000430,-0.00000721,-0.000029
 44,0.00002077,0.00000299,0.00002162,-0.00009916,0.00006783,-0.00003538
 ,0.00009888,0.00001621,0.00006421,-0.00001150,-0.00004648,0.00004359,-
 0.00012919,-0.00001091,0.00009653,-0.00000898,-0.00000796,0.00000572,-
 0.00000497,-0.00000574,0.00000755,-0.00000571,-0.00000418,-0.00000627,
 0.00000235,-0.00000041,0.00000649,-0.00002425,-0.00001787,-0.00009651,
 0.00003275,-0.00000383,-0.00000818,-0.00014647,-0.00029297,-0.00008254
 ,-0.00076230,0.00062661,-0.00035111,0.01289239,-0.00998465,-0.00740382
 ,0.00077474,-0.00047098,-0.00132650,-0.00030105,0.00034203,0.00047028,
 0.10489323,-0.13274679,-0.07385886,0.00249761,-0.01120802,-0.01292436,
 0.00095908,-0.00032584,0.00276791,0.00064705,-0.00049873,-0.00003980,0
 .00005403,0.00047075,0.00007602,-0.00014239,-0.00006839,0.00009235,0.0
 0006145,0.00012548,-0.00020808,-0.00011327,-0.00011123,0.00005011,-0.0
 1217625,0.01420148,0.01021425,-0.10998956,0.14039485,-0.00015606,0.000
 61076,-0.00049139,0.00017688,-0.00056056,0.00010494,0.00001591,-0.0000
 0425,-0.00012443,0.00003583,0.00001697,0.00003248,-0.00001420,0.000026
 15,0.00001317,-0.00003532,-0.00001722,-0.00000911,0.00000288,0.0000196
 7,0.00000753,0.00004232,-0.00008480,0.00005848,-0.00009348,0.00005151,
 -0.00002586,0.00009146,0.00017302,-0.00010356,0.00007554,0.00005970,-0
 .00001790,0.00000587,0.00000001,-0.00000840,0.00001288,0.00001009,-0.0
 0001069,-0.00001310,-0.00001818,-0.00000235,-0.00001151,0.00000553,-0.
 00000294,0.00006528,-0.00005968,-0.00001090,0.00000173,0.00002108,-0.0
 0000599,0.00035013,0.00008634,0.00003156,0.00018737,0.00063571,0.00119
 182,-0.01468696,0.01257153,0.01184026,-0.00042111,0.00057175,0.0010293
 8,0.00021013,0.00067299,-0.00189221,0.10128810,-0.07662482,-0.12095214
 ,0.00215175,-0.01285172,-0.01188484,-0.00107334,0.00089329,-0.00318509
 ,-0.00124603,0.00141277,-0.00012931,-0.00027714,-0.00036557,-0.0001829
 4,0.00014082,0.00008062,0.00006150,-0.00007855,-0.00022253,0.00003894,
 0.00015250,0.00005010,-0.00017541,0.01009443,-0.00962039,-0.00598914,-
 0.09693984,0.08246241,0.13093648,0.00001335,0.00000540,-0.00002813,-0.
 00000258,-0.00004335,0.00003377,-0.00000045,0.00002719,-0.00002608,0.0
 0001198,-0.00000732,-0.00000305,-0.00000815,0.00000229,-0.00000052,0.0
 0000529,-0.00000108,0.00001823,-0.00001278,-0.00000371,-0.00001408,0.0
 0002755,-0.00006443,0.00004949,-0.00004761,0.00001931,-0.00003879,0.00
 000410,0.00000947,-0.00000929,0.00005251,0.00001288,0.00000496,0.00000
 537,0.00000621,-0.00000297,-0.00000168,0.00000047,0.00000045,-0.000001
 29,0.00000133,0.00000192,-0.00000168,-0.00000004,-0.00000196,-0.000030
 48,0.00001151,0.00000235,-0.00000740,0.00001143,-0.00000884,0.00007595
 ,-0.00080412,-0.00096640,-0.00039799,-0.00040924,-0.00030171,-0.009488
 28,-0.00792493,0.01149192,-0.00059587,0.00265748,0.00072494,-0.0008031
 7,0.00011550,0.00108724,0.00026907,-0.00079892,0.00096937,-0.00019415,
 -0.00000281,-0.00036718,-0.13305457,-0.08308930,0.10888237,0.00290721,
 0.01720766,-0.02133611,-0.00007395,-0.00009615,0.00010185,-0.00006793,
 0.00008453,0.00006474,-0.00009146,0.00004377,-0.00003293,0.00025086,0.
 00014239,-0.00014084,-0.00026002,0.00071061,-0.00020251,0.00019188,0.0
 0007442,-0.00006182,0.14776916,-0.00000035,-0.00001200,0.00001199,-0.0
 0000136,0.00002928,-0.00002402,-0.00000324,-0.00001377,0.00000766,-0.0
 0000929,0.00000356,0.00000498,0.00000771,-0.00000162,-0.00000346,-0.00
 000370,0.00000426,-0.00000481,0.00000811,0.00000113,0.00000607,-0.0000
 0181,0.00001105,0.00000125,0.00001866,0.00000605,0.00000808,-0.0000011
 9,-0.00000511,0.00000640,-0.00004267,-0.00001069,-0.00000754,-0.000003
 27,-0.00000487,0.00000011,0.00000196,-0.00000136,0.00000047,-0.0000009
 0,0.00000176,-0.00000024,0.00000045,0.00000086,-0.00000047,-0.00000512
 ,-0.00000294,-0.00000649,0.00000154,-0.00000173,0.00000201,-0.00083130
 ,-0.00161347,-0.00027151,0.00043030,0.00124620,-0.00036549,0.01251963,
 0.01130952,-0.01487301,0.00069505,-0.00308989,-0.00095705,0.00121888,-
 0.00014975,-0.00143588,0.00014767,0.00148277,-0.00025563,-0.00014995,-
 0.00005347,-0.00028242,-0.08305816,-0.11793778,0.09350833,0.00075842,-
 0.00788368,0.01089495,0.00007789,-0.00002187,0.00025114,-0.00008453,-0
 .00015211,-0.00007117,0.00000802,-0.00010090,-0.00011062,0.00008964,-0
 .00006839,0.00008061,0.00022515,-0.00041223,0.00027286,-0.00017980,0.0
 0002226,-0.00010753,0.07845520,0.12472671,-0.00002297,-0.00001329,0.00
 001852,0.00000894,0.00003834,-0.00002883,-0.00000118,-0.00001362,0.000
 00966,-0.00000116,0.00000114,-0.00000569,-0.00000283,0.00000036,0.0000
 0383,0.00000423,0.00000596,0.00000340,-0.00000205,-0.00000197,0.000000
 34,0.00000098,0.00000753,-0.00000059,0.00000037,0.00000507,0.00000700,
 -0.00000207,-0.00000513,0.00000541,-0.00002351,-0.00001009,-0.00000574
 ,-0.00000085,-0.00000135,-0.00000187,-0.00000004,-0.00000063,0.0000008
 6,0.00000116,-0.00000084,0.00000172,-0.00000047,0.00000063,-0.00000136
 ,0.00001231,-0.00000553,-0.00000041,0.00000148,-0.00000246,0.00000267,
 -0.00063281,0.00058291,0.00130345,0.00120258,0.00144728,-0.00100782,0.
 01065616,0.00778770,-0.01130404,0.00065410,-0.00276918,-0.00041311,0.0
 0065581,0.00004489,-0.00049402,-0.00083595,0.00049427,0.00098622,0.000
 25876,-0.00010387,-0.00009156,0.10875181,0.09060136,-0.17327123,-0.000
 40886,0.01063751,-0.01147407,0.00003601,-0.00000056,0.00017093,-0.0000
 6474,-0.00007117,-0.00000901,-0.00026762,-0.00002440,0.00010471,0.0000
 8002,0.00009234,0.00006151,0.00025966,-0.00023949,0.00043491,-0.000210
 71,-0.00011544,-0.00011434,-0.11201255,-0.10029551,0.18188156,0.000007
 25,-0.00000905,-0.00000631,0.00000472,0.00000050,-0.00000488,0.0000023
 7,0.00000911,0.00001435,-0.00001578,0.00000203,0.00000916,0.00001643,-
 0.00000929,-0.00001134,-0.00000724,-0.00000926,-0.00001910,0.00001106,
 -0.00000040,0.00000602,-0.00003302,0.00003906,-0.00002596,0.00004221,-
 0.00003192,-0.00000975,0.00000150,-0.00000216,-0.00000029,-0.00000219,
 0.00000587,0.00000897,-0.00000249,-0.00000037,0.00000670,-0.00000129,-
 0.00000116,-0.00000090,-0.00000249,0.00000486,-0.00000025,0.00000537,-
 0.00000085,0.00000327,-0.00001968,0.00001310,-0.00000571,0.00000418,-0
 .00000749,0.00000074,0.00010387,-0.00034627,-0.00047975,-0.00346237,0.
 00229635,0.00190470,0.01231316,0.01206838,0.00936901,0.00096063,0.0008
 5646,0.00048812,0.00012359,-0.00020101,-0.00027549,0.00108990,-0.00011
 176,0.00023884,-0.00352465,0.00189756,-0.00166996,-0.13988208,-0.11765
 374,-0.07138920,-0.01242456,-0.00209006,-0.01142860,0.00074381,0.00081
 581,0.00065996,-0.00007396,-0.00007787,-0.00003599,-0.00007718,-0.0001
 2152,0.00000864,-0.00042675,-0.00005401,0.00027716,-0.00007411,-0.0000
 0418,-0.00009536,-0.00010653,-0.00024776,0.00000668,-0.00644280,-0.010
 28763,-0.00809402,0.15114912,-0.00003278,0.00000036,0.00003628,0.00002
 068,0.00004151,-0.00002246,0.00000249,-0.00002951,0.00002061,0.0000073
 7,0.00000501,-0.00001355,-0.00001472,0.00000262,0.00001419,0.00001666,
 0.00000845,0.00000444,-0.00001152,-0.00000403,-0.00000224,-0.00000957,
 0.00004962,-0.00005905,0.00001032,-0.00002417,0.00003172,-0.00000740,-
 0.00000821,0.00000567,-0.00001062,-0.00000840,-0.00000572,0.00000025,0
 .00000089,-0.00000067,-0.00000192,0.00000172,0.00000024,0.00000670,-0.
 00000800,0.00000067,-0.00000297,-0.00000187,-0.00000011,0.00008502,-0.
 00000236,0.00000626,-0.00000612,-0.00000798,0.00001467,0.00027938,0.00
 005533,-0.00022559,0.00317866,-0.00196276,-0.00131165,-0.01128459,-0.0
 1131059,-0.00783680,-0.00056771,0.00023052,0.00095182,0.00005369,0.000
 10086,0.00025561,-0.00116908,-0.00087805,-0.00125157,0.00044339,0.0007
 4195,0.00076317,-0.11558496,-0.18082633,-0.09257920,0.01774262,0.00674
 303,0.01485287,-0.00081587,-0.00060610,-0.00056711,0.00009615,-0.00002
 188,-0.00000057,0.00018675,0.00000393,-0.00008495,0.00029567,0.0004707
 4,-0.00036559,0.00005067,-0.00000365,-0.00003336,0.00013837,0.00017329
 ,0.00010524,-0.00635367,-0.00730776,-0.00807273,0.11325867,0.19438179,
 -0.00000167,0.00001629,-0.00001412,-0.00000767,-0.00002738,0.00002448,
 -0.00000538,0.00001274,-0.00003894,0.00002179,-0.00000865,-0.00000784,
 -0.00001707,0.00001080,0.00000767,0.00000649,0.00000982,0.00002894,-0.
 00001431,-0.00000097,-0.00001262,0.00005090,-0.00009955,0.00008055,-0.
 00005550,0.00004803,-0.00004182,0.00000102,0.00000740,-0.00000507,0.00
 002643,-0.00000001,-0.00000797,0.00000486,0.00000192,-0.00000800,0.000
 00133,0.00000084,0.00000176,0.00000037,-0.00000192,0.00000089,-0.00000
 621,0.00000135,-0.00000487,-0.00001168,0.00001818,-0.00000418,-0.00001
 412,0.00001864,-0.00000865,-0.00015726,0.00056079,0.00071553,0.0033161
 3,-0.00141719,-0.00147920,-0.00871099,-0.01325737,-0.00792311,-0.00090
 951,-0.00090538,-0.00043139,-0.00026754,0.00051009,0.00062170,-0.00027
 078,0.00014036,-0.00034218,-0.00215329,0.00187847,-0.00062327,-0.07005
 019,-0.09374616,-0.10948611,-0.01336607,-0.00285657,-0.00987803,-0.000
 66005,-0.00056717,-0.00036276,-0.00010182,0.00025114,0.00017094,-0.000
 08604,0.00005315,-0.00007063,0.00078180,0.00007601,-0.00018303,0.00002
 583,-0.00002108,-0.00001930,-0.00004249,-0.00009198,-0.00002761,0.0121
 2216,0.01401594,0.01322697,0.08055053,0.09536944,0.11610126\\0.0000004
 8,-0.00000152,-0.00000330,-0.00000034,0.00000173,-0.00000211,-0.000000
 41,0.00000006,-0.00000022,0.00000034,0.00000129,0.00000111,0.00000016,
 0.00000273,-0.00000013,0.00000022,-0.00000135,-0.00000094,0.00000027,-
 0.00000272,0.00000012,-0.00000036,-0.00000178,0.00000215,0.00000024,0.
 00000131,0.00000321,-0.00000021,0.00000156,-0.00000194,0.00000083,0.00
 000132,0.00000024,-0.00000021,0.00000268,0.00000209,0.00000005,0.00000
 072,0.00000178,-0.00000025,-0.00000267,-0.00000217,0.00000013,-0.00000
 067,-0.00000182,0.00000052,-0.00000109,0.,-0.00000028,-0.00000165,0.00
 000199,-0.00000019,-0.00000010,-0.00000276,-0.00000030,0.00000106,-0.0
 0000129,0.00000039,-0.00000009,-0.00000002,0.00000022,0.00000205,0.000
 00173,-0.00000041,0.00000311,-0.00000145,0.00000045,-0.00000215,-0.000
 00185,-0.00000023,-0.00000338,0.00000131,-0.00000022,-0.00000097,0.000
 00136,-0.00000023,0.00000010,0.00000273,0.00000028,0.00000215,-0.00000
 270,-0.00000009,0.00000179,-0.00000067,0.00000026,0.00000196,0.0000016
 0,-0.00000049,0.00000010,0.00000124,0.00000029,-0.00000192,-0.00000152
 ,-0.00000105,0.00000034,-0.00000106,-0.00000012,-0.00000179,0.00000066
 ,0.00000024,-0.00000218,0.00000264\\\@


 CLIMB THE MOUNTAINS AND GET THEIR GOOD TIDINGS.
 NATURE'S PEACE WILL FLOW INTO YOU AS SUNSHINE FLOWS INTO TREES.
 THE WINDS WILL BLOW THEIR OWN FRESHNESS INTO YOU, 
 AND CARES WILL DROP OFF LIKE AUTUMN LEAVES.

                                         -- JOHN MUIR
 File lengths (MBytes):  RWF=    534 Int=      0 D2E=      0 Chk=      9 Scr=      1
 Normal termination of Gaussian 16 at Thu Nov 16 00:33:53 2023.
real 58694.34
user 229822.33
sys 170.24
