You are running Q-Chem version: 5.3.2

#
# job setting
#
local host:  c203.cluster
current dir: /scratch/user/peterchao1/peterchao1/6959662_1675470067000000755422540
input file:  qchem_test.inp
output file: 
nprocs     : 0
nthreads   : 8
#
# qchem installation setting
#
QC:          /sw/restricted/qchem/sw/5.3.2
QCAUX:       /sw/restricted/qchem/sw/5.3.2/qcaux
QCPROG:      /sw/restricted/qchem/sw/5.3.2/exe/qcprog.exe_s
QCPROG_S:    /sw/restricted/qchem/sw/5.3.2/exe/qcprog.exe_s
PARALLEL:    -DSERIAL
QCMPI:       seq
#
# qchem directory setting
#
qcrun:       qchem274297
QCSCRATCH:   /scratch/user/peterchao1/peterchao1/6959662_1675470067000000755422540
QCLOCALSCR:  
QCTMPDIR:    /scratch/user/peterchao1/peterchao1/6959662_1675470067000000755422540
QCFILEPREF:  /scratch/user/peterchao1/peterchao1/6959662_1675470067000000755422540/qchem274297
QCSAVEDIR:   
workdirs:    /scratch/user/peterchao1/peterchao1/6959662_1675470067000000755422540/qchem274297
workdir0:    /scratch/user/peterchao1/peterchao1/6959662_1675470067000000755422540/qchem274297
partmpdirs =  
#
# parallel setting
#
QCRSH:           ssh
QCMPI:           seq
QCMPIRUN:        
QCMACHINEFILE:   /scratch/user/peterchao1/peterchao1/6959662_1675470067000000755422540/qchem274297/hostfile

#
# env setting
#
exported envs:   QC QCAUX QCSCRATCH QCRUNNAME QCFILEPREF QCPROG QCPROG_S GUIFILE

Running Job 1 of 1 qchem_test.inp
qchem qchem_test.inp_274297.0 /scratch/user/peterchao1/peterchao1/6959662_1675470067000000755422540/qchem274297/ 0
/sw/restricted/qchem/sw/5.3.2/exe/qcprog.exe_s qchem_test.inp_274297.0 /scratch/user/peterchao1/peterchao1/6959662_1675470067000000755422540/qchem274297/
                  Welcome to Q-Chem
     A Quantum Leap Into The Future Of Chemistry


 Q-Chem 5.3, Q-Chem, Inc., Pleasanton, CA (2020)

 License issued to: MRG Daniel Tabor and Mike Hall, Texas A&M University

 Yihan Shao,  Zhengting Gan,  E. Epifanovsky,  A. T. B. Gilbert,  M. Wormit,  
 J. Kussmann,  A. W. Lange,  A. Behn,  Jia Deng,  Xintian Feng,  D. Ghosh,  
 M. Goldey,  P. R. Horn,  L. D. Jacobson,  I. Kaliman,  T. Kus,  A. Landau,  
 Jie Liu,  E. I. Proynov,  R. M. Richard,  R. P. Steele,  E. J. Sundstrom,  
 H. L. Woodcock III,  P. M. Zimmerman,  D. Zuev,  B. Alam,  B. Albrecht,  
 A. Aldossary,  E. Alguire,  S. A. Baeppler,  D. Barton,  Z. Benda,  
 Y. A. Bernard,  E. J. Berquist,  K. B. Bravaya,  H. Burton,  K. Carter-Fenk,  
 D. Casanova,  Chun-Min Chang,  Yunqing Chen,  A. Chien,  K. D. Closser,  
 M. P. Coons,  S. Coriani,  S. Dasgupta,  A. L. Dempwolff,  M. Diedenhofen,  
 Hainam Do,  R. G. Edgar,  Po-Tung Fang,  S. Faraji,  S. Fatehi,  
 Qingguo Feng,  J. Fosso-Tande,  J. Gayvert,  Qinghui Ge,  A. Ghysels,  
 G. Gidofalvi,  J. Gomes,  J. Gonthier,  S. Gulania,  A. Gunina,  D. Hait,  
 M. W. D. Hanson-Heine,  S. Hammes-Schiffer,  P. H. P. Harbach,  
 A. W. Hauser,  M. F. Herbst,  J. E. Herr,  E. G. Hohenstein,  Z. C. Holden,  
 S. Houck,  Kerwin Hui,  B. C. Huynh,  M. Ivanov,  T.-C. Jagau,  Hyunjun Ji,  
 B. Kaduk,  K. Khistyaev,  Jaehoon Kim,  P. Klunzinger,  K. Koh,  
 D. Kosenkov,  L. Koulias,  T. Kowalczyk,  C. M. Krauter,  A. Kunitsa,  
 Ka Un Lao,  A. Laurent,  K. V. Lawler,  Joonho Lee,  D. Lefrancois,  
 S. Lehtola,  D. S. Levine,  Yi-Pei Li,  You-Sheng Lin,  Fenglai Liu,  
 Kuan-Yu Liu,  E. Livshits,  M. Loipersberger,  A. Luenser,  A. Manjanath,  
 P. Manohar,  E. Mansoor,  S. F. Manzer,  Shan-Ping Mao,  Yuezhi Mao,  
 N. Mardirossian,  A. V. Marenich,  T. Markovich,  L. A. Martinez-Martinez,  
 S. A. Maurer,  N. J. Mayhall,  S. C. McKenzie,  J.-M. Mewes,  P. Morgante,  
 A. F. Morrison,  J. W. Mullinax,  K. Nanda,  T. S. Nguyen-Beck,  
 R. Olivares-Amaya,  K. J. Oosterbaan,  J. A. Parkhill,  S. K. Paul,  
 F. Pavosevic,  Zheng Pei,  T. M. Perrine,  F. Plasser,  P. Pokhilko,  
 S. Prager,  A. Prociuk,  E. Ramos,  B. Rana,  D. R. Rehn,  F. Rob,  
 E. Rossomme,  M. Scheurer,  M. Schneider,  N. Sergueev,  S. M. Sharada,  
 S. Sharma,  W. Skomorowski,  D. W. Small,  T. Stauch,  C. J. Stein,  
 T. Stein,  Yu-Chuan Su,  S. P. Veccham,  Zhen Tao,  A. J. W. Thom,  
 A. Tkatchenko,  T. Tsuchimochi,  N. M. Tubman,  L. Vogt,  M. L. Vidal,  
 O. Vydrov,  M. A. Watson,  J. Wenzel,  M. de Wergifosse,  T. A. Wesolowski,  
 A. White,  J. Witte,  A. Yamada,  Jun Yang,  K. Yao,  S. Yeganeh,  
 S. R. Yost,  Zhi-Qiang You,  A. Zech,  Igor Ying Zhang,  Xing Zhang,  
 Yan Zhao,  Ying Zhu,  B. R. Brooks,  G. K. L. Chan,  C. J. Cramer,  
 M. S. Gordon,  W. J. Hehre,  A. Klamt,  M. W. Schmidt,  C. D. Sherrill,  
 D. G. Truhlar,  A. Aspuru-Guzik,  R. Baer,  A. T. Bell,  N. A. Besley,  
 Jeng-Da Chai,  A. E. DePrince, III,  R. A. DiStasio Jr.,  A. Dreuw,  
 B. D. Dunietz,  T. R. Furlani,  Chao-Ping Hsu,  Yousung Jung,  Jing Kong,  
 D. S. Lambrecht,  WanZhen Liang,  C. Ochsenfeld,  V. A. Rassolov,  
 L. V. Slipchenko,  J. E. Subotnik,  T. Van Voorhis,  J. M. Herbert,  
 A. I. Krylov,  P. M. W. Gill,  M. Head-Gordon

 Contributors to earlier versions of Q-Chem not listed above: 
 R. D. Adamson,  B. Austin,  J. Baker,  G. J. O. Beran,  K. Brandhorst,  
 S. T. Brown,  E. F. C. Byrd,  A. K. Chakraborty,  C.-L. Cheng,  
 Siu Hung Chien,  D. M. Chipman,  D. L. Crittenden,  H. Dachsel,  
 R. J. Doerksen,  A. D. Dutoi,  L. Fusti-Molnar,  W. A. Goddard III,  
 A. Golubeva-Zadorozhnaya,  S. R. Gwaltney,  G. Hawkins,  A. Heyden,  
 S. Hirata,  G. Kedziora,  F. J. Keil,  C. Kelley,  Jihan Kim,  R. A. King,  
 R. Z. Khaliullin,  P. P. Korambath,  W. Kurlancheek,  A. M. Lee,  M. S. Lee,  
 S. V. Levchenko,  Ching Yeh Lin,  D. Liotard,  R. C. Lochan,  I. Lotan,  
 P. E. Maslen,  N. Nair,  D. P. O'Neill,  D. Neuhauser,  E. Neuscamman,  
 C. M. Oana,  R. Olson,  B. Peters,  R. Peverati,  P. A. Pieniazek,  
 Y. M. Rhee,  J. Ritchie,  M. A. Rohrdanz,  E. Rosta,  N. J. Russ,  
 H. F. Schaefer III,  N. E. Schultz,  N. Shenvi,  A. C. Simmonett,  A. Sodt,  
 D. Stuck,  K. S. Thanthiriwatte,  V. Vanovschi,  Tao Wang,  A. Warshel,  
 C. F. Williams,  Q. Wu,  X. Xu,  W. Zhang

 Please cite Q-Chem as follows:
 Y. Shao et al., Mol. Phys. 113, 184-215 (2015)
 DOI: 10.1080/00268976.2014.952696

 Q-Chem 5.3.2 for Intel X86 EM64T Linux

 Parts of Q-Chem use Armadillo 9.800.1 (Horizon Scraper).
 http://arma.sourceforge.net/

 Q-Chem begins on Fri Feb  3 18:21:17 2023  

Host: 
0

     Scratch files written to /scratch/user/peterchao1/peterchao1/6959662_1675470067000000755422540/qchem274297//
 Dec820 |scratch|qcdevops|jenkins|workspace|build_RNUM -1
Processing $rem in /sw/restricted/qchem/sw/5.3.2/config/preferences:
Processing $rem in /home/peterchao1/.qchemrc:

 Q-Chem warning in module libgen/rem_setup.C, line 2945:

 Neither GIA nor STOLL is specified by user. Use STOLL as the default


Checking the input file for inconsistencies... 	...done.

--------------------------------------------------------------
User input:
--------------------------------------------------------------
$molecule
0 1
--
0 1
C        3.964353    0.569087    0.109553
C        2.563962   -0.069749    0.052293
C        2.620321   -1.378415   -0.754734
C        2.010122   -0.314450    1.455159
C        1.676793    0.897833   -0.709178
O        0.735845    1.498949   -0.261430
H        4.671825   -0.125934    0.594869
H        3.953944    1.507647    0.691186
H        4.353182    0.792309   -0.900707
H        3.301027   -2.093184   -0.259781
H        3.001934   -1.206099   -1.777895
H        1.620932   -1.839914   -0.822860
H        1.930205    0.628899    2.021297
H        2.674960   -0.998473    2.011574
H        1.007059   -0.767790    1.397941
H        1.974351    1.045721   -1.782777
--
0 1
C       -2.010088    0.314505    1.455137
C       -2.563959    0.069751    0.052293
C       -3.964362   -0.569054    0.109611
C       -2.620311    1.378381   -0.754793
C       -1.676826   -0.897881   -0.709155
O       -0.735851   -1.498965   -0.261417
H       -1.930180   -0.628821    2.021317
H       -2.674902    0.998566    2.011534
H       -1.007018    0.767823    1.397882
H       -4.353218   -0.792311   -0.900632
H       -4.671809    0.126000    0.594914
H       -3.953960   -1.507591    0.691281
H       -1.620920    1.839870   -0.822953
H       -3.301005    2.093179   -0.259865
H       -3.001939    1.206022   -1.777942
H       -1.974440   -1.045843   -1.782729
$end

$rem
JOBTYPE           eda
EDA2              2
METHOD            wB97x-D
BASIS             def2-SV(P)
SCF_CONVERGENCE   8
THRESH            14
SYMMETRY          false
DISP_FREE_X       wB97X-D
DISP_FREE_C       none
EDA_BSSE          true
$end
--------------------------------------------------------------
 ----------------------------------------------------------------
             Standard Nuclear Orientation (Angstroms)
    I     Atom           X                Y                Z
 ----------------------------------------------------------------
    1      C       3.9643528826    -0.5690871405    -0.1095530297
    2      C       2.5639618977     0.0697488950    -0.0522930548
    3      C       2.6203209261     1.3784149185     0.7547339050
    4      C       2.0101219090     0.3144498650    -1.4551590645
    5      C       1.6767928715    -0.8978330601     0.7091779717
    6      O       0.7358448587    -1.4989490513     0.2614299866
    7      H       4.6718249012     0.1259338275    -0.5948690484
    8      H       3.9539438622    -1.5076471582    -0.6911860007
    9      H       4.3531818733    -0.7923091187     0.9007069787
   10      H       3.3010269452     2.0931838869     0.2597808856
   11      H       3.0019339180     1.2060989410     1.7778949118
   12      H       1.6209319370     1.8399139447     0.8228598869
   13      H       1.9302048885    -0.6288991506    -2.0212970356
   14      H       2.6749599276     0.9984728318    -2.0115740830
   15      H       1.0070589197     0.7677898909    -1.3979410823
   16      H       1.9743508638    -1.0457210341     1.7827769774
   17      C      -2.0100881061    -0.3145050382    -1.4551370605
   18      C      -2.5639591056    -0.0697509815    -0.0522930702
   19      C      -3.9643620900     0.5690540504    -0.1096110953
   20      C      -2.6203111403    -1.3783809553     0.7547929700
   21      C      -1.6768260853     0.8978810206     0.7091549033
   22      O      -0.7358510691     1.4989649841     0.2614168884
   23      H      -1.9301800812     0.6288209424    -2.0213170894
   24      H      -2.6749021205    -0.9985660394    -2.0115340420
   25      H      -1.0070181173    -0.7678230606    -1.3978820427
   26      H      -4.3532180886     0.7923110910     0.9006318963
   27      H      -4.6718091049    -0.1259999475    -0.5949140766
   28      H      -3.9539600652     1.5075910322    -0.6912811243
   29      H      -1.6209201516    -1.8398699772     0.8229529881
   30      H      -3.3010051556    -2.0931789542     0.2598649894
   31      H      -3.0019391401    -1.2060219145     1.7779419632
   32      H      -1.9744400858     1.0458430609     1.7827288976
 ----------------------------------------------------------------
 Molecular Point Group                 C1    NOp =  1
 Largest Abelian Subgroup              C1    NOp =  1
 Nuclear Repulsion Energy =         752.95530746 hartrees
 There are       48 alpha and       48 beta electrons
 Requested basis set is def2-SV(P)
 There are 112 shells and 208 basis functions

 Total QAlloc Memory Limit   7500 MB
 Mega-Array Size       188 MB
 MEM_STATIC part       192 MB
 A cutoff of  1.0D-14 yielded   5677 shell pairs
 There are     19365 function pairs (     21538 Cartesian)
 Smallest overlap matrix eigenvalue = 1.52E-03

 Scale SEOQF with 1.000000e-01/1.000000e-01/1.000000e-01

 Standard Electronic Orientation quadrupole field applied
 Nucleus-field energy     =     0.0000000217 hartrees

 -----------------------------------------------------------------------
  General SCF calculation program by
  Eric Jon Sundstrom, Paul Horn, Yuezhi Mao, Dmitri Zuev, Alec White,
  David Stuck, Shaama M.S., Shane Yost, Joonho Lee, David Small,
  Daniel Levine, Susi Lehtola, Hugh Burton, Evgeny Epifanovsky,
  Bang C. Huynh
 -----------------------------------------------------------------------
================================================================
                 ALMO-EDA with the EDA2 driver                  
================================================================
 The second-generation ALMO-EDA (for DFT):                      
 P. R. Horn, Y. Mao and M. Head-Gordon, PCCP, 18, 23067 (2016)  
 Decomposition of the frozen energy:                            
 P. R. Horn, Y. Mao and M. Head-Gordon, JCP, 144, 114107 (2016) 
Using eda2 option set 2
Option set summary: Frozen orbital wavefunction, initial wavefunction decomposition, and traditional AO-based POL.
--------------------------------
Printing EDA Options
--------------------------------
eda_child_super_basis      0
fragmo_guess_mode          0
child_mp                   0
child_mp_orders            0
cls_elec                   1
cls_disp                   0
scfmi_mode                 1
scfmi_occs                 0
scfmi_virts                0
frz_relax                  0
frz_relax_method           0
dc_pen_start               0
dc_pen_conv                0
dc_pen_increment           0
dc_pen_steps               0
dc_pen_thresh_factor       0
dc_pen_pre_newton_thresh   0
frz_ortho_decomp           1
frz_ortho_decomp_conv      6
plot_mo_ortho_frz          0
frgm_method                2
scfmi_freeze_ss            0
separate_rehyb             0
plot_diff_den              0
eda_nocv                   0
eda_vct_relax              1
disp_free_x                -110
disp_free_c                0
eda_bsse                   1
eda_pct_a                  0
eda_covp                   0
--------------------------------
Attempting to make child job directory: /scratch/user/peterchao1/peterchao1/6959662_1675470067000000755422540/qchem274297//Frg1/
Attempting to make child job directory: /scratch/user/peterchao1/peterchao1/6959662_1675470067000000755422540/qchem274297//Frg2/
Creating input file /scratch/user/peterchao1/peterchao1/6959662_1675470067000000755422540/qchem274297/Frg1.input
using default PutDataFrgm: nothing
calling putenv with: QCSCRATCH=/scratch/user/peterchao1/peterchao1/6959662_1675470067000000755422540/qchem274297/ 
Spawning Job For Fragment 0
Done Job For Fragment 0
calling putenv with: QCSCRATCH=/scratch/user/peterchao1/peterchao1/6959662_1675470067000000755422540 
calling putenv with: QCTHREADS=8 
Creating input file /scratch/user/peterchao1/peterchao1/6959662_1675470067000000755422540/qchem274297/Frg2.input
using default PutDataFrgm: nothing
calling putenv with: QCSCRATCH=/scratch/user/peterchao1/peterchao1/6959662_1675470067000000755422540/qchem274297/ 
Spawning Job For Fragment 1
Done Job For Fragment 1
calling putenv with: QCSCRATCH=/scratch/user/peterchao1/peterchao1/6959662_1675470067000000755422540 
calling putenv with: QCTHREADS=8 
Doing General SCFMI
 Exchange:     0.2220 Hartree-Fock + 1.0000 wB97X-D + LR-HF
 Correlation:  1.0000 wB97X-D
 Using SG-2 standard quadrature grid
 Dispersion:   Grimme D
performing fock build before subrot guess so that all methods have access
Printing subrot_rss_gen Method Specification:
Occupied Subspace Method is 0
Virtual Subspace Method is 0
Energy of the unrelaxed supersystem initial determinant -542.941027718265
write pseudocanon occs and virts to disk
write pseudocanon orbital energies to disk
Tolerance of ortho_decomp_scf: 1.00e-06
GDM subspace size: 20
Beginning the Orthogonal Decomposition of the Initial Supersystem Wavefunction
    1    -542.9106869790      4.34e-02     ortho_decomp Preconditoned Steepest Descent
    2    -542.9143223582      6.49e-04     ortho_decomp BFGS Step
    3    -542.9143284584      5.86e-05     ortho_decomp BFGS Step
    4    -542.9143284778      1.89e-06     ortho_decomp BFGS Step
    5    -542.9143284779      4.64e-08     ortho_decomp 00000 Convergence criterion met
 Exchange:     0.2220 Hartree-Fock + 1.0000 wB97X-D + LR-HF
 Correlation:  1.0000 wB97X-D
 Using SG-2 standard quadrature grid
 Dispersion:   Grimme D
 Long-range K will be added via erf
 Coulomb attenuation parameter = 0.2 bohr**(-1)
 Exchange:     0.2220 Hartree-Fock + 1.0000 wB97X-D + LR-HF
 Correlation:  1.0000 wB97X-D
 Using SG-2 standard quadrature grid
 Dispersion:   Grimme D
 Long-range K will be added via erf
 Coulomb attenuation parameter = 0.2 bohr**(-1)
 Exchange:     0.2220 Hartree-Fock + 1.0000 wB97X-D + LR-HF
 Correlation:  1.0000 wB97X-D
 Using SG-2 standard quadrature grid
 Dispersion:   Grimme D
 Long-range K will be added via erf
 Coulomb attenuation parameter = 0.2 bohr**(-1)
Doing General SCFMI
 Exchange:     0.2220 Hartree-Fock + 1.0000 wB97X-D + LR-HF
 Correlation:  1.0000 wB97X-D
 Using SG-2 standard quadrature grid
 Dispersion:   Grimme D
performing fock build at end of subrot_r(subrot) constructor so that all methods have access
<S^2> of initial wavefunction before polarization iterations 0.0000000000
Beginning iterations for the determination of the polarized wavefunction
Energy prior to optimization (guess energy) = -542.941027718265
Begin Timing: Total SCF Calculation
begin iterations for algorithm: DIIS         
the SCF tolerance is set to 1.00e-08
    1    -542.9410277183      2.21e-04     00000 
    2    -542.9422025291      1.03e-04     00000 
    3    -542.9423149103      6.02e-05     00000 
    4    -542.9423536541      2.93e-05     00000 
    5    -542.9423621457      6.41e-06     00000 
    6    -542.9423627451      1.98e-06     00000 
    7    -542.9423628022      3.48e-07     00000 
    8    -542.9423628046      1.21e-07     00000 
    9    -542.9423628049      4.35e-08     00000 
   10    -542.9423628050      1.57e-08     00000 
   11    -542.9423628050      7.30e-09     00000 Convergence criterion met
write pseudocanon occs and virts to disk
write pseudocanon orbital energies to disk
Timing for Total SCF: 25.00s (wall), 188.25s (cpu)
<S^2> of polarized wavefunction after polarization iterations 0.0000000000
relaxing scfmi constraint to allow all rotations in the entire AO span
Doing General SCFMI
 Exchange:     0.2220 Hartree-Fock + 1.0000 wB97X-D + LR-HF
 Correlation:  1.0000 wB97X-D
 Using SG-2 standard quadrature grid
 Dispersion:   Grimme D
performing fock build at end of subrot_r(subrot) constructor so that all methods have access
<S^2> of polarized wavefunction before ct-allowed iterations 0.0000000000
Beginning iterations for the determination of the CT-Allowed wavefunction
Energy prior to optimization (guess energy) = -542.942362805026
Begin Timing: Total SCF Calculation
begin iterations for algorithm: DIIS         
the SCF tolerance is set to 1.00e-08
    1    -542.9423628050      4.30e-04     00000 
    2    -542.9501188183      8.93e-05     00000 
    3    -542.9505376275      6.05e-05     00000 
    4    -542.9505946346      2.25e-05     00000 
    5    -542.9506057300      5.20e-06     00000 
    6    -542.9506063606      9.76e-07     00000 
    7    -542.9506063960      3.11e-07     00000 
    8    -542.9506063990      7.56e-08     00000 
    9    -542.9506063993      2.85e-08     00000 
   10    -542.9506063993      8.35e-09     00000 Convergence criterion met
write pseudocanon occs and virts to disk
write pseudocanon orbital energies to disk
Timing for Total SCF: 23.00s (wall), 173.29s (cpu)
<S^2> of ct_allowed wavefunction after ct-allowed iterations 0.0000000000
Attempting to make child job directory: /scratch/user/peterchao1/peterchao1/6959662_1675470067000000755422540/qchem274297//FrgBSSE1/
Attempting to make child job directory: /scratch/user/peterchao1/peterchao1/6959662_1675470067000000755422540/qchem274297//FrgBSSE2/
Creating input file /scratch/user/peterchao1/peterchao1/6959662_1675470067000000755422540/qchem274297/FrgBSSE1.input
calling putenv with: QCSCRATCH=/scratch/user/peterchao1/peterchao1/6959662_1675470067000000755422540/qchem274297/ 
Spawning Job For Fragment 0
Done Job For Fragment 0
calling putenv with: QCSCRATCH=/scratch/user/peterchao1/peterchao1/6959662_1675470067000000755422540 
calling putenv with: QCTHREADS=8 
Creating input file /scratch/user/peterchao1/peterchao1/6959662_1675470067000000755422540/qchem274297/FrgBSSE2.input
calling putenv with: QCSCRATCH=/scratch/user/peterchao1/peterchao1/6959662_1675470067000000755422540/qchem274297/ 
Spawning Job For Fragment 1
Done Job For Fragment 1
calling putenv with: QCSCRATCH=/scratch/user/peterchao1/peterchao1/6959662_1675470067000000755422540 
calling putenv with: QCTHREADS=8 
====================================================================
   Evaluating the BSSE with fragment SCF in the supersystem basis
   Fragment contributions (kJ/mol) 
   Frgm 1: 7.5963
   Frgm 2: 7.5962
   BSSE (kJ/mol) = 15.1925
====================================================================

================================
        Results of EDA2         
================================
Basic EDA Quantities
--------------------
Fragment Energies (Ha):
1 -271.4691055471
2 -271.4691055959
--------------------
  E_prp (kJ/mol) = -0.0000
  E_frz (kJ/mol) = -7.3950
  E_pol (kJ/mol) = -3.5053
  E_vct (kJ/mol) = -6.4513 (CP-corrected)
  E_int (kJ/mol) = -17.3516 (CP-corrected)
--------------------


Decomposition of frozen interaction energy
--------------------
  --------------------
  Orthogonal Frozen Decomposition:
  --------------------
     E_elec   (ELEC)   (kJ/mol) = -38.8767
     E_pauli  (PAULI)  (kJ/mol) = 45.9386
     E_disp   (DISP)   (kJ/mol) = -14.4570
  --------------------
  Classical Frozen Decomposition:
  --------------------
     E_cls_elec  (CLS ELEC)  (kJ/mol) = -17.5388
     E_mod_pauli (MOD PAULI) (kJ/mol) = 24.6008 (FRZ - CLS ELEC - DISP)
     E_disp      (DISP)      (kJ/mol) = -14.4570
  --------------------
--------------------

Simplified EDA Summary (kJ/mol)
--------------------
 PREPARATION      -0.0000
 FROZEN           -7.3950 (ELEC + PAULI + DISP)
[ELEC + PAULI = 7.0620, DISP = -14.4570]
 POLARIZATION    -3.5053
 CHARGE TRANSFER -6.4513     (counterpoise-corrected)
 TOTAL           -17.3516     (PRP + FRZ + POL + CT)
--------------------
 
 --------------------------------------------------------------
 
                    Orbital Energies (a.u.)
 --------------------------------------------------------------
 
 Alpha MOs
 -- Occupied --
-19.2584 -19.2584 -10.3823 -10.3823 -10.3131 -10.3131 -10.2928 -10.2928
-10.2836 -10.2836 -10.2726 -10.2726  -1.1437  -1.1418  -0.9175  -0.9166
 -0.7803  -0.7798  -0.7746  -0.7723  -0.7233  -0.7215  -0.6220  -0.6205
 -0.5694  -0.5672  -0.5506  -0.5479  -0.5366  -0.5284  -0.5172  -0.5063
 -0.4882  -0.4872  -0.4681  -0.4643  -0.4588  -0.4578  -0.4492  -0.4483
 -0.4457  -0.4442  -0.4151  -0.4141  -0.4140  -0.4060  -0.3351  -0.3344
 -- Virtual --
  0.0493   0.0600   0.1337   0.1380   0.1677   0.1733   0.1848   0.1873
  0.1982   0.2018   0.2046   0.2069   0.2108   0.2291   0.2317   0.2404
  0.2501   0.2533   0.2565   0.2636   0.2655   0.2729   0.2877   0.2906
  0.2947   0.3038   0.3041   0.3097   0.3434   0.3515   0.3728   0.3982
  0.4700   0.4726   0.4781   0.4793   0.4932   0.5209   0.5340   0.5598
  0.5834   0.5934   0.6306   0.6491   0.6507   0.6600   0.6733   0.6985
  0.7014   0.7060   0.7145   0.7361   0.7389   0.7446   0.7530   0.7586
  0.7597   0.7677   0.7697   0.7733   0.7738   0.7771   0.7919   0.7942
  0.8017   0.8079   0.8116   0.8131   0.8190   0.8295   0.8325   0.8335
  0.8417   0.8464   0.8475   0.8543   0.8592   0.8607   0.8884   0.8978
  0.9273   0.9523   0.9931   1.0376   1.0426   1.0544   1.0956   1.1255
  1.1320   1.1416   1.1808   1.1952   1.2398   1.2570   1.2880   1.3166
  1.3484   1.3703   1.4304   1.4307   1.5341   1.5422   1.6101   1.6104
  1.7452   1.7509   1.7981   1.8007   1.8030   1.8082   1.8694   1.8714
  1.9113   1.9119   1.9216   1.9249   1.9629   1.9665   2.0474   2.0538
  2.1062   2.1078   2.1139   2.1147   2.1250   2.1499   2.1540   2.1761
  2.2323   2.2342   2.2408   2.2414   2.2469   2.2559   2.2561   2.2730
  2.2758   2.2776   2.4458   2.4594   2.5677   2.5717   2.6284   2.6400
  2.6837   2.6860   2.7189   2.7237   2.7740   2.7782   2.8030   2.8113
  2.8391   2.8395   3.2336   3.2419   3.3658   3.3667   3.7182   3.7227
 --------------------------------------------------------------
 
          Ground-State Mulliken Net Atomic Charges

     Atom                 Charge (a.u.)
  ----------------------------------------
      1 C                    -0.287925
      2 C                    -0.281019
      3 C                    -0.309278
      4 C                    -0.281779
      5 C                     0.130458
      6 O                    -0.205762
      7 H                     0.127602
      8 H                     0.129692
      9 H                     0.118682
     10 H                     0.121898
     11 H                     0.112426
     12 H                     0.160152
     13 H                     0.121468
     14 H                     0.109413
     15 H                     0.158108
     16 H                     0.075864
     17 C                    -0.281782
     18 C                    -0.281017
     19 C                    -0.287926
     20 C                    -0.309277
     21 C                     0.130457
     22 O                    -0.205764
     23 H                     0.121467
     24 H                     0.109413
     25 H                     0.158112
     26 H                     0.118682
     27 H                     0.127602
     28 H                     0.129692
     29 H                     0.160151
     30 H                     0.121898
     31 H                     0.112426
     32 H                     0.075864
  ----------------------------------------
  Sum of atomic charges =     0.000000

 -----------------------------------------------------------------
                    Cartesian Multipole Moments
 -----------------------------------------------------------------
    Charge (ESU x 10^10)
                -0.0000
    Dipole Moment (Debye)
         X      -0.0000      Y       0.0000      Z       0.9663
       Tot       0.9663
    Quadrupole Moments (Debye-Ang)
        XX     -65.5469     XY      -0.3453     YY     -81.3041
        XZ       0.0000     YZ       0.0000     ZZ     -74.9715
    Octopole Moments (Debye-Ang^2)
       XXX      -0.0000    XXY       0.0002    XYY      -0.0003
       YYY      -0.0002    XXZ       2.6814    XYZ      -3.7626
       YYZ      -2.4592    XZZ       0.0001    YZZ       0.0002
       ZZZ       6.6644
    Hexadecapole Moments (Debye-Ang^3)
      XXXX   -3129.5475   XXXY       3.5364   XXYY    -607.5262
      XYYY      -8.1246   YYYY    -566.1454   XXXZ      -0.0010
      XXYZ       0.0002   XYYZ      -0.0001   YYYZ       0.0001
      XXZZ    -592.5765   XYZZ      -8.9603   YYZZ    -165.5311
      XZZZ       0.0005   YZZZ      -0.0001   ZZZZ    -453.0291
 -----------------------------------------------------------------
Archival summary:
1\1\c203.cluster\SP\ProcedureUnspecified\BasisUnspecified\21020\petercha\FriFeb318:24:232023FriFeb318:24:232023\0\\#,ProcedureUnspecified,BasisUnspecified,\\0,1\O\C,1,1.203\H,2,1.12384,1,119.795\C,2,1.5176,1,126.092,3,179.008,0\C,4,1.52796,2,110.542,1,6.44359,0\H,5,1.10224,4,110.369,2,61.5698,0\H,5,1.10309,4,111.132,2,-58.4841,0\H,5,1.10431,4,110.095,2,-178.531,0\C,4,1.53853,2,107.49,1,127.752,0\H,9,1.10291,4,110.801,2,-63.297,0\H,9,1.10419,4,109.759,2,177.033,0\H,9,1.10552,4,111.44,2,57.8956,0\C,4,1.54029,2,106.601,1,-114.55,0\H,13,1.10413,4,109.744,2,-176.145,0\H,13,1.10422,4,111.318,2,64.3103,0\H,13,1.10528,4,111.693,2,-56.8182,0\H,1,2.44661,2,137.532,3,53.4328,0\C,17,1.10291,1,143.166,2,80.368,0\H,18,1.10419,17,108.387,1,125.295,0\H,18,1.10552,17,108.714,1,-117.983,0\C,18,1.53853,17,110.802,1,4.80542,0\C,21,1.5176,18,107.49,17,-63.2979,0\H,22,1.12385,21,114.107,18,-53.1933,0\O,22,1.203,21,126.092,18,127.75,0\C,21,1.52796,18,111.018,17,57.7124,0\H,25,1.10224,21,110.369,18,-57.6257,0\H,25,1.10309,21,111.132,18,-177.68,0\H,25,1.10431,21,110.095,18,62.2735,0\C,21,1.54029,18,109.815,17,-178.889,0\H,29,1.10413,21,109.744,18,-59.9921,0\H,29,1.10422,21,111.318,18,-179.537,0\H,29,1.10528,21,111.692,18,59.3344,0\\\@

 Total job time:  186.52s(wall), 732.87s(cpu) 
 Fri Feb  3 18:24:23 2023

        *************************************************************
        *                                                           *
        *  Thank you very much for using Q-Chem.  Have a nice day.  *
        *                                                           *
        *************************************************************


remove work dirs /scratch/user/peterchao1/peterchao1/6959662_1675470067000000755422540/qchem274297.0 -- /scratch/user/peterchao1/peterchao1/6959662_1675470067000000755422540/qchem274297.-1
rm -rf /scratch/user/peterchao1/peterchao1/6959662_1675470067000000755422540/qchem274297
real 196.05
user 1114.11
sys 73.46
