 Entering Gaussian System, Link 0=g16
 Input=gaussian_test.inp
 Output=gaussian_test.log
 Initial command:
 /sw/restricted/lms/sw/Gaussian/g16_B01/g16/l1.exe "/scratch/user/peterchao1/peterchao1/6318280_1663960373000000607176863/Gau-218286.inp" -scrdir="/scratch/user/peterchao1/peterchao1/6318280_1663960373000000607176863/"
 Entering Link 1 = /sw/restricted/lms/sw/Gaussian/g16_B01/g16/l1.exe PID=    218290.
  
 Copyright (c) 1988-2017, Gaussian, Inc.  All Rights Reserved.
  
 This is part of the Gaussian(R) 16 program.  It is based on
 the Gaussian(R) 09 system (copyright 2009, Gaussian, Inc.),
 the Gaussian(R) 03 system (copyright 2003, Gaussian, Inc.),
 the Gaussian(R) 98 system (copyright 1998, Gaussian, Inc.),
 the Gaussian(R) 94 system (copyright 1995, Gaussian, Inc.),
 the Gaussian 92(TM) system (copyright 1992, Gaussian, Inc.),
 the Gaussian 90(TM) system (copyright 1990, Gaussian, Inc.),
 the Gaussian 88(TM) system (copyright 1988, Gaussian, Inc.),
 the Gaussian 86(TM) system (copyright 1986, Carnegie Mellon
 University), and the Gaussian 82(TM) system (copyright 1983,
 Carnegie Mellon University). Gaussian is a federally registered
 trademark of Gaussian, Inc.
  
 This software contains proprietary and confidential information,
 including trade secrets, belonging to Gaussian, Inc.
  
 This software is provided under written license and may be
 used, copied, transmitted, or stored only in accord with that
 written license.
  
 The following legend is applicable only to US Government
 contracts under FAR:
  
                    RESTRICTED RIGHTS LEGEND
  
 Use, reproduction and disclosure by the US Government is
 subject to restrictions as set forth in subparagraphs (a)
 and (c) of the Commercial Computer Software - Restricted
 Rights clause in FAR 52.227-19.
  
 Gaussian, Inc.
 340 Quinnipiac St., Bldg. 40, Wallingford CT 06492
  
  
 ---------------------------------------------------------------
 Warning -- This program may not be used in any manner that
 competes with the business of Gaussian, Inc. or will provide
 assistance to any competitor of Gaussian, Inc.  The licensee
 of this program is prohibited from giving any competitor of
 Gaussian, Inc. access to this program.  By using this program,
 the user acknowledges that Gaussian, Inc. is engaged in the
 business of creating and licensing software in the field of
 computational chemistry and represents and warrants to the
 licensee that it is not a competitor of Gaussian, Inc. and that
 it will not use this program in any manner prohibited above.
 ---------------------------------------------------------------
  

 Cite this work as:
 Gaussian 16, Revision B.01,
 M. J. Frisch, G. W. Trucks, H. B. Schlegel, G. E. Scuseria, 
 M. A. Robb, J. R. Cheeseman, G. Scalmani, V. Barone, 
 G. A. Petersson, H. Nakatsuji, X. Li, M. Caricato, A. V. Marenich, 
 J. Bloino, B. G. Janesko, R. Gomperts, B. Mennucci, H. P. Hratchian, 
 J. V. Ortiz, A. F. Izmaylov, J. L. Sonnenberg, D. Williams-Young, 
 F. Ding, F. Lipparini, F. Egidi, J. Goings, B. Peng, A. Petrone, 
 T. Henderson, D. Ranasinghe, V. G. Zakrzewski, J. Gao, N. Rega, 
 G. Zheng, W. Liang, M. Hada, M. Ehara, K. Toyota, R. Fukuda, 
 J. Hasegawa, M. Ishida, T. Nakajima, Y. Honda, O. Kitao, H. Nakai, 
 T. Vreven, K. Throssell, J. A. Montgomery, Jr., J. E. Peralta, 
 F. Ogliaro, M. J. Bearpark, J. J. Heyd, E. N. Brothers, K. N. Kudin, 
 V. N. Staroverov, T. A. Keith, R. Kobayashi, J. Normand, 
 K. Raghavachari, A. P. Rendell, J. C. Burant, S. S. Iyengar, 
 J. Tomasi, M. Cossi, J. M. Millam, M. Klene, C. Adamo, R. Cammi, 
 J. W. Ochterski, R. L. Martin, K. Morokuma, O. Farkas, 
 J. B. Foresman, and D. J. Fox, Gaussian, Inc., Wallingford CT, 2016.
 
 ******************************************
 Gaussian 16:  ES64L-G16RevB.01 20-Dec-2017
                23-Sep-2022 
 ******************************************
 %chk=27.chk
 %nprocshared=4
 Will use up to    4 processors via shared memory.
 %mem=8000mb
 --------------------------------------------------------------
 #T wB97XD//def2svpp Volume=tight Geom=AllCheckpoint Guess=Read
 --------------------------------------------------------------
 Structure from the checkpoint file:  "27.chk"
 -------
 Monomer
 -------
 Charge =  0 Multiplicity = 1
 Redundant internal coordinates found in file.  (old form).
 C,0,-1.073549,1.433793,0.000002
 C,0,-0.553789,0.002788,0.
 C,0,-0.969857,-0.751,1.264261
 C,0,-0.969855,-0.750996,-1.264264
 N,0,0.982512,0.028591,0.000001
 O,0,1.542785,1.099652,0.000001
 O,0,1.541156,-1.045647,0.
 H,0,-2.176421,1.407209,0.000002
 H,0,-0.736935,1.9851,-0.891503
 H,0,-0.736935,1.985098,0.891508
 H,0,-2.070194,-0.810681,1.305004
 H,0,-0.619446,-0.225726,2.16912
 H,0,-0.558621,-1.772145,1.26532
 H,0,-2.070192,-0.810677,-1.305009
 H,0,-0.558619,-1.772141,-1.265326
 H,0,-0.619443,-0.225719,-2.16912
 Recover connectivity data from disk.
                           ----------------------------
                           !    Current Parameters    !
                           ! (Angstroms and Degrees)  !
 --------------------------                            --------------------------
 ! Name  Definition              Value                                          !
 --------------------------------------------------------------------------------
 ! R1    R(1,2)                  1.5225                                         !
 ! R2    R(1,8)                  1.1032                                         !
 ! R3    R(1,9)                  1.1009                                         !
 ! R4    R(1,10)                 1.1009                                         !
 ! R5    R(2,3)                  1.5296                                         !
 ! R6    R(2,4)                  1.5296                                         !
 ! R7    R(2,5)                  1.5365                                         !
 ! R8    R(3,11)                 1.1027                                         !
 ! R9    R(3,12)                 1.1034                                         !
 ! R10   R(3,13)                 1.1008                                         !
 ! R11   R(4,14)                 1.1027                                         !
 ! R12   R(4,15)                 1.1008                                         !
 ! R13   R(4,16)                 1.1034                                         !
 ! R14   R(5,6)                  1.2088                                         !
 ! R15   R(5,7)                  1.2108                                         !
 ! A1    A(2,1,8)              108.5809                                         !
 ! A2    A(2,1,9)              111.4875                                         !
 ! A3    A(2,1,10)             111.4876                                         !
 ! A4    A(8,1,9)              108.526                                          !
 ! A5    A(8,1,10)             108.526                                          !
 ! A6    A(9,1,10)             108.149                                          !
 ! A7    A(1,2,3)              111.7361                                         !
 ! A8    A(1,2,4)              111.7361                                         !
 ! A9    A(1,2,5)              108.9995                                         !
 ! A10   A(3,2,4)              111.4885                                         !
 ! A11   A(3,2,5)              106.275                                          !
 ! A12   A(4,2,5)              106.275                                          !
 ! A13   A(2,3,11)             109.1861                                         !
 ! A14   A(2,3,12)             110.9057                                         !
 ! A15   A(2,3,13)             110.8735                                         !
 ! A16   A(11,3,12)            108.2015                                         !
 ! A17   A(11,3,13)            108.8155                                         !
 ! A18   A(12,3,13)            108.7939                                         !
 ! A19   A(2,4,14)             109.1861                                         !
 ! A20   A(2,4,15)             110.8735                                         !
 ! A21   A(2,4,16)             110.9057                                         !
 ! A22   A(14,4,15)            108.8155                                         !
 ! A23   A(14,4,16)            108.2014                                         !
 ! A24   A(15,4,16)            108.7939                                         !
 ! A25   A(2,5,6)              118.5763                                         !
 ! A26   A(2,5,7)              116.5139                                         !
 ! A27   A(6,5,7)              124.9098                                         !
 ! D1    D(8,1,2,3)            -62.8479                                         !
 ! D2    D(8,1,2,4)             62.848                                          !
 ! D3    D(8,1,2,5)           -180.0                                            !
 ! D4    D(9,1,2,3)            177.6418                                         !
 ! D5    D(9,1,2,4)            -56.6624                                         !
 ! D6    D(9,1,2,5)             60.4897                                         !
 ! D7    D(10,1,2,3)            56.6625                                         !
 ! D8    D(10,1,2,4)          -177.6417                                         !
 ! D9    D(10,1,2,5)           -60.4896                                         !
 ! D10   D(1,2,3,11)            62.0279                                         !
 ! D11   D(1,2,3,12)           -57.1124                                         !
 ! D12   D(1,2,3,13)          -178.0933                                         !
 ! D13   D(4,2,3,11)           -63.8041                                         !
 ! D14   D(4,2,3,12)           177.0557                                         !
 ! D15   D(4,2,3,13)            56.0747                                         !
 ! D16   D(5,2,3,11)          -179.1885                                         !
 ! D17   D(5,2,3,12)            61.6712                                         !
 ! D18   D(5,2,3,13)           -59.3097                                         !
 ! D19   D(1,2,4,14)           -62.0279                                         !
 ! D20   D(1,2,4,15)           178.0933                                         !
 ! D21   D(1,2,4,16)            57.1123                                         !
 ! D22   D(3,2,4,14)            63.8041                                         !
 ! D23   D(3,2,4,15)           -56.0748                                         !
 ! D24   D(3,2,4,16)          -177.0557                                         !
 ! D25   D(5,2,4,14)           179.1885                                         !
 ! D26   D(5,2,4,15)            59.3097                                         !
 ! D27   D(5,2,4,16)           -61.6712                                         !
 ! D28   D(1,2,5,6)             -0.0001                                         !
 ! D29   D(1,2,5,7)            180.0                                            !
 ! D30   D(3,2,5,6)           -120.5669                                         !
 ! D31   D(3,2,5,7)             59.4332                                         !
 ! D32   D(4,2,5,6)            120.5666                                         !
 ! D33   D(4,2,5,7)            -59.4333                                         !
 --------------------------------------------------------------------------------
                    Distance matrix (angstroms):
                    1          2          3          4          5
     1  C    0.000000
     2  C    1.522474   0.000000
     3  C    2.526346   1.529596   0.000000
     4  C    2.526346   1.529596   2.528525   0.000000
     5  N    2.490377   1.536518   2.453133   2.453132   0.000000
     6  O    2.637585   2.366164   3.366992   3.366990   1.208750
     7  O    3.603374   2.342650   2.826722   2.826722   1.210814
     8  H    1.103192   2.146004   2.777051   2.777052   3.446657
     9  H    1.100922   2.181257   3.491105   2.771177   2.753036
    10  H    1.100922   2.181257   2.771178   3.491105   2.753035
    11  H    2.781006   2.159688   1.102707   2.795612   3.424387
    12  H    2.768625   2.182112   1.103390   3.490963   2.708510
    13  H    3.484856   2.179781   1.100842   2.758741   2.686777
    14  H    2.781006   2.159688   2.795612   1.102707   3.424387
    15  H    3.484856   2.179781   2.758742   1.100842   2.686777
    16  H    2.768625   2.182111   3.490962   1.103390   2.708509
                    6          7          8          9         10
     6  O    0.000000
     7  O    2.145300   0.000000
     8  H    3.731901   4.453861   0.000000
     9  H    2.603060   3.894856   1.789094   0.000000
    10  H    2.603060   3.894856   1.789094   1.783011   0.000000
    11  H    4.290224   3.847089   2.575529   3.797185   3.124890
    12  H    3.337206   3.169472   3.129812   3.777429   2.556137
    13  H    3.776792   2.556931   3.785049   4.335963   3.780001
    14  H    4.290223   3.847089   2.575530   3.124889   3.797186
    15  H    3.776790   2.556931   3.785050   3.780000   4.335963
    16  H    3.337203   3.169472   3.129812   2.556136   3.777428
                   11         12         13         14         15
    11  H    0.000000
    12  H    1.787047   0.000000
    13  H    1.791882   1.792196   0.000000
    14  H    2.610013   3.810040   3.133027   0.000000
    15  H    3.133027   3.767030   2.530646   1.791882   0.000000
    16  H    3.810039   4.338240   3.767029   1.787047   1.792195
                   16
    16  H    0.000000
 Framework group  C1[X(C4H9NO2)]
 Deg. of freedom    42
                         Standard orientation:                         
 ---------------------------------------------------------------------
 Center     Atomic      Atomic             Coordinates (Angstroms)
 Number     Number       Type             X           Y           Z
 ---------------------------------------------------------------------
      1          6           0        1.073549    1.433793   -0.000002
      2          6           0        0.553789    0.002788    0.000000
      3          6           0        0.969857   -0.751000   -1.264261
      4          6           0        0.969855   -0.750996    1.264264
      5          7           0       -0.982512    0.028591   -0.000001
      6          8           0       -1.542785    1.099652   -0.000001
      7          8           0       -1.541156   -1.045647    0.000000
      8          1           0        2.176421    1.407209   -0.000002
      9          1           0        0.736935    1.985100    0.891503
     10          1           0        0.736935    1.985098   -0.891508
     11          1           0        2.070194   -0.810681   -1.305004
     12          1           0        0.619446   -0.225726   -2.169120
     13          1           0        0.558621   -1.772145   -1.265320
     14          1           0        2.070192   -0.810677    1.305009
     15          1           0        0.558619   -1.772141    1.265326
     16          1           0        0.619443   -0.225719    2.169120
 ---------------------------------------------------------------------
 Rotational constants (GHZ):           3.3953070           2.5180663           2.1293915
   116 basis functions,   211 primitive gaussians,   123 cartesian basis functions
    28 alpha electrons       28 beta electrons
       nuclear repulsion energy       336.7374804893 Hartrees.
 NAtoms=   16 NActive=   16 NUniq=   16 SFac= 1.00D+00 NAtFMM=   60 NAOKFM=F Big=F
 Nuclear repulsion after empirical dispersion term =      336.7281841877 Hartrees.
   1 Symmetry operations used in ECPInt.
 ECPInt:  NShTT=    1830 NPrTT=    7378 LenC2=    1825 LenP2D=    6006.
 LDataN:  DoStor=T MaxTD1= 4 Len=   56
 Initial guess from the checkpoint file:  "27.chk"
 B after Tr=     0.000000    0.000000    0.000000
         Rot=    1.000000   -0.000000    0.000000    0.000000 Ang=   0.00 deg.
 Skip diagonalization as Alpha Fock matrix is already diagonal.
 SCF Done:  E(RwB97XD) =  -362.564202470     A.U. after    1 cycles
            NFock=  1  Conv=0.00D+00     -V/T= 2.0085

 **********************************************************************

            Population analysis using the SCF Density.

 **********************************************************************

 Orbital symmetries:
       Occupied  (A) (A) (A) (A) (A) (A) (A) (A) (A) (A) (A) (A)
                 (A) (A) (A) (A) (A) (A) (A) (A) (A) (A) (A) (A)
                 (A) (A) (A) (A)
       Virtual   (A) (A) (A) (A) (A) (A) (A) (A) (A) (A) (A) (A)
                 (A) (A) (A) (A) (A) (A) (A) (A) (A) (A) (A) (A)
                 (A) (A) (A) (A) (A) (A) (A) (A) (A) (A) (A) (A)
                 (A) (A) (A) (A) (A) (A) (A) (A) (A) (A) (A) (A)
                 (A) (A) (A) (A) (A) (A) (A) (A) (A) (A) (A) (A)
                 (A) (A) (A) (A) (A) (A) (A) (A) (A) (A) (A) (A)
                 (A) (A) (A) (A) (A) (A) (A) (A) (A) (A) (A) (A)
                 (A) (A) (A) (A)
 The electronic state is 1-A.
 Alpha  occ. eigenvalues --  -19.28601 -19.28300 -14.67292 -10.37151 -10.30728
 Alpha  occ. eigenvalues --  -10.30726 -10.30212  -1.33188  -1.15379  -0.95734
 Alpha  occ. eigenvalues --   -0.80607  -0.79980  -0.78668  -0.65202  -0.63367
 Alpha  occ. eigenvalues --   -0.61278  -0.59888  -0.54850  -0.54171  -0.51050
 Alpha  occ. eigenvalues --   -0.49490  -0.49288  -0.47013  -0.44450  -0.44450
 Alpha  occ. eigenvalues --   -0.39388  -0.38174  -0.37728
 Alpha virt. eigenvalues --    0.01710   0.12154   0.14969   0.17999   0.19036
 Alpha virt. eigenvalues --    0.19122   0.19381   0.22982   0.23233   0.24134
 Alpha virt. eigenvalues --    0.25656   0.26161   0.28920   0.29908   0.38222
 Alpha virt. eigenvalues --    0.45792   0.46238   0.46926   0.50976   0.53495
 Alpha virt. eigenvalues --    0.58091   0.59869   0.63950   0.65854   0.67090
 Alpha virt. eigenvalues --    0.72455   0.72955   0.74297   0.74397   0.74532
 Alpha virt. eigenvalues --    0.78678   0.78731   0.79038   0.79161   0.80419
 Alpha virt. eigenvalues --    0.82940   0.83149   0.85122   0.86913   0.95590
 Alpha virt. eigenvalues --    0.96455   0.99876   1.02411   1.06988   1.09506
 Alpha virt. eigenvalues --    1.12494   1.14244   1.15745   1.23687   1.25478
 Alpha virt. eigenvalues --    1.35596   1.45211   1.45963   1.56646   1.70556
 Alpha virt. eigenvalues --    1.77605   1.82686   1.83314   1.86973   1.90169
 Alpha virt. eigenvalues --    1.93035   2.06163   2.08053   2.11808   2.17558
 Alpha virt. eigenvalues --    2.17707   2.21879   2.22019   2.22303   2.26175
 Alpha virt. eigenvalues --    2.32809   2.43411   2.50280   2.55169   2.57905
 Alpha virt. eigenvalues --    2.68415   2.70437   2.72423   2.73190   2.74859
 Alpha virt. eigenvalues --    2.75414   2.88890   3.15357   3.23664   3.39787
 Alpha virt. eigenvalues --    3.51836   3.83082   3.86854
          Condensed to atoms (all electrons):
 Mulliken charges:
               1
     1  C   -0.243668
     2  C   -0.207961
     3  C   -0.268675
     4  C   -0.268674
     5  N    0.247109
     6  O   -0.242652
     7  O   -0.253574
     8  H    0.124507
     9  H    0.136673
    10  H    0.136673
    11  H    0.131839
    12  H    0.135950
    13  H    0.152332
    14  H    0.131839
    15  H    0.152332
    16  H    0.135950
 Sum of Mulliken charges =  -0.00000
 Mulliken charges with hydrogens summed into heavy atoms:
               1
     1  C    0.154185
     2  C   -0.207961
     3  C    0.151446
     4  C    0.151446
     5  N    0.247109
     6  O   -0.242652
     7  O   -0.253574
 Electronic spatial extent (au):  <R**2>=            714.1878
 Charge=             -0.0000 electrons
 Dipole moment (field-independent basis, Debye):
    X=              3.7396    Y=             -0.0833    Z=              0.0000  Tot=              3.7405
 Evaluate density.
 Using the total density.
 Monte-Carlo method of calculating molar volume:
 based on  0.001 e/bohr**3 density envelope.
 Number of points per bohr**3 =  100 CutOff= 1.00D-04
 Using the SCF density.
 There are      1711 points.  Will hold      1711 in memory.
 LenV=  1048344291 MDV=  1048576000.
 Box volume = 5017.134 fraction occupied=0.185
 Integrated density= 4.9256029653485257D+01 error=-6.7439703465147431D+00
 Molar volume =  926.601 bohr**3/mol ( 82.689 cm**3/mol)
 Recommended a0 for SCRF calculation =  4.02 angstrom (  7.60 bohr)
 1\1\GINC-C386\SP\RwB97XD\def2SVPP\C4H9N1O2\PETERCHAO1\23-Sep-2022\0\\#
 T wB97XD//def2svpp Volume=tight Geom=AllCheckpoint Guess=Read\\Monomer
 \\0,1\C,0,-1.073549,1.433793,0.000002\C,0,-0.553789,0.002788,0.\C,0,-0
 .969857,-0.751,1.264261\C,0,-0.969855,-0.750996,-1.264264\N,0,0.982512
 ,0.028591,0.000001\O,0,1.542785,1.099652,0.000001\O,0,1.541156,-1.0456
 47,0.\H,0,-2.176421,1.407209,0.000002\H,0,-0.736935,1.9851,-0.891503\H
 ,0,-0.736935,1.985098,0.891508\H,0,-2.070194,-0.810681,1.305004\H,0,-0
 .619446,-0.225726,2.16912\H,0,-0.558621,-1.772145,1.26532\H,0,-2.07019
 2,-0.810677,-1.305009\H,0,-0.558619,-1.772141,-1.265326\H,0,-0.619443,
 -0.225719,-2.16912\\Version=ES64L-G16RevB.01\State=1-A\HF=-362.5642025
 \RMSD=0.000e+00\Dipole=-1.4712625,-0.0327616,-0.0000005\Quadrupole=-2.
 0206058,-0.7510686,2.7716744,0.1126007,0.0000006,-0.0000002\PG=C01 [X(
 C4H9N1O2)]\\@


 THE REASON MAN'S BEST FRIEND IS A DOG IS BECAUSE
 HE WAGS HIS TAIL INSTEAD OF HIS TONGUE.
 File lengths (MBytes):  RWF=     10 Int=      0 D2E=      0 Chk=      2 Scr=      1
 Normal termination of Gaussian 16 at Fri Sep 23 14:19:33 2022.
