 Entering Gaussian System, Link 0=g16
 Input=gaussian_test.inp
 Output=gaussian_test.log
 Initial command:
 /sw/restricted/lms/sw/Gaussian/g16_B01/g16/l1.exe "/scratch/user/peterchao1/peterchao1/8625342_1689034652000000822577647/Gau-116101.inp" -scrdir="/scratch/user/peterchao1/peterchao1/8625342_1689034652000000822577647/"
 Entering Link 1 = /sw/restricted/lms/sw/Gaussian/g16_B01/g16/l1.exe PID=    116106.
  
 Copyright (c) 1988-2017, Gaussian, Inc.  All Rights Reserved.
  
 This is part of the Gaussian(R) 16 program.  It is based on
 the Gaussian(R) 09 system (copyright 2009, Gaussian, Inc.),
 the Gaussian(R) 03 system (copyright 2003, Gaussian, Inc.),
 the Gaussian(R) 98 system (copyright 1998, Gaussian, Inc.),
 the Gaussian(R) 94 system (copyright 1995, Gaussian, Inc.),
 the Gaussian 92(TM) system (copyright 1992, Gaussian, Inc.),
 the Gaussian 90(TM) system (copyright 1990, Gaussian, Inc.),
 the Gaussian 88(TM) system (copyright 1988, Gaussian, Inc.),
 the Gaussian 86(TM) system (copyright 1986, Carnegie Mellon
 University), and the Gaussian 82(TM) system (copyright 1983,
 Carnegie Mellon University). Gaussian is a federally registered
 trademark of Gaussian, Inc.
  
 This software contains proprietary and confidential information,
 including trade secrets, belonging to Gaussian, Inc.
  
 This software is provided under written license and may be
 used, copied, transmitted, or stored only in accord with that
 written license.
  
 The following legend is applicable only to US Government
 contracts under FAR:
  
                    RESTRICTED RIGHTS LEGEND
  
 Use, reproduction and disclosure by the US Government is
 subject to restrictions as set forth in subparagraphs (a)
 and (c) of the Commercial Computer Software - Restricted
 Rights clause in FAR 52.227-19.
  
 Gaussian, Inc.
 340 Quinnipiac St., Bldg. 40, Wallingford CT 06492
  
  
 ---------------------------------------------------------------
 Warning -- This program may not be used in any manner that
 competes with the business of Gaussian, Inc. or will provide
 assistance to any competitor of Gaussian, Inc.  The licensee
 of this program is prohibited from giving any competitor of
 Gaussian, Inc. access to this program.  By using this program,
 the user acknowledges that Gaussian, Inc. is engaged in the
 business of creating and licensing software in the field of
 computational chemistry and represents and warrants to the
 licensee that it is not a competitor of Gaussian, Inc. and that
 it will not use this program in any manner prohibited above.
 ---------------------------------------------------------------
  

 Cite this work as:
 Gaussian 16, Revision B.01,
 M. J. Frisch, G. W. Trucks, H. B. Schlegel, G. E. Scuseria, 
 M. A. Robb, J. R. Cheeseman, G. Scalmani, V. Barone, 
 G. A. Petersson, H. Nakatsuji, X. Li, M. Caricato, A. V. Marenich, 
 J. Bloino, B. G. Janesko, R. Gomperts, B. Mennucci, H. P. Hratchian, 
 J. V. Ortiz, A. F. Izmaylov, J. L. Sonnenberg, D. Williams-Young, 
 F. Ding, F. Lipparini, F. Egidi, J. Goings, B. Peng, A. Petrone, 
 T. Henderson, D. Ranasinghe, V. G. Zakrzewski, J. Gao, N. Rega, 
 G. Zheng, W. Liang, M. Hada, M. Ehara, K. Toyota, R. Fukuda, 
 J. Hasegawa, M. Ishida, T. Nakajima, Y. Honda, O. Kitao, H. Nakai, 
 T. Vreven, K. Throssell, J. A. Montgomery, Jr., J. E. Peralta, 
 F. Ogliaro, M. J. Bearpark, J. J. Heyd, E. N. Brothers, K. N. Kudin, 
 V. N. Staroverov, T. A. Keith, R. Kobayashi, J. Normand, 
 K. Raghavachari, A. P. Rendell, J. C. Burant, S. S. Iyengar, 
 J. Tomasi, M. Cossi, J. M. Millam, M. Klene, C. Adamo, R. Cammi, 
 J. W. Ochterski, R. L. Martin, K. Morokuma, O. Farkas, 
 J. B. Foresman, and D. J. Fox, Gaussian, Inc., Wallingford CT, 2016.
 
 ******************************************
 Gaussian 16:  ES64L-G16RevB.01 20-Dec-2017
                10-Jul-2023 
 ******************************************
 %nprocshared=4
 Will use up to    4 processors via shared memory.
 %mem=8000mb
 %chk=2.chk
 %mem=8000mb
 ----------------------------------------------------------------------
 #T wB97XD/def2svpp opt=tight freq int(grid=ultrafine) scf=(verytight,q
 c)
 ----------------------------------------------------------------------
 -------
 comment
 -------
 Symbolic Z-matrix:
 Charge =  1 Multiplicity = 2
 O                    -1.59566  -0.13689   1.34537 
 C                    -0.19034   0.07942   1.26314 
 C                     0.23873   0.00647  -0.20483 
 C                    -0.65248   0.92988  -1.06361 
 O                    -0.8815    2.18612  -0.47854 
 C                     1.69345   0.49716  -0.29884 
 O                     2.57147  -0.10006   0.62466 
 C                     0.1203   -1.43542  -0.73116 
 O                    -1.17748  -1.95616  -0.68671 
 H                    -1.858    -0.18928   2.27373 
 H                     0.36061  -0.67833   1.849 
 H                     0.06866   1.07318   1.67352 
 H                    -1.59963   0.40941  -1.28854 
 H                    -0.14806   1.11663  -2.02819 
 H                    -1.56007   2.0695    0.20082 
 H                     1.70923   1.57797  -0.08456 
 H                     2.05263   0.3644   -1.34085 
 H                     2.73118  -1.01655   0.3655 
 H                     0.82308  -2.08189  -0.15768 
 H                     0.44832  -1.46428  -1.7874 
 H                    -1.62063  -1.5899    0.09816 
 

 GradGradGradGradGradGradGradGradGradGradGradGradGradGradGradGradGradGrad
 Initialization pass.
                           ----------------------------
                           !    Initial Parameters    !
                           ! (Angstroms and Degrees)  !
 --------------------------                            --------------------------
 ! Name  Definition              Value          Derivative Info.                !
 --------------------------------------------------------------------------------
 ! R1    R(1,2)                  1.4243         estimate D2E/DX2                !
 ! R2    R(1,10)                 0.9661         estimate D2E/DX2                !
 ! R3    R(2,3)                  1.5311         estimate D2E/DX2                !
 ! R4    R(2,11)                 1.105          estimate D2E/DX2                !
 ! R5    R(2,12)                 1.1059         estimate D2E/DX2                !
 ! R6    R(3,4)                  1.5442         estimate D2E/DX2                !
 ! R7    R(3,6)                  1.5381         estimate D2E/DX2                !
 ! R8    R(3,8)                  1.5395         estimate D2E/DX2                !
 ! R9    R(4,5)                  1.4046         estimate D2E/DX2                !
 ! R10   R(4,13)                 1.1039         estimate D2E/DX2                !
 ! R11   R(4,14)                 1.1044         estimate D2E/DX2                !
 ! R12   R(5,15)                 0.9673         estimate D2E/DX2                !
 ! R13   R(6,7)                  1.4073         estimate D2E/DX2                !
 ! R14   R(6,16)                 1.102          estimate D2E/DX2                !
 ! R15   R(6,17)                 1.1101         estimate D2E/DX2                !
 ! R16   R(7,18)                 0.9657         estimate D2E/DX2                !
 ! R17   R(8,9)                  1.3991         estimate D2E/DX2                !
 ! R18   R(8,19)                 1.1139         estimate D2E/DX2                !
 ! R19   R(8,20)                 1.1064         estimate D2E/DX2                !
 ! R20   R(9,21)                 0.9729         estimate D2E/DX2                !
 ! A1    A(2,1,10)             109.3684         estimate D2E/DX2                !
 ! A2    A(1,2,3)              108.9429         estimate D2E/DX2                !
 ! A3    A(1,2,11)             110.9297         estimate D2E/DX2                !
 ! A4    A(1,2,12)             110.2507         estimate D2E/DX2                !
 ! A5    A(3,2,11)             109.6292         estimate D2E/DX2                !
 ! A6    A(3,2,12)             109.4483         estimate D2E/DX2                !
 ! A7    A(11,2,12)            107.62           estimate D2E/DX2                !
 ! A8    A(2,3,4)              110.0582         estimate D2E/DX2                !
 ! A9    A(2,3,6)              107.9646         estimate D2E/DX2                !
 ! A10   A(2,3,8)              110.539          estimate D2E/DX2                !
 ! A11   A(4,3,6)              108.7288         estimate D2E/DX2                !
 ! A12   A(4,3,8)              108.9987         estimate D2E/DX2                !
 ! A13   A(6,3,8)              110.5274         estimate D2E/DX2                !
 ! A14   A(3,4,5)              113.4084         estimate D2E/DX2                !
 ! A15   A(3,4,13)             109.0608         estimate D2E/DX2                !
 ! A16   A(3,4,14)             108.8596         estimate D2E/DX2                !
 ! A17   A(5,4,13)             111.5098         estimate D2E/DX2                !
 ! A18   A(5,4,14)             106.6804         estimate D2E/DX2                !
 ! A19   A(13,4,14)            107.0765         estimate D2E/DX2                !
 ! A20   A(4,5,15)             107.4039         estimate D2E/DX2                !
 ! A21   A(3,6,7)              114.4933         estimate D2E/DX2                !
 ! A22   A(3,6,16)             108.3339         estimate D2E/DX2                !
 ! A23   A(3,6,17)             108.9783         estimate D2E/DX2                !
 ! A24   A(7,6,16)             106.2421         estimate D2E/DX2                !
 ! A25   A(7,6,17)             111.3057         estimate D2E/DX2                !
 ! A26   A(16,6,17)            107.1684         estimate D2E/DX2                !
 ! A27   A(6,7,18)             109.2579         estimate D2E/DX2                !
 ! A28   A(3,8,9)              114.1483         estimate D2E/DX2                !
 ! A29   A(3,8,19)             108.6041         estimate D2E/DX2                !
 ! A30   A(3,8,20)             109.1477         estimate D2E/DX2                !
 ! A31   A(9,8,19)             110.6635         estimate D2E/DX2                !
 ! A32   A(9,8,20)             107.1964         estimate D2E/DX2                !
 ! A33   A(19,8,20)            106.8174         estimate D2E/DX2                !
 ! A34   A(8,9,21)             107.9406         estimate D2E/DX2                !
 ! D1    D(10,1,2,3)           173.81           estimate D2E/DX2                !
 ! D2    D(10,1,2,11)           53.0449         estimate D2E/DX2                !
 ! D3    D(10,1,2,12)          -66.0685         estimate D2E/DX2                !
 ! D4    D(1,2,3,4)             51.1034         estimate D2E/DX2                !
 ! D5    D(1,2,3,6)            169.6404         estimate D2E/DX2                !
 ! D6    D(1,2,3,8)            -69.3536         estimate D2E/DX2                !
 ! D7    D(11,2,3,4)           172.6631         estimate D2E/DX2                !
 ! D8    D(11,2,3,6)           -68.7999         estimate D2E/DX2                !
 ! D9    D(11,2,3,8)            52.2062         estimate D2E/DX2                !
 ! D10   D(12,2,3,4)           -69.5125         estimate D2E/DX2                !
 ! D11   D(12,2,3,6)            49.0245         estimate D2E/DX2                !
 ! D12   D(12,2,3,8)           170.0306         estimate D2E/DX2                !
 ! D13   D(2,3,4,5)             43.6325         estimate D2E/DX2                !
 ! D14   D(2,3,4,13)           -81.2781         estimate D2E/DX2                !
 ! D15   D(2,3,4,14)           162.2133         estimate D2E/DX2                !
 ! D16   D(6,3,4,5)            -74.4339         estimate D2E/DX2                !
 ! D17   D(6,3,4,13)           160.6555         estimate D2E/DX2                !
 ! D18   D(6,3,4,14)            44.147          estimate D2E/DX2                !
 ! D19   D(8,3,4,5)            165.0138         estimate D2E/DX2                !
 ! D20   D(8,3,4,13)            40.1031         estimate D2E/DX2                !
 ! D21   D(8,3,4,14)           -76.4054         estimate D2E/DX2                !
 ! D22   D(2,3,6,7)             49.5192         estimate D2E/DX2                !
 ! D23   D(2,3,6,16)           -68.8245         estimate D2E/DX2                !
 ! D24   D(2,3,6,17)           174.8926         estimate D2E/DX2                !
 ! D25   D(4,3,6,7)            168.9019         estimate D2E/DX2                !
 ! D26   D(4,3,6,16)            50.5582         estimate D2E/DX2                !
 ! D27   D(4,3,6,17)           -65.7247         estimate D2E/DX2                !
 ! D28   D(8,3,6,7)            -71.4941         estimate D2E/DX2                !
 ! D29   D(8,3,6,16)           170.1622         estimate D2E/DX2                !
 ! D30   D(8,3,6,17)            53.8793         estimate D2E/DX2                !
 ! D31   D(2,3,8,9)             60.8511         estimate D2E/DX2                !
 ! D32   D(2,3,8,19)           -63.1328         estimate D2E/DX2                !
 ! D33   D(2,3,8,20)          -179.2386         estimate D2E/DX2                !
 ! D34   D(4,3,8,9)            -60.2369         estimate D2E/DX2                !
 ! D35   D(4,3,8,19)           175.7792         estimate D2E/DX2                !
 ! D36   D(4,3,8,20)            59.6734         estimate D2E/DX2                !
 ! D37   D(6,3,8,9)           -179.678          estimate D2E/DX2                !
 ! D38   D(6,3,8,19)            56.3381         estimate D2E/DX2                !
 ! D39   D(6,3,8,20)           -59.7677         estimate D2E/DX2                !
 ! D40   D(3,4,5,15)           -78.3619         estimate D2E/DX2                !
 ! D41   D(13,4,5,15)           45.2189         estimate D2E/DX2                !
 ! D42   D(14,4,5,15)          161.8078         estimate D2E/DX2                !
 ! D43   D(3,6,7,18)            71.9151         estimate D2E/DX2                !
 ! D44   D(16,6,7,18)         -168.5634         estimate D2E/DX2                !
 ! D45   D(17,6,7,18)          -52.2282         estimate D2E/DX2                !
 ! D46   D(3,8,9,21)           -34.0399         estimate D2E/DX2                !
 ! D47   D(19,8,9,21)           88.8308         estimate D2E/DX2                !
 ! D48   D(20,8,9,21)         -155.0397         estimate D2E/DX2                !
 --------------------------------------------------------------------------------
 Number of steps in this run=    112 maximum allowed number of steps=    126.
 GradGradGradGradGradGradGradGradGradGradGradGradGradGradGradGradGradGrad

                    Distance matrix (angstroms):
                    1          2          3          4          5
     1  O    0.000000
     2  C    1.424251   0.000000
     3  C    2.405971   1.531133   0.000000
     4  C    2.798354   2.520046   1.544168   0.000000
     5  O    3.038593   2.819457   2.465916   1.404605   0.000000
     6  C    3.731450   2.482527   1.538125   2.505101   3.084682
     7  O    4.229158   2.840325   2.478118   3.782182   4.285637
     8  C    2.990436   2.523582   1.539506   2.510448   3.766032
     9  O    2.759342   2.986625   2.467743   2.957514   4.158057
    10  H    0.966134   1.968399   3.252366   3.720706   3.764450
    11  H    2.091367   1.104972   2.168416   3.477930   3.894273
    12  H    2.083727   1.105916   2.166798   2.834160   2.602457
    13  H    2.689968   2.933605   2.171715   1.103884   2.080506
    14  H    3.879145   3.451151   2.169495   1.104409   2.020683
    15  H    2.485835   2.639145   2.767012   1.929055   0.967262
    16  H    3.988452   2.769530   2.155566   2.637471   2.690155
    17  H    4.558195   3.448608   2.169996   2.777455   3.559689
    18  H    4.522779   3.246871   2.753931   4.156936   4.901120
    19  H    3.448558   2.777953   2.169086   3.474014   4.607008
    20  H    3.969140   3.478024   2.170601   2.732691   4.099628
    21  H    1.915046   2.487880   2.469297   2.938760   3.890661
                    6          7          8          9         10
     6  C    0.000000
     7  O    1.407281   0.000000
     8  C    2.529146   3.103170   0.000000
     9  O    3.796245   4.383995   1.399065   0.000000
    10  H    4.438707   4.727323   3.807347   3.514133   0.000000
    11  H    2.787731   2.592544   2.699658   3.229299   2.311234
    12  H    2.619530   2.956459   3.475374   4.037378   2.380355
    13  H    3.439707   4.617136   2.583066   2.477164   3.621454
    14  H    2.601076   3.989216   2.875287   3.507323   4.809969
    15  H    3.647921   4.685751   3.997084   4.140046   3.080224
    16  H    1.101965   2.015504   3.467469   4.602801   4.627075
    17  H    1.110149   2.085225   2.710163   4.030698   5.353952
    18  H    1.951806   0.965725   2.862657   4.155434   5.038480
    19  H    2.725618   2.756188   1.113873   2.073147   4.084352
    20  H    2.759236   3.490967   1.106375   2.024033   4.841226
    21  H    3.936570   4.480016   1.934551   0.972906   2.598301
                   11         12         13         14         15
    11  H    0.000000
    12  H    1.784327   0.000000
    13  H    3.856144   3.463746   0.000000
    14  H    4.302701   3.708301   1.776028   0.000000
    15  H    3.735781   2.411274   2.230612   2.805391   0.000000
    16  H    3.263175   2.457051   3.709937   2.727655   3.318337
    17  H    3.758373   3.677627   3.652911   2.425151   4.282026
    18  H    2.816868   3.628622   4.850269   4.309326   5.288256
    19  H    2.492112   3.725176   3.654446   3.830471   4.800207
    20  H    3.721393   4.308219   2.820226   2.659839   4.524844
    21  H    2.796734   3.525260   2.433232   3.743678   3.661335
                   16         17         18         19         20
    16  H    0.000000
    17  H    1.780161   0.000000
    18  H    2.824625   2.297629   0.000000
    19  H    3.766330   2.982624   2.247110   0.000000
    20  H    3.707403   2.473310   3.169678   1.782660   0.000000
    21  H    4.599651   4.402603   4.397553   2.505846   2.802086
                   21
    21  H    0.000000
 Framework group  C1[X(C5H12O4)]
 Deg. of freedom    57
                         Standard orientation:                         
 ---------------------------------------------------------------------
 Center     Atomic      Atomic             Coordinates (Angstroms)
 Number     Number       Type             X           Y           Z
 ---------------------------------------------------------------------
      1          8           0       -1.595663   -0.136884    1.345371
      2          6           0       -0.190337    0.079421    1.263139
      3          6           0        0.238734    0.006465   -0.204834
      4          6           0       -0.652479    0.929877   -1.063614
      5          8           0       -0.881496    2.186123   -0.478539
      6          6           0        1.693454    0.497159   -0.298837
      7          8           0        2.571470   -0.100064    0.624663
      8          6           0        0.120301   -1.435421   -0.731159
      9          8           0       -1.177482   -1.956159   -0.686705
     10          1           0       -1.858000   -0.189280    2.273729
     11          1           0        0.360612   -0.678330    1.848999
     12          1           0        0.068661    1.073182    1.673517
     13          1           0       -1.599626    0.409414   -1.288537
     14          1           0       -0.148064    1.116630   -2.028191
     15          1           0       -1.560070    2.069497    0.200822
     16          1           0        1.709230    1.577974   -0.084555
     17          1           0        2.052633    0.364398   -1.340852
     18          1           0        2.731180   -1.016554    0.365503
     19          1           0        0.823082   -2.081895   -0.157677
     20          1           0        0.448324   -1.464277   -1.787395
     21          1           0       -1.620633   -1.589897    0.098161
 ---------------------------------------------------------------------
 Rotational constants (GHZ):           1.6528386           1.4091974           1.1347746
   150 basis functions,   273 primitive gaussians,   159 cartesian basis functions
    37 alpha electrons       36 beta electrons
       nuclear repulsion energy       531.0804571258 Hartrees.
 NAtoms=   21 NActive=   21 NUniq=   21 SFac= 1.00D+00 NAtFMM=   60 NAOKFM=F Big=F
 Nuclear repulsion after empirical dispersion term =      531.0652455272 Hartrees.
   1 Symmetry operations used in ECPInt.
 ECPInt:  NShTT=    3081 NPrTT=   12399 LenC2=    3050 LenP2D=    9712.
 LDataN:  DoStor=T MaxTD1= 4 Len=   56
 ExpMin= 1.22D-01 ExpMax= 2.27D+03 ExpMxC= 3.41D+02 IAcc=3 IRadAn=         5 AccDes= 0.00D+00
 Harris functional with IExCor= 4639 and IRadAn=       5 diagonalized for initial guess.
 HarFok:  IExCor= 4639 AccDes= 0.00D+00 IRadAn=         5 IDoV= 1 UseB2=F ITyADJ=14
 ICtDFT=  3500011 ScaDFX=  1.000000  1.000000  1.000000  1.000000
 FoFCou: FMM=F IPFlag=           0 FMFlag=      100000 FMFlg1=           0
         NFxFlg=           0 DoJE=T BraDBF=F KetDBF=T FulRan=T
         wScrn=  0.000000 ICntrl=       500 IOpCl=  0 I1Cent=   200000004 NGrid=           0
         NMat0=    1 NMatS0=      1 NMatT0=    0 NMatD0=    1 NMtDS0=    0 NMtDT0=    0
 Petite list used in FoFCou.
 Initial guess <Sx>= 0.0000 <Sy>= 0.0000 <Sz>= 0.5000 <S**2>= 0.7500 S= 0.5000
     Minimum is close to point  3 DX=  3.51D-02 DF= -5.88D-04 DXR=  6.55D-02 DFR=  4.29D-03 which will be used.
     Minimum is close to point  3 DX=  1.08D-02 DF= -2.51D-06 DXR=  1.34D-02 DFR=  1.78D-04 which will be used.
     Accept linear search using points  1 and  2.
     Accept linear search using points  2 and  3.
     Minimum is close to point  3 DX= -8.92D-02 DF= -1.42D-06 DXR=  8.03D-02 DFR=  1.93D-03 which will be used.
     Accept linear search using points  1 and  2.
     Accept linear search using points  1 and  2.
     Accept linear search using points  1 and  2.
     Minimum is close to point  2 DX= -6.63D-03 DF= -2.26D-11 DXR=  6.68D-03 DFR=  4.47D-05 which will be used.
 SCF Done:  E(UwB97XD) =  -497.703579464     a.u. after   10 cycles
            Convg  =    0.3860D-07                    92 Fock formations.
              S**2 =  0.7555                  -V/T =  2.0079
 <Sx>= 0.0000 <Sy>= 0.0000 <Sz>= 0.5000 <S**2>= 0.7555 S= 0.5027
 <L.S>=  0.00000000000    
 Annihilation of the first spin contaminant:
 S**2 before annihilation     0.7555,   after     0.7500

 **********************************************************************

            Population analysis using the SCF Density.

 **********************************************************************

 Orbital symmetries:
 Alpha Orbitals:
       Occupied  (A) (A) (A) (A) (A) (A) (A) (A) (A) (A) (A) (A)
                 (A) (A) (A) (A) (A) (A) (A) (A) (A) (A) (A) (A)
                 (A) (A) (A) (A) (A) (A) (A) (A) (A) (A) (A) (A)
                 (A)
       Virtual   (A) (A) (A) (A) (A) (A) (A) (A) (A) (A) (A) (A)
                 (A) (A) (A) (A) (A) (A) (A) (A) (A) (A) (A) (A)
                 (A) (A) (A) (A) (A) (A) (A) (A) (A) (A) (A) (A)
                 (A) (A) (A) (A) (A) (A) (A) (A) (A) (A) (A) (A)
                 (A) (A) (A) (A) (A) (A) (A) (A) (A) (A) (A) (A)
                 (A) (A) (A) (A) (A) (A) (A) (A) (A) (A) (A) (A)
                 (A) (A) (A) (A) (A) (A) (A) (A) (A) (A) (A) (A)
                 (A) (A) (A) (A) (A) (A) (A) (A) (A) (A) (A) (A)
                 (A) (A) (A) (A) (A) (A) (A) (A) (A) (A) (A) (A)
                 (A) (A) (A) (A) (A)
 Beta  Orbitals:
       Occupied  (A) (A) (A) (A) (A) (A) (A) (A) (A) (A) (A) (A)
                 (A) (A) (A) (A) (A) (A) (A) (A) (A) (A) (A) (A)
                 (A) (A) (A) (A) (A) (A) (A) (A) (A) (A) (A) (A)
       Virtual   (A) (A) (A) (A) (A) (A) (A) (A) (A) (A) (A) (A)
                 (A) (A) (A) (A) (A) (A) (A) (A) (A) (A) (A) (A)
                 (A) (A) (A) (A) (A) (A) (A) (A) (A) (A) (A) (A)
                 (A) (A) (A) (A) (A) (A) (A) (A) (A) (A) (A) (A)
                 (A) (A) (A) (A) (A) (A) (A) (A) (A) (A) (A) (A)
                 (A) (A) (A) (A) (A) (A) (A) (A) (A) (A) (A) (A)
                 (A) (A) (A) (A) (A) (A) (A) (A) (A) (A) (A) (A)
                 (A) (A) (A) (A) (A) (A) (A) (A) (A) (A) (A) (A)
                 (A) (A) (A) (A) (A) (A) (A) (A) (A) (A) (A) (A)
                 (A) (A) (A) (A) (A) (A)
 The electronic state is 2-A.
 Alpha  occ. eigenvalues --  -19.51325 -19.50531 -19.45761 -19.43063 -10.56105
 Alpha  occ. eigenvalues --  -10.55929 -10.53162 -10.52949 -10.52091  -1.36568
 Alpha  occ. eigenvalues --   -1.35886  -1.31129  -1.29333  -1.11865  -0.99046
 Alpha  occ. eigenvalues --   -0.97989  -0.95119  -0.87634  -0.84084  -0.81786
 Alpha  occ. eigenvalues --   -0.79973  -0.78904  -0.76597  -0.74733  -0.73526
 Alpha  occ. eigenvalues --   -0.72462  -0.69979  -0.69192  -0.66906  -0.66085
 Alpha  occ. eigenvalues --   -0.63746  -0.62775  -0.61336  -0.59040  -0.57770
 Alpha  occ. eigenvalues --   -0.55903  -0.53647
 Alpha virt. eigenvalues --   -0.05766  -0.04067  -0.02008  -0.00992   0.00786
 Alpha virt. eigenvalues --    0.02059   0.03468   0.04696   0.05036   0.05347
 Alpha virt. eigenvalues --    0.06834   0.07609   0.09025   0.10768   0.11121
 Alpha virt. eigenvalues --    0.12724   0.13836   0.14305   0.15071   0.19192
 Alpha virt. eigenvalues --    0.34040   0.36486   0.37483   0.38914   0.39462
 Alpha virt. eigenvalues --    0.41717   0.42319   0.45407   0.46201   0.47934
 Alpha virt. eigenvalues --    0.50525   0.51731   0.52984   0.53964   0.55835
 Alpha virt. eigenvalues --    0.56229   0.58037   0.58472   0.59011   0.60072
 Alpha virt. eigenvalues --    0.60627   0.62114   0.63217   0.63907   0.65256
 Alpha virt. eigenvalues --    0.66797   0.70746   0.72920   0.83945   0.86242
 Alpha virt. eigenvalues --    0.87826   0.89822   0.94851   0.95917   0.97548
 Alpha virt. eigenvalues --    0.98067   0.98842   1.04106   1.06095   1.09863
 Alpha virt. eigenvalues --    1.11178   1.14879   1.21066   1.27190   1.34574
 Alpha virt. eigenvalues --    1.37792   1.39366   1.42849   1.49417   1.52167
 Alpha virt. eigenvalues --    1.55147   1.61757   1.64614   1.67007   1.69354
 Alpha virt. eigenvalues --    1.70874   1.81337   1.82815   1.84683   1.88393
 Alpha virt. eigenvalues --    1.89784   1.95542   1.97774   1.99806   2.00599
 Alpha virt. eigenvalues --    2.04918   2.05902   2.08449   2.27579   2.31489
 Alpha virt. eigenvalues --    2.43155   2.45004   2.47088   2.48595   2.53333
 Alpha virt. eigenvalues --    2.53838   2.55617   2.69381   2.71884   2.73738
 Alpha virt. eigenvalues --    2.74302   2.76940   2.78767   2.83663   2.85532
 Alpha virt. eigenvalues --    2.88894   2.91247   2.92842   2.95464   3.22999
 Alpha virt. eigenvalues --    3.26163   3.27279   3.30896
  Beta  occ. eigenvalues --  -19.50568 -19.49735 -19.45764 -19.42951 -10.55975
  Beta  occ. eigenvalues --  -10.55895 -10.52970 -10.52955 -10.52091  -1.34889
  Beta  occ. eigenvalues --   -1.34043  -1.30969  -1.29062  -1.11017  -0.97990
  Beta  occ. eigenvalues --   -0.97579  -0.94879  -0.87071  -0.83303  -0.81090
  Beta  occ. eigenvalues --   -0.79162  -0.78663  -0.75092  -0.73954  -0.72258
  Beta  occ. eigenvalues --   -0.71511  -0.69496  -0.68199  -0.66244  -0.65210
  Beta  occ. eigenvalues --   -0.62676  -0.60793  -0.58607  -0.55803  -0.54406
  Beta  occ. eigenvalues --   -0.52308
  Beta virt. eigenvalues --   -0.36727  -0.05612  -0.03980  -0.01647  -0.00882
  Beta virt. eigenvalues --    0.01013   0.02290   0.03674   0.04961   0.05205
  Beta virt. eigenvalues --    0.05602   0.07083   0.07835   0.09339   0.11001
  Beta virt. eigenvalues --    0.11524   0.13093   0.14332   0.14661   0.15300
  Beta virt. eigenvalues --    0.19498   0.34382   0.36727   0.37817   0.39276
  Beta virt. eigenvalues --    0.39766   0.41959   0.42487   0.45793   0.46538
  Beta virt. eigenvalues --    0.48229   0.50724   0.51999   0.53249   0.54485
  Beta virt. eigenvalues --    0.56203   0.56598   0.58372   0.58670   0.59428
  Beta virt. eigenvalues --    0.60451   0.61055   0.62262   0.63379   0.64192
  Beta virt. eigenvalues --    0.65421   0.66967   0.71161   0.73107   0.84269
  Beta virt. eigenvalues --    0.86732   0.88132   0.90459   0.95244   0.96519
  Beta virt. eigenvalues --    0.98054   0.98576   1.00176   1.05006   1.06502
  Beta virt. eigenvalues --    1.10370   1.11525   1.15367   1.21437   1.27458
  Beta virt. eigenvalues --    1.35039   1.38045   1.39718   1.43306   1.49705
  Beta virt. eigenvalues --    1.52588   1.55557   1.62126   1.65004   1.67405
  Beta virt. eigenvalues --    1.69651   1.71421   1.81821   1.83221   1.85020
  Beta virt. eigenvalues --    1.88594   1.90065   1.95969   1.97950   2.00132
  Beta virt. eigenvalues --    2.00770   2.05272   2.06319   2.08741   2.28107
  Beta virt. eigenvalues --    2.31906   2.44612   2.45995   2.48632   2.50034
  Beta virt. eigenvalues --    2.53762   2.54835   2.56029   2.70346   2.73228
  Beta virt. eigenvalues --    2.74006   2.74743   2.76991   2.80276   2.85605
  Beta virt. eigenvalues --    2.87304   2.89268   2.92587   2.93112   2.95791
  Beta virt. eigenvalues --    3.23824   3.27011   3.27333   3.31106
          Condensed to atoms (all electrons):
          Atomic-Atomic Spin Densities.
 Mulliken charges and spin densities:
               1          2
     1  O   -0.519267   0.000092
     2  C    0.013990  -0.002099
     3  C   -0.454621   0.111915
     4  C    0.055662   0.071502
     5  O   -0.311147   0.313318
     6  C    0.052990   0.000604
     7  O   -0.433786   0.047543
     8  C    0.033635   0.004852
     9  O   -0.318851   0.327705
    10  H    0.372513  -0.000115
    11  H    0.161402   0.004139
    12  H    0.161998  -0.000183
    13  H    0.189378   0.024546
    14  H    0.185621  -0.001776
    15  H    0.379085  -0.009481
    16  H    0.172705   0.003448
    17  H    0.152194   0.004575
    18  H    0.338527  -0.002009
    19  H    0.208084   0.099516
    20  H    0.186248   0.011294
    21  H    0.373642  -0.009385
 Sum of Mulliken charges =   1.00000   1.00000
 Mulliken charges and spin densities with hydrogens summed into heavy atoms:
               1          2
     1  O   -0.146754  -0.000023
     2  C    0.337391   0.001856
     3  C   -0.454621   0.111915
     4  C    0.430661   0.094272
     5  O    0.067938   0.303837
     6  C    0.377889   0.008627
     7  O   -0.095259   0.045534
     8  C    0.427966   0.115662
     9  O    0.054790   0.318320
 Electronic spatial extent (au):  <R**2>=           1210.9416
 Charge=              1.0000 electrons
 Dipole moment (field-independent basis, Debye):
    X=             -1.3673    Y=             -1.1312    Z=              0.4845  Tot=              1.8395
                          Isotropic Fermi Contact Couplings
        Atom                 a.u.       MegaHertz       Gauss      10(-4) cm-1
     1  O(17)             -0.00311       1.88456       0.67246       0.62862
     2  C(13)             -0.00725      -8.15202      -2.90884      -2.71922
     3  C(13)             -0.00790      -8.88524      -3.17048      -2.96380
     4  C(13)             -0.00614      -6.89938      -2.46187      -2.30139
     5  O(17)              0.11718     -71.03634     -25.34753     -23.69517
     6  C(13)             -0.00576      -6.47557      -2.31064      -2.16002
     7  O(17)              0.01669     -10.11601      -3.60964      -3.37434
     8  C(13)             -0.02043     -22.96600      -8.19484      -7.66063
     9  O(17)              0.12357     -74.90599     -26.72832     -24.98595
    10  H(1)              -0.00009      -0.41198      -0.14701      -0.13742
    11  H(1)               0.00136       6.08038       2.16963       2.02820
    12  H(1)              -0.00008      -0.35439      -0.12646      -0.11821
    13  H(1)               0.01983      88.61744      31.62091      29.55960
    14  H(1)              -0.00055      -2.46043      -0.87794      -0.82071
    15  H(1)              -0.00425     -19.00345      -6.78090      -6.33887
    16  H(1)               0.00096       4.28261       1.52814       1.42853
    17  H(1)               0.00270      12.05348       4.30098       4.02061
    18  H(1)              -0.00052      -2.31291      -0.82531      -0.77150
    19  H(1)               0.04469     199.74367      71.27351      66.62732
    20  H(1)               0.00577      25.77797       9.19822       8.59860
    21  H(1)              -0.00436     -19.47312      -6.94849      -6.49553
 --------------------------------------------------------
       Center         ----  Spin Dipole Couplings  ----
                      3XX-RR        3YY-RR        3ZZ-RR
 --------------------------------------------------------
     1   Atom        0.002861     -0.004133      0.001271
     2   Atom       -0.004726     -0.001022      0.005749
     3   Atom        0.007120      0.090693     -0.097813
     4   Atom        0.070849     -0.066880     -0.003969
     5   Atom        0.357469     -0.509194      0.151725
     6   Atom        0.015436     -0.009738     -0.005698
     7   Atom        0.165819     -0.098222     -0.067597
     8   Atom       -0.030015      0.066248     -0.036233
     9   Atom       -0.387409      0.484740     -0.097332
    10   Atom       -0.001325     -0.000964      0.002289
    11   Atom       -0.003102     -0.001530      0.004632
    12   Atom       -0.004234     -0.001596      0.005829
    13   Atom        0.007090      0.009261     -0.016351
    14   Atom       -0.002237     -0.006640      0.008877
    15   Atom        0.017362     -0.035878      0.018516
    16   Atom        0.005149      0.000666     -0.005816
    17   Atom        0.003227     -0.002762     -0.000466
    18   Atom        0.000860      0.007253     -0.008113
    19   Atom        0.007987     -0.004496     -0.003491
    20   Atom       -0.003169     -0.004153      0.007322
    21   Atom       -0.017202     -0.013685      0.030888
 --------------------------------------------------------
                        XY            XZ            YZ
 --------------------------------------------------------
     1   Atom       -0.001261     -0.004495     -0.001095
     2   Atom       -0.000757      0.000817      0.000363
     3   Atom       -0.160303      0.052355     -0.069597
     4   Atom       -0.050102      0.121800     -0.028066
     5   Atom       -0.347802      0.870293     -0.301900
     6   Atom        0.001295     -0.009626     -0.001345
     7   Atom        0.011372     -0.091130     -0.000709
     8   Atom       -0.024673      0.013192     -0.052732
     9   Atom       -0.543956      0.377872     -0.801267
    10   Atom       -0.000006     -0.002141      0.000069
    11   Atom       -0.000121      0.000928      0.000029
    12   Atom       -0.001603      0.002452     -0.000092
    13   Atom        0.017754      0.002084      0.000469
    14   Atom        0.000854     -0.009380     -0.003207
    15   Atom        0.002131     -0.039115     -0.010930
    16   Atom        0.002278      0.001956     -0.000134
    17   Atom        0.000581     -0.003156     -0.000503
    18   Atom        0.000547      0.001089      0.003428
    19   Atom       -0.009830      0.013503     -0.007394
    20   Atom       -0.001499     -0.008323      0.005962
    21   Atom       -0.021253     -0.034209      0.019238
 --------------------------------------------------------


 ---------------------------------------------------------------------------------
              Anisotropic Spin Dipole Couplings in Principal Axis System
 ---------------------------------------------------------------------------------

       Atom             a.u.   MegaHertz   Gauss  10(-4) cm-1        Axes

              Baa    -0.0052     0.373     0.133     0.125  0.3529  0.8499  0.3913
     1 O(17)  Bbb    -0.0015     0.107     0.038     0.036  0.5332 -0.5263  0.6623
              Bcc     0.0066    -0.480    -0.171    -0.160  0.7689 -0.0251 -0.6389
 
              Baa    -0.0049    -0.664    -0.237    -0.221  0.9772  0.1960 -0.0813
     2 C(13)  Bbb    -0.0009    -0.118    -0.042    -0.039 -0.1989  0.9796 -0.0292
              Bcc     0.0058     0.782     0.279     0.261  0.0739  0.0447  0.9963
 
              Baa    -0.1207   -16.203    -5.782    -5.405  0.0604  0.3531  0.9336
     3 C(13)  Bbb    -0.1165   -15.627    -5.576    -5.213  0.8043  0.5367 -0.2550
              Bcc     0.2372    31.830    11.358    10.617 -0.5912  0.7663 -0.2516
 
              Baa    -0.0969   -13.009    -4.642    -4.339 -0.6150 -0.3798  0.6910
     4 C(13)  Bbb    -0.0774   -10.383    -3.705    -3.464 -0.0588  0.8960  0.4401
              Bcc     0.1743    23.393     8.347     7.803  0.7863 -0.2301  0.5734
 
              Baa    -0.6322    45.749    16.324    15.260  0.4649  0.8664 -0.1824
     5 O(17)  Bbb    -0.6192    44.802    15.987    14.944 -0.5102  0.4305  0.7446
              Bcc     1.2514   -90.551   -32.311   -30.205  0.7236 -0.2531  0.6421
 
              Baa    -0.0104    -1.401    -0.500    -0.467  0.1784  0.7904  0.5860
     6 C(13)  Bbb    -0.0088    -1.183    -0.422    -0.395  0.3203 -0.6098  0.7249
              Bcc     0.0193     2.585     0.922     0.862  0.9304  0.0584 -0.3620
 
              Baa    -0.1018     7.368     2.629     2.458 -0.2602  0.6871 -0.6784
     7 O(17)  Bbb    -0.0958     6.929     2.473     2.311  0.1980  0.7257  0.6590
              Bcc     0.1976   -14.298    -5.102    -4.769  0.9450  0.0371 -0.3249
 
              Baa    -0.0588    -7.890    -2.815    -2.632 -0.1077  0.3682  0.9235
     8 C(13)  Bbb    -0.0360    -4.826    -1.722    -1.610  0.9700  0.2426  0.0164
              Bcc     0.0948    12.716     4.537     4.241 -0.2180  0.8975 -0.3833
 
              Baa    -0.6593    47.705    17.022    15.913  0.1798  0.6203  0.7635
     9 O(17)  Bbb    -0.6461    46.749    16.681    15.594  0.9137  0.1822 -0.3632
              Bcc     1.3053   -94.453   -33.703   -31.506 -0.3644  0.7629 -0.5340
 
              Baa    -0.0023    -1.238    -0.442    -0.413  0.9067 -0.0176  0.4215
    10 H(1)   Bbb    -0.0010    -0.515    -0.184    -0.172  0.0224  0.9997 -0.0064
              Bcc     0.0033     1.752     0.625     0.585 -0.4212  0.0152  0.9068
 
              Baa    -0.0032    -1.718    -0.613    -0.573  0.9904  0.0728 -0.1173
    11 H(1)   Bbb    -0.0015    -0.812    -0.290    -0.271 -0.0725  0.9973  0.0062
              Bcc     0.0047     2.530     0.903     0.844  0.1174  0.0024  0.9931
 
              Baa    -0.0054    -2.893    -1.032    -0.965  0.9064  0.3750 -0.1944
    12 H(1)   Bbb    -0.0010    -0.532    -0.190    -0.178 -0.3529  0.9252  0.1392
              Bcc     0.0064     3.426     1.222     1.143  0.2321 -0.0576  0.9710
 
              Baa    -0.0166    -8.872    -3.166    -2.960 -0.1503  0.0852  0.9850
    13 H(1)   Bbb    -0.0094    -5.019    -1.791    -1.674  0.7123 -0.6816  0.1677
              Bcc     0.0260    13.892     4.957     4.634  0.6856  0.7268  0.0418
 
              Baa    -0.0082    -4.386    -1.565    -1.463  0.6486  0.5999  0.4684
    14 H(1)   Bbb    -0.0065    -3.460    -1.235    -1.154 -0.5868  0.7861 -0.1942
              Bcc     0.0147     7.846     2.800     2.617 -0.4847 -0.1489  0.8619
 
              Baa    -0.0389   -20.761    -7.408    -6.925  0.1687  0.9408  0.2940
    15 H(1)   Bbb    -0.0191   -10.174    -3.630    -3.394  0.7010 -0.3242  0.6352
              Bcc     0.0580    30.936    11.039    10.319 -0.6929 -0.0989  0.7142
 
              Baa    -0.0062    -3.306    -1.180    -1.103 -0.1850  0.0806  0.9794
    16 H(1)   Bbb    -0.0002    -0.086    -0.031    -0.029 -0.3456  0.9276 -0.1416
              Bcc     0.0064     3.392     1.210     1.132  0.9199  0.3647  0.1438
 
              Baa    -0.0029    -1.531    -0.546    -0.511  0.0393  0.9665  0.2538
    17 H(1)   Bbb    -0.0022    -1.195    -0.426    -0.399  0.5045 -0.2384  0.8299
              Bcc     0.0051     2.726     0.973     0.909  0.8625  0.0955 -0.4969
 
              Baa    -0.0089    -4.768    -1.701    -1.590 -0.0970 -0.2031  0.9743
    18 H(1)   Bbb     0.0009     0.465     0.166     0.155  0.9896 -0.1239  0.0727
              Bcc     0.0081     4.303     1.535     1.435  0.1059  0.9713  0.2130
 
              Baa    -0.0126    -6.727    -2.400    -2.244 -0.4502  0.2387  0.8604
    19 H(1)   Bbb    -0.0099    -5.281    -1.884    -1.762  0.4779  0.8784  0.0064
              Bcc     0.0225    12.008     4.285     4.005  0.7542 -0.4141  0.5095
 
              Baa    -0.0086    -4.614    -1.646    -1.539  0.6867 -0.4870  0.5397
    20 H(1)   Bbb    -0.0052    -2.795    -0.997    -0.932  0.5798  0.8148 -0.0026
              Bcc     0.0139     7.408     2.644     2.471 -0.4385  0.3147  0.8419
 
              Baa    -0.0404   -21.530    -7.682    -7.182  0.8388  0.4693  0.2760
    21 H(1)   Bbb    -0.0184    -9.827    -3.506    -3.278 -0.2842  0.8098 -0.5132
              Bcc     0.0588    31.357    11.189    10.460 -0.4644  0.3520  0.8127
 

 ---------------------------------------------------------------------------------

   1 Symmetry operations used in ECPInt.
 ECPInt:  NShTT=    3081 NPrTT=   12399 LenC2=    3050 LenP2D=    9712.
 LDataN:  DoStor=T MaxTD1= 5 Len=  102
 Calling FoFJK, ICntrl=      2127 FMM=F ISym2X=0 I1Cent= 0 IOpClX= 1 NMat=1 NMatS=1 NMatT=0.

 GradGradGradGradGradGradGradGradGradGradGradGradGradGradGradGradGradGrad
 FormGI is forming the generalized inverse of G from B-inverse, IUseBI=4.
 Internal  Forces:  Max     0.031957779 RMS     0.006169801
 Step number   1 out of a maximum of  112
 All quantities printed in internal units (Hartrees-Bohrs-Radians)
 Mixed Optimization -- RFO/linear search
 Second derivative matrix not updated -- first step.
 ITU=  0
     Eigenvalues ---    0.00230   0.00243   0.00262   0.00354   0.01371
     Eigenvalues ---    0.01595   0.01631   0.01704   0.04561   0.04602
     Eigenvalues ---    0.04610   0.04658   0.04715   0.04990   0.05193
     Eigenvalues ---    0.05846   0.05852   0.05884   0.05935   0.11171
     Eigenvalues ---    0.11759   0.11859   0.11861   0.13701   0.14061
     Eigenvalues ---    0.14118   0.14131   0.14202   0.14598   0.16000
     Eigenvalues ---    0.16000   0.16000   0.16000   0.21988   0.22050
     Eigenvalues ---    0.22053   0.22076   0.28153   0.28563   0.28686
     Eigenvalues ---    0.29319   0.32193   0.32584   0.32987   0.33036
     Eigenvalues ---    0.33138   0.33199   0.33256   0.33466   0.41827
     Eigenvalues ---    0.44435   0.44866   0.45776   0.52788   0.53940
     Eigenvalues ---    0.54175   0.54260
 Linear search not attempted -- first point.
 Iteration  1 RMS(Cart)=  0.08695071 RMS(Int)=  0.00325205
 Iteration  2 RMS(Cart)=  0.00464017 RMS(Int)=  0.00086560
 Iteration  3 RMS(Cart)=  0.00000895 RMS(Int)=  0.00086558
 Iteration  4 RMS(Cart)=  0.00000002 RMS(Int)=  0.00086558
 Variable       Old X    -DE/DX   Delta X   Delta X   Delta X     New X
                                 (Linear)    (Quad)   (Total)
    R1        2.69144  -0.00255   0.00000  -0.00583  -0.00583   2.68562
    R2        1.82573   0.00336   0.00000   0.00598   0.00598   1.83171
    R3        2.89342   0.00079   0.00000   0.00254   0.00254   2.89596
    R4        2.08809  -0.00124   0.00000  -0.00355  -0.00355   2.08454
    R5        2.08988  -0.00076   0.00000  -0.00218  -0.00218   2.08770
    R6        2.91805   0.01774   0.00000   0.05898   0.05898   2.97703
    R7        2.90663   0.00817   0.00000   0.02670   0.02670   2.93333
    R8        2.90925  -0.00648   0.00000  -0.02125  -0.02125   2.88800
    R9        2.65432  -0.03196   0.00000  -0.06830  -0.06830   2.58602
   R10        2.08604   0.00853   0.00000   0.02425   0.02425   2.11029
   R11        2.08703  -0.00152   0.00000  -0.00433  -0.00433   2.08270
   R12        1.82786   0.01184   0.00000   0.02119   0.02119   1.84905
   R13        2.65937  -0.01119   0.00000  -0.02415  -0.02415   2.63523
   R14        2.08241  -0.00086   0.00000  -0.00243  -0.00243   2.07998
   R15        2.09788  -0.00004   0.00000  -0.00011  -0.00011   2.09777
   R16        1.82496   0.00263   0.00000   0.00469   0.00469   1.82964
   R17        2.64385  -0.01594   0.00000  -0.03341  -0.03341   2.61044
   R18        2.10491   0.00140   0.00000   0.00412   0.00412   2.10903
   R19        2.09075  -0.00034   0.00000  -0.00097  -0.00097   2.08978
   R20        1.83853   0.01714   0.00000   0.03133   0.03133   1.86986
    A1        1.90884   0.00452   0.00000   0.02522   0.02522   1.93406
    A2        1.90141  -0.01504   0.00000  -0.06480  -0.06479   1.83662
    A3        1.93609   0.00483   0.00000   0.01345   0.01281   1.94890
    A4        1.92424   0.00577   0.00000   0.03072   0.03093   1.95516
    A5        1.91339   0.00276   0.00000   0.00382   0.00356   1.91695
    A6        1.91023   0.00422   0.00000   0.02069   0.02102   1.93125
    A7        1.87832  -0.00221   0.00000  -0.00244  -0.00276   1.87557
    A8        1.92088   0.00377   0.00000   0.00626   0.00355   1.92443
    A9        1.88434  -0.00066   0.00000   0.04155   0.04068   1.92502
   A10        1.92927  -0.00040   0.00000  -0.00860  -0.01223   1.91704
   A11        1.89768   0.00094   0.00000   0.01107   0.01244   1.91012
   A12        1.90239  -0.01068   0.00000  -0.10948  -0.10942   1.79297
   A13        1.92907   0.00726   0.00000   0.06148   0.06102   1.99009
   A14        1.97935  -0.00524   0.00000  -0.03051  -0.03194   1.94741
   A15        1.90347  -0.00724   0.00000  -0.06427  -0.06572   1.83775
   A16        1.89996   0.00372   0.00000   0.03493   0.03554   1.93550
   A17        1.94621   0.00338   0.00000  -0.00836  -0.01181   1.93441
   A18        1.86192   0.00219   0.00000   0.02827   0.02845   1.89038
   A19        1.86884   0.00409   0.00000   0.04894   0.04969   1.91853
   A20        1.87455   0.00677   0.00000   0.03780   0.03780   1.91235
   A21        1.99828  -0.00522   0.00000  -0.02235  -0.02240   1.97589
   A22        1.89078   0.00121   0.00000   0.00046   0.00027   1.89105
   A23        1.90203   0.00172   0.00000   0.01207   0.01213   1.91416
   A24        1.85427   0.00051   0.00000  -0.00786  -0.00803   1.84625
   A25        1.94265   0.00266   0.00000   0.01820   0.01829   1.96094
   A26        1.87044  -0.00072   0.00000  -0.00038  -0.00038   1.87006
   A27        1.90691   0.00717   0.00000   0.04000   0.04000   1.94691
   A28        1.99226  -0.00523   0.00000  -0.02491  -0.02621   1.96605
   A29        1.89550  -0.00243   0.00000  -0.03263  -0.03397   1.86153
   A30        1.90499   0.00938   0.00000   0.07609   0.07615   1.98113
   A31        1.93144   0.00010   0.00000  -0.03272  -0.03467   1.89677
   A32        1.87093  -0.00038   0.00000   0.01400   0.01372   1.88465
   A33        1.86431  -0.00095   0.00000   0.00492   0.00550   1.86981
   A34        1.88392   0.00564   0.00000   0.03146   0.03146   1.91538
    D1        3.03356  -0.00087   0.00000  -0.01081  -0.01059   3.02297
    D2        0.92581   0.00245   0.00000   0.01809   0.01828   0.94408
    D3       -1.15311  -0.00158   0.00000  -0.00717  -0.00758  -1.16069
    D4        0.89192  -0.00363   0.00000  -0.03560  -0.03642   0.85550
    D5        2.96078  -0.00074   0.00000   0.00592   0.00629   2.96708
    D6       -1.21045   0.00750   0.00000   0.10240   0.10224  -1.10821
    D7        3.01354  -0.00544   0.00000  -0.05745  -0.05795   2.95559
    D8       -1.20078  -0.00256   0.00000  -0.01594  -0.01523  -1.21602
    D9        0.91117   0.00568   0.00000   0.08055   0.08071   0.99188
   D10       -1.21322  -0.00402   0.00000  -0.04597  -0.04651  -1.25973
   D11        0.85564  -0.00113   0.00000  -0.00445  -0.00379   0.85185
   D12        2.96759   0.00711   0.00000   0.09203   0.09216   3.05975
   D13        0.76153  -0.00045   0.00000  -0.01518  -0.01459   0.74694
   D14       -1.41857   0.00449   0.00000   0.06725   0.06573  -1.35284
   D15        2.83116   0.00155   0.00000   0.02498   0.02481   2.85597
   D16       -1.29912  -0.00239   0.00000  -0.07574  -0.07440  -1.37351
   D17        2.80397   0.00255   0.00000   0.00669   0.00592   2.80989
   D18        0.77051  -0.00039   0.00000  -0.03558  -0.03500   0.73551
   D19        2.88003  -0.00539   0.00000  -0.09170  -0.09076   2.78927
   D20        0.69993  -0.00045   0.00000  -0.00927  -0.01044   0.68949
   D21       -1.33353  -0.00339   0.00000  -0.05154  -0.05136  -1.38489
   D22        0.86427  -0.00190   0.00000  -0.03473  -0.03385   0.83042
   D23       -1.20121  -0.00014   0.00000  -0.01122  -0.01042  -1.21163
   D24        3.05245  -0.00088   0.00000  -0.01753  -0.01673   3.03573
   D25        2.94789   0.00277   0.00000   0.00275   0.00262   2.95052
   D26        0.88241   0.00452   0.00000   0.02626   0.02606   0.90846
   D27       -1.14711   0.00379   0.00000   0.01995   0.01975  -1.12736
   D28       -1.24781  -0.00537   0.00000  -0.08753  -0.08814  -1.33595
   D29        2.96989  -0.00361   0.00000  -0.06403  -0.06471   2.90518
   D30        0.94037  -0.00435   0.00000  -0.07034  -0.07102   0.86936
   D31        1.06205  -0.00493   0.00000  -0.10630  -0.10505   0.95700
   D32       -1.10188   0.00051   0.00000  -0.02092  -0.02059  -1.12247
   D33       -3.12830  -0.00213   0.00000  -0.05025  -0.04914   3.10574
   D34       -1.05133  -0.00246   0.00000  -0.03803  -0.03925  -1.09058
   D35        3.06793   0.00297   0.00000   0.04735   0.04521   3.11313
   D36        1.04150   0.00033   0.00000   0.01801   0.01666   1.05816
   D37       -3.13597  -0.00135   0.00000  -0.02058  -0.01956   3.12765
   D38        0.98328   0.00408   0.00000   0.06479   0.06490   1.04818
   D39       -1.04314   0.00144   0.00000   0.03546   0.03635  -1.00679
   D40       -1.36767   0.00515   0.00000   0.06735   0.06709  -1.30059
   D41        0.78922  -0.00582   0.00000  -0.04779  -0.04774   0.74148
   D42        2.82408   0.00218   0.00000   0.02316   0.02336   2.84744
   D43        1.25515   0.00240   0.00000   0.06325   0.06312   1.31828
   D44       -2.94199   0.00117   0.00000   0.04516   0.04528  -2.89671
   D45       -0.91155   0.00199   0.00000   0.04959   0.04960  -0.86196
   D46       -0.59411   0.00371   0.00000   0.02090   0.02027  -0.57384
   D47        1.55039  -0.00328   0.00000  -0.06607  -0.06539   1.48500
   D48       -2.70595  -0.00459   0.00000  -0.06952  -0.06957  -2.77552
         Item               Value     Threshold  Converged?
 Maximum Force            0.031958     0.000015     NO 
 RMS     Force            0.006170     0.000010     NO 
 Maximum Displacement     0.295686     0.000060     NO 
 RMS     Displacement     0.088192     0.000040     NO 
 GradGradGradGradGradGradGradGradGradGradGradGradGradGradGradGradGradGrad

                    Distance matrix (angstroms):
                    1          2          3          4          5
     1  O    0.000000
     2  C    1.421167   0.000000
     3  C    2.347869   1.532477   0.000000
     4  C    2.723156   2.549985   1.575379   0.000000
     5  O    2.925485   2.794668   2.437259   1.368463   0.000000
     6  C    3.729120   2.531440   1.552253   2.553271   3.125294
     7  O    4.224403   2.856212   2.461765   3.805907   4.295884
     8  C    2.839988   2.504732   1.528262   2.424543   3.638231
     9  O    2.485893   2.871217   2.422717   2.823405   3.927591
    10  H    0.969300   1.984490   3.220080   3.656655   3.666646
    11  H    2.096183   1.103094   2.170804   3.505554   3.876299
    12  H    2.101826   1.104765   2.182486   2.899499   2.638722
    13  H    2.515424   2.884551   2.158021   1.116718   2.051036
    14  H    3.804331   3.494770   2.221490   1.102119   2.008735
    15  H    2.359089   2.576565   2.730081   1.930568   0.978473
    16  H    4.011848   2.829873   2.167190   2.694623   2.773055
    17  H    4.531503   3.490857   2.191352   2.823330   3.609043
    18  H    4.549291   3.294575   2.789754   4.223931   4.939595
    19  H    3.293182   2.737457   2.135182   3.407146   4.505205
    20  H    3.829470   3.496508   2.215151   2.688382   4.032498
    21  H    1.618062   2.347907   2.441144   2.856912   3.674053
                    6          7          8          9         10
     6  C    0.000000
     7  O    1.394502   0.000000
     8  C    2.583920   3.190410   0.000000
     9  O    3.807564   4.415074   1.381385   0.000000
    10  H    4.486019   4.784423   3.676578   3.219614   0.000000
    11  H    2.850528   2.642339   2.719105   3.152970   2.345944
    12  H    2.694456   2.981322   3.472016   3.917669   2.425195
    13  H    3.461260   4.596322   2.402954   2.229421   3.431056
    14  H    2.672745   4.046046   2.833538   3.435698   4.748686
    15  H    3.673207   4.665541   3.856018   3.878977   2.944475
    16  H    1.100679   1.997764   3.497214   4.577086   4.707379
    17  H    1.110092   2.086731   2.766054   4.071511   5.371049
    18  H    1.968228   0.968205   3.029987   4.285612   5.113558
    19  H    2.791250   2.878707   1.116051   2.034991   3.951608
    20  H    2.875479   3.631543   1.105862   2.018512   4.712599
    21  H    3.942849   4.479834   1.952122   0.989485   2.259877
                   11         12         13         14         15
    11  H    0.000000
    12  H    1.780084   0.000000
    13  H    3.787407   3.461016   0.000000
    14  H    4.354447   3.789266   1.816736   0.000000
    15  H    3.670885   2.394140   2.214096   2.821846   0.000000
    16  H    3.336903   2.558849   3.756623   2.795102   3.384335
    17  H    3.810832   3.752897   3.689975   2.508037   4.321127
    18  H    2.882770   3.671684   4.870971   4.410048   5.298136
    19  H    2.484822   3.714983   3.474855   3.813592   4.664418
    20  H    3.762112   4.361064   2.684819   2.660637   4.445417
    21  H    2.686993   3.364458   2.267412   3.717607   3.395649
                   16         17         18         19         20
    16  H    0.000000
    17  H    1.778833   0.000000
    18  H    2.825599   2.319559   0.000000
    19  H    3.819124   3.048078   2.449730   0.000000
    20  H    3.801442   2.607098   3.376215   1.787634   0.000000
    21  H    4.567829   4.442893   4.492393   2.472634   2.834531
                   21
    21  H    0.000000
 Framework group  C1[X(C5H12O4)]
 Deg. of freedom    57
                         Standard orientation:                         
 ---------------------------------------------------------------------
 Center     Atomic      Atomic             Coordinates (Angstroms)
 Number     Number       Type             X           Y           Z
 ---------------------------------------------------------------------
      1          8           0       -1.545908   -0.174644    1.269325
      2          6           0       -0.134667   -0.007664    1.284561
      3          6           0        0.285615    0.001183   -0.189132
      4          6           0       -0.620641    0.995382   -1.008941
      5          8           0       -0.824901    2.166133   -0.330479
      6          6           0        1.772183    0.427584   -0.322508
      7          8           0        2.617874   -0.244183    0.559633
      8          6           0       -0.033761   -1.350064   -0.827656
      9          8           0       -1.359056   -1.709487   -0.677212
     10          1           0       -1.887831   -0.298161    2.167866
     11          1           0        0.367733   -0.836010    1.812056
     12          1           0        0.165921    0.932326    1.781120
     13          1           0       -1.584628    0.453969   -1.165978
     14          1           0       -0.161429    1.234593   -1.981859
     15          1           0       -1.460428    2.016053    0.398212
     16          1           0        1.851759    1.493596   -0.060248
     17          1           0        2.096942    0.325367   -1.379100
     18          1           0        2.783204   -1.153430    0.270917
     19          1           0        0.602734   -2.106843   -0.310230
     20          1           0        0.212968   -1.398436   -1.904557
     21          1           0       -1.703400   -1.364094    0.183724
 ---------------------------------------------------------------------
 Rotational constants (GHZ):           1.7871361           1.3898064           1.1535032
   150 basis functions,   273 primitive gaussians,   159 cartesian basis functions
    37 alpha electrons       36 beta electrons
       nuclear repulsion energy       536.4642358097 Hartrees.
 NAtoms=   21 NActive=   21 NUniq=   21 SFac= 1.00D+00 NAtFMM=   60 NAOKFM=F Big=F
 Nuclear repulsion after empirical dispersion term =      536.4491581650 Hartrees.
   1 Symmetry operations used in ECPInt.
 ECPInt:  NShTT=    3081 NPrTT=   12399 LenC2=    3052 LenP2D=    9732.
 LDataN:  DoStor=T MaxTD1= 4 Len=   56
 Initial guess from the checkpoint file:  "2.chk"
 B after Tr=     0.000000    0.000000   -0.000000
         Rot=    0.999115   -0.028885   -0.014037    0.027158 Ang=  -4.82 deg.
 Initial guess <Sx>= 0.0000 <Sy>= 0.0000 <Sz>= 0.5000 <S**2>= 0.7556 S= 0.5028
 ExpMin= 1.22D-01 ExpMax= 2.27D+03 ExpMxC= 3.41D+02 IAcc=3 IRadAn=         5 AccDes= 0.00D+00
 Harris functional with IExCor= 4639 and IRadAn=       5 diagonalized for initial guess.
 HarFok:  IExCor= 4639 AccDes= 0.00D+00 IRadAn=         5 IDoV= 1 UseB2=F ITyADJ=14
 ICtDFT=  3500011 ScaDFX=  1.000000  1.000000  1.000000  1.000000
 FoFCou: FMM=F IPFlag=           0 FMFlag=      100000 FMFlg1=           0
         NFxFlg=           0 DoJE=T BraDBF=F KetDBF=T FulRan=T
         wScrn=  0.000000 ICntrl=       500 IOpCl=  0 I1Cent=   200000004 NGrid=           0
         NMat0=    1 NMatS0=      1 NMatT0=    0 NMatD0=    1 NMtDS0=    0 NMtDT0=    0
 Petite list used in FoFCou.
     Minimum is close to point  4 DX=  6.93D-03 DF= -4.25D-07 DXR=  5.74D-03 DFR=  3.30D-05 which will be used.
     Accept linear search using points  1 and  2.
     Minimum is close to point  2 DX= -1.88D-02 DF= -3.99D-07 DXR=  1.92D-02 DFR=  3.68D-04 which will be used.
     Accept linear search using points  1 and  2.
     Accept linear search using points  1 and  2.
     Accept linear search using points  1 and  2.
     Accept linear search using points  1 and  2.
     Minimum is close to point  2 DX= -1.24D-02 DF= -7.46D-08 DXR=  1.25D-02 DFR=  1.58D-04 which will be used.
     Minimum is close to point  2 DX=  7.00D-04 DF= -8.53D-13 DXR=  7.00D-04 DFR=  4.92D-07 which will be used.
 SCF Done:  E(UwB97XD) =  -497.712676434     a.u. after   11 cycles
            Convg  =    0.8646D-06                    60 Fock formations.
              S**2 =  0.7557                  -V/T =  2.0078
 <Sx>= 0.0000 <Sy>= 0.0000 <Sz>= 0.5000 <S**2>= 0.7557 S= 0.5028
 <L.S>=  0.00000000000    
 Annihilation of the first spin contaminant:
 S**2 before annihilation     0.7557,   after     0.7500
   1 Symmetry operations used in ECPInt.
 ECPInt:  NShTT=    3081 NPrTT=   12399 LenC2=    3052 LenP2D=    9732.
 LDataN:  DoStor=T MaxTD1= 5 Len=  102
 Calling FoFJK, ICntrl=      2127 FMM=F ISym2X=0 I1Cent= 0 IOpClX= 1 NMat=1 NMatS=1 NMatT=0.

 GradGradGradGradGradGradGradGradGradGradGradGradGradGradGradGradGradGrad
 Using GEDIIS/GDIIS optimizer.
 FormGI is forming the generalized inverse of G from B-inverse, IUseBI=4.
 Internal  Forces:  Max     0.027798032 RMS     0.005693403
 Step number   2 out of a maximum of  112
 All quantities printed in internal units (Hartrees-Bohrs-Radians)
 Mixed Optimization -- RFO/linear search
 Trust test= 8.02D-01 RLast= 4.31D-01 DXMaxT set to 5.05D-01
 ITU=  1  0
 Use linear search instead of GDIIS.
     Eigenvalues ---    0.00230   0.00243   0.00263   0.00358   0.01369
     Eigenvalues ---    0.01567   0.01630   0.01696   0.03776   0.04530
     Eigenvalues ---    0.04654   0.04682   0.04931   0.05553   0.05737
     Eigenvalues ---    0.05865   0.05896   0.05930   0.07207   0.10520
     Eigenvalues ---    0.10854   0.11737   0.11813   0.12727   0.13429
     Eigenvalues ---    0.13941   0.14042   0.14078   0.14663   0.15927
     Eigenvalues ---    0.16000   0.16000   0.16041   0.21605   0.22000
     Eigenvalues ---    0.22117   0.25946   0.27217   0.28637   0.29160
     Eigenvalues ---    0.32163   0.32581   0.32855   0.32978   0.33037
     Eigenvalues ---    0.33141   0.33200   0.33462   0.38143   0.41463
     Eigenvalues ---    0.44460   0.45333   0.46796   0.52189   0.54124
     Eigenvalues ---    0.54229   0.54706
 Quartic linear search produced a step of -0.11771.
 Iteration  1 RMS(Cart)=  0.10158253 RMS(Int)=  0.00345755
 Iteration  2 RMS(Cart)=  0.00516021 RMS(Int)=  0.00063374
 Iteration  3 RMS(Cart)=  0.00001436 RMS(Int)=  0.00063370
 Iteration  4 RMS(Cart)=  0.00000001 RMS(Int)=  0.00063370
 Variable       Old X    -DE/DX   Delta X   Delta X   Delta X     New X
                                 (Linear)    (Quad)   (Total)
    R1        2.68562   0.00496   0.00069   0.00450   0.00519   2.69080
    R2        1.83171   0.00202  -0.00070   0.00804   0.00733   1.83905
    R3        2.89596   0.01131  -0.00030   0.03232   0.03202   2.92799
    R4        2.08454  -0.00002   0.00042  -0.00303  -0.00261   2.08193
    R5        2.08770  -0.00089   0.00026  -0.00395  -0.00369   2.08401
    R6        2.97703   0.01410  -0.00694   0.08847   0.08153   3.05856
    R7        2.93333  -0.00470  -0.00314   0.00953   0.00639   2.93972
    R8        2.88800   0.01444   0.00250   0.02174   0.02424   2.91224
    R9        2.58602  -0.00954   0.00804  -0.07443  -0.06639   2.51963
   R10        2.11029   0.00241  -0.00285   0.02605   0.02320   2.13349
   R11        2.08270  -0.00097   0.00051  -0.00593  -0.00542   2.07728
   R12        1.84905  -0.00084  -0.00249   0.01663   0.01414   1.86318
   R13        2.63523  -0.00246   0.00284  -0.02473  -0.02189   2.61334
   R14        2.07998   0.00044   0.00029  -0.00100  -0.00071   2.07927
   R15        2.09777  -0.00084   0.00001  -0.00211  -0.00210   2.09567
   R16        1.82964  -0.00045  -0.00055   0.00329   0.00273   1.83238
   R17        2.61044  -0.00758   0.00393  -0.04133  -0.03739   2.57305
   R18        2.10903   0.00272  -0.00048   0.01010   0.00961   2.11864
   R19        2.08978  -0.00148   0.00011  -0.00435  -0.00424   2.08554
   R20        1.86986   0.00649  -0.00369   0.03626   0.03258   1.90243
    A1        1.93406   0.00187  -0.00297   0.02962   0.02666   1.96071
    A2        1.83662   0.02780   0.00763   0.05061   0.05792   1.89454
    A3        1.94890  -0.00620  -0.00151   0.01282   0.01063   1.95953
    A4        1.95516  -0.01200  -0.00364  -0.03113  -0.03458   1.92059
    A5        1.91695  -0.00566  -0.00042  -0.00376  -0.00495   1.91200
    A6        1.93125  -0.00670  -0.00247  -0.01157  -0.01380   1.91745
    A7        1.87557   0.00258   0.00032  -0.01617  -0.01600   1.85957
    A8        1.92443   0.00114  -0.00042   0.02439   0.02602   1.95045
    A9        1.92502  -0.00740  -0.00479  -0.01550  -0.02098   1.90404
   A10        1.91704   0.01180   0.00144   0.07882   0.08117   1.99821
   A11        1.91012   0.00366  -0.00146  -0.00041  -0.00291   1.90721
   A12        1.79297  -0.00437   0.01288  -0.10010  -0.08769   1.70528
   A13        1.99009  -0.00434  -0.00718   0.00918   0.00032   1.99041
   A14        1.94741   0.00257   0.00376  -0.01804  -0.01455   1.93286
   A15        1.83775  -0.00519   0.00774  -0.08129  -0.07375   1.76400
   A16        1.93550  -0.00169  -0.00418   0.01574   0.01169   1.94718
   A17        1.93441   0.00275   0.00139   0.01313   0.01316   1.94757
   A18        1.89038  -0.00069  -0.00335   0.02012   0.01659   1.90696
   A19        1.91853   0.00226  -0.00585   0.05002   0.04389   1.96242
   A20        1.91235   0.00082  -0.00445   0.03507   0.03062   1.94297
   A21        1.97589  -0.00338   0.00264  -0.03071  -0.02813   1.94776
   A22        1.89105  -0.00102  -0.00003  -0.00817  -0.00830   1.88275
   A23        1.91416   0.00021  -0.00143   0.00832   0.00701   1.92118
   A24        1.84625   0.00215   0.00094   0.00377   0.00441   1.85066
   A25        1.96094   0.00200  -0.00215   0.02493   0.02280   1.98374
   A26        1.87006   0.00017   0.00004   0.00207   0.00206   1.87212
   A27        1.94691  -0.00012  -0.00471   0.03244   0.02774   1.97465
   A28        1.96605   0.02076   0.00309   0.05531   0.05806   2.02411
   A29        1.86153  -0.00655   0.00400  -0.04959  -0.04472   1.81681
   A30        1.98113  -0.00483  -0.00896   0.03930   0.02986   2.01100
   A31        1.89677  -0.00309   0.00408  -0.01836  -0.01331   1.88346
   A32        1.88465  -0.00930  -0.00162  -0.02722  -0.03042   1.85423
   A33        1.86981   0.00235  -0.00065  -0.00440  -0.00498   1.86483
   A34        1.91538  -0.00084  -0.00370   0.02201   0.01831   1.93369
    D1        3.02297   0.00220   0.00125   0.03558   0.03745   3.06042
    D2        0.94408  -0.00455  -0.00215   0.00258   0.00004   0.94412
    D3       -1.16069   0.00490   0.00089   0.03615   0.03680  -1.12389
    D4        0.85550  -0.00342   0.00429  -0.10486  -0.09995   0.75555
    D5        2.96708  -0.00293  -0.00074  -0.09956  -0.10063   2.86645
    D6       -1.10821  -0.00529  -0.01204  -0.04163  -0.05435  -1.16256
    D7        2.95559   0.00229   0.00682  -0.06243  -0.05477   2.90082
    D8       -1.21602   0.00277   0.00179  -0.05713  -0.05545  -1.27147
    D9        0.99188   0.00042  -0.00950   0.00081  -0.00918   0.98271
   D10       -1.25973  -0.00218   0.00547  -0.09182  -0.08554  -1.34527
   D11        0.85185  -0.00170   0.00045  -0.08652  -0.08622   0.76563
   D12        3.05975  -0.00406  -0.01085  -0.02859  -0.03994   3.01980
   D13        0.74694  -0.00540   0.00172  -0.05382  -0.05168   0.69526
   D14       -1.35284  -0.00693  -0.00774  -0.00954  -0.01764  -1.37048
   D15        2.85597  -0.00570  -0.00292  -0.02966  -0.03250   2.82347
   D16       -1.37351   0.00070   0.00876  -0.04989  -0.04027  -1.41379
   D17        2.80989  -0.00083  -0.00070  -0.00562  -0.00624   2.80365
   D18        0.73551   0.00041   0.00412  -0.02574  -0.02110   0.71441
   D19        2.78927   0.00641   0.01068  -0.00510   0.00542   2.79469
   D20        0.68949   0.00488   0.00123   0.03917   0.03946   0.72895
   D21       -1.38489   0.00611   0.00605   0.01905   0.02460  -1.36029
   D22        0.83042   0.00208   0.00398  -0.01676  -0.01331   0.81711
   D23       -1.21163   0.00208   0.00123   0.00203   0.00256  -1.20908
   D24        3.03573   0.00233   0.00197  -0.00039   0.00097   3.03670
   D25        2.95052   0.00114  -0.00031   0.00338   0.00369   2.95421
   D26        0.90846   0.00114  -0.00307   0.02217   0.01956   0.92802
   D27       -1.12736   0.00139  -0.00232   0.01975   0.01797  -1.10939
   D28       -1.33595  -0.00448   0.01038  -0.11595  -0.10542  -1.44137
   D29        2.90518  -0.00448   0.00762  -0.09716  -0.08955   2.81563
   D30        0.86936  -0.00423   0.00836  -0.09958  -0.09114   0.77822
   D31        0.95700   0.00559   0.01237   0.04503   0.05531   1.01231
   D32       -1.12247   0.00167   0.00242   0.06769   0.06890  -1.05356
   D33        3.10574   0.00577   0.00578   0.08300   0.08791  -3.08953
   D34       -1.09058   0.00136   0.00462   0.03456   0.03989  -1.05069
   D35        3.11313  -0.00256  -0.00532   0.05723   0.05348  -3.11657
   D36        1.05816   0.00154  -0.00196   0.07254   0.07249   1.13065
   D37        3.12765   0.00187   0.00230   0.09335   0.09495  -3.06058
   D38        1.04818  -0.00206  -0.00764   0.11602   0.10855   1.15673
   D39       -1.00679   0.00204  -0.00428   0.13133   0.12756  -0.87924
   D40       -1.30059   0.00110  -0.00790   0.06225   0.05457  -1.24602
   D41        0.74148  -0.00198   0.00562  -0.04198  -0.03697   0.70451
   D42        2.84744   0.00203  -0.00275   0.04049   0.03813   2.88556
   D43        1.31828   0.00190  -0.00743   0.09006   0.08257   1.40085
   D44       -2.89671   0.00016  -0.00533   0.06547   0.06006  -2.83665
   D45       -0.86196   0.00270  -0.00584   0.08323   0.07755  -0.78441
   D46       -0.57384  -0.00122  -0.00239  -0.01364  -0.01634  -0.59017
   D47        1.48500   0.00118   0.00770  -0.05371  -0.04635   1.43866
   D48       -2.77552  -0.00263   0.00819  -0.08305  -0.07422  -2.84974
         Item               Value     Threshold  Converged?
 Maximum Force            0.027798     0.000015     NO 
 RMS     Force            0.005693     0.000010     NO 
 Maximum Displacement     0.392280     0.000060     NO 
 RMS     Displacement     0.102082     0.000040     NO 
 GradGradGradGradGradGradGradGradGradGradGradGradGradGradGradGradGradGrad

                    Distance matrix (angstroms):
                    1          2          3          4          5
     1  O    0.000000
     2  C    1.423912   0.000000
     3  C    2.414936   1.549424   0.000000
     4  C    2.810587   2.622800   1.618523   0.000000
     5  O    2.874853   2.823512   2.434369   1.333330   0.000000
     6  C    3.756259   2.529347   1.555635   2.588806   3.149746
     7  O    4.198581   2.798770   2.432336   3.821294   4.300187
     8  C    3.043354   2.599090   1.541089   2.379794   3.570250
     9  O    2.852649   3.063321   2.463097   2.768159   3.863759
    10  H    0.973181   2.007004   3.291335   3.750930   3.634843
    11  H    2.104866   1.101711   2.181028   3.564949   3.907799
    12  H    2.078462   1.102811   2.185863   3.001419   2.753790
    13  H    2.609789   2.910298   2.143817   1.128993   2.039624
    14  H    3.897276   3.557260   2.266248   1.099251   1.988235
    15  H    2.251779   2.584582   2.716289   1.925087   0.985953
    16  H    3.979510   2.813550   2.163644   2.721416   2.810876
    17  H    4.590951   3.497296   2.198680   2.847089   3.623203
    18  H    4.619556   3.298889   2.812561   4.281012   4.973215
    19  H    3.419219   2.772763   2.115059   3.371568   4.446627
    20  H    4.056714   3.583094   2.245529   2.677758   3.988427
    21  H    2.025956   2.596125   2.523731   2.850920   3.663730
                    6          7          8          9         10
     6  C    0.000000
     7  O    1.382919   0.000000
     8  C    2.597766   3.227495   0.000000
     9  O    3.829198   4.466505   1.361598   0.000000
    10  H    4.509868   4.753780   3.903770   3.638068   0.000000
    11  H    2.868599   2.615924   2.822573   3.346811   2.379823
    12  H    2.637739   2.844781   3.535390   4.099166   2.407090
    13  H    3.459891   4.557389   2.281481   2.073251   3.539625
    14  H    2.713842   4.072782   2.773841   3.332791   4.843339
    15  H    3.680378   4.641459   3.807278   3.864237   2.868469
    16  H    1.100302   1.990914   3.496601   4.591848   4.666621
    17  H    1.108981   2.091227   2.748200   4.035451   5.425403
    18  H    1.976507   0.969652   3.131964   4.394593   5.182288
    19  H    2.819564   2.940104   1.121138   2.012464   4.112303
    20  H    2.864049   3.634093   1.103618   1.977975   4.956755
    21  H    4.033930   4.588451   1.959752   1.006723   2.715627
                   11         12         13         14         15
    11  H    0.000000
    12  H    1.766905   0.000000
    13  H    3.773725   3.545441   0.000000
    14  H    4.410063   3.862369   1.852125   0.000000
    15  H    3.677952   2.513929   2.217390   2.825836   0.000000
    16  H    3.353241   2.495986   3.765894   2.826797   3.397612
    17  H    3.827105   3.707231   3.691282   2.544773   4.326347
    18  H    2.903409   3.587179   4.874148   4.469754   5.313038
    19  H    2.539047   3.725914   3.338505   3.781455   4.601093
    20  H    3.841392   4.407427   2.650541   2.623353   4.430863
    21  H    2.922636   3.629577   2.115077   3.677461   3.415026
                   16         17         18         19         20
    16  H    0.000000
    17  H    1.778984   0.000000
    18  H    2.826356   2.329032   0.000000
    19  H    3.840455   3.058781   2.581265   0.000000
    20  H    3.777345   2.561933   3.431632   1.786647   0.000000
    21  H    4.661933   4.479444   4.647053   2.453285   2.833688
                   21
    21  H    0.000000
 Framework group  C1[X(C5H12O4)]
 Deg. of freedom    57
                         Standard orientation:                         
 ---------------------------------------------------------------------
 Center     Atomic      Atomic             Coordinates (Angstroms)
 Number     Number       Type             X           Y           Z
 ---------------------------------------------------------------------
      1          8           0       -1.453323    0.207928    1.486905
      2          6           0       -0.040716    0.264884    1.317134
      3          6           0        0.290824   -0.048897   -0.163520
      4          6           0       -0.715094    0.712123   -1.177715
      5          8           0       -0.971095    1.948644   -0.749642
      6          6           0        1.752287    0.392516   -0.462316
      7          8           0        2.625052   -0.037998    0.520233
      8          6           0       -0.030432   -1.492122   -0.598092
      9          8           0       -1.324556   -1.886848   -0.445176
     10          1           0       -1.719343    0.325798    2.415572
     11          1           0        0.487570   -0.446394    1.971936
     12          1           0        0.331294    1.269313    1.579661
     13          1           0       -1.628934    0.052390   -1.112320
     14          1           0       -0.303330    0.758846   -2.195861
     15          1           0       -1.547877    1.939026    0.049942
     16          1           0        1.784793    1.492051   -0.437187
     17          1           0        2.043386    0.077929   -1.485124
     18          1           0        2.884862   -0.966678    0.418847
     19          1           0        0.605310   -2.127095    0.072424
     20          1           0        0.248475   -1.743911   -1.635775
     21          1           0       -1.736049   -1.456097    0.366377
 ---------------------------------------------------------------------
 Rotational constants (GHZ):           1.7229755           1.3322301           1.1691587
   150 basis functions,   273 primitive gaussians,   159 cartesian basis functions
    37 alpha electrons       36 beta electrons
       nuclear repulsion energy       531.7896019123 Hartrees.
 NAtoms=   21 NActive=   21 NUniq=   21 SFac= 1.00D+00 NAtFMM=   60 NAOKFM=F Big=F
 Nuclear repulsion after empirical dispersion term =      531.7746487025 Hartrees.
   1 Symmetry operations used in ECPInt.
 ECPInt:  NShTT=    3081 NPrTT=   12399 LenC2=    3052 LenP2D=    9716.
 LDataN:  DoStor=T MaxTD1= 4 Len=   56
 Initial guess from the checkpoint file:  "2.chk"
 B after Tr=     0.000000   -0.000000    0.000000
         Rot=    0.994421    0.102320   -0.019973   -0.016054 Ang=  12.11 deg.
 Initial guess <Sx>= 0.0000 <Sy>= 0.0000 <Sz>= 0.5000 <S**2>= 0.7558 S= 0.5029
 ExpMin= 1.22D-01 ExpMax= 2.27D+03 ExpMxC= 3.41D+02 IAcc=3 IRadAn=         5 AccDes= 0.00D+00
 Harris functional with IExCor= 4639 and IRadAn=       5 diagonalized for initial guess.
 HarFok:  IExCor= 4639 AccDes= 0.00D+00 IRadAn=         5 IDoV= 1 UseB2=F ITyADJ=14
 ICtDFT=  3500011 ScaDFX=  1.000000  1.000000  1.000000  1.000000
 FoFCou: FMM=F IPFlag=           0 FMFlag=      100000 FMFlg1=           0
         NFxFlg=           0 DoJE=T BraDBF=F KetDBF=T FulRan=T
         wScrn=  0.000000 ICntrl=       500 IOpCl=  0 I1Cent=   200000004 NGrid=           0
         NMat0=    1 NMatS0=      1 NMatT0=    0 NMatD0=    1 NMtDS0=    0 NMtDT0=    0
 Petite list used in FoFCou.
     Minimum is close to point  4 DX=  1.93D-02 DF= -3.83D-06 DXR=  1.58D-02 DFR=  2.50D-04 which will be used.
     Accept linear search using points  2 and  3.
     Accept linear search using points  1 and  2.
     Minimum is close to point  2 DX= -9.74D-02 DF= -1.52D-05 DXR=  9.72D-02 DFR=  1.11D-02 which will be used.
     Accept linear search using points  1 and  2.
     Accept linear search using points  1 and  2.
     Accept linear search using points  1 and  2.
     Accept linear search using points  1 and  2.
     Accept linear search using points  1 and  2.
     Minimum is close to point  2 DX=  4.78D-03 DF= -1.43D-08 DXR=  4.76D-03 DFR=  2.26D-05 which will be used.
     Minimum is close to point  2 DX=  6.94D-04 DF= -6.25D-13 DXR=  6.94D-04 DFR=  5.14D-07 which will be used.
 SCF Done:  E(UwB97XD) =  -497.714040962     a.u. after   15 cycles
            Convg  =    0.7241D-06                    70 Fock formations.
              S**2 =  0.7554                  -V/T =  2.0080
 <Sx>= 0.0000 <Sy>= 0.0000 <Sz>= 0.5000 <S**2>= 0.7554 S= 0.5027
 <L.S>=  0.00000000000    
 Annihilation of the first spin contaminant:
 S**2 before annihilation     0.7554,   after     0.7500
   1 Symmetry operations used in ECPInt.
 ECPInt:  NShTT=    3081 NPrTT=   12399 LenC2=    3052 LenP2D=    9716.
 LDataN:  DoStor=T MaxTD1= 5 Len=  102
 Calling FoFJK, ICntrl=      2127 FMM=F ISym2X=0 I1Cent= 0 IOpClX= 1 NMat=1 NMatS=1 NMatT=0.

 GradGradGradGradGradGradGradGradGradGradGradGradGradGradGradGradGradGrad
 Using GEDIIS/GDIIS optimizer.
 FormGI is forming the generalized inverse of G from B-inverse, IUseBI=4.
 Internal  Forces:  Max     0.017990298 RMS     0.004834681
 Step number   3 out of a maximum of  112
 All quantities printed in internal units (Hartrees-Bohrs-Radians)
 Mixed Optimization -- RFO/linear search
 Trust test= 1.54D-01 RLast= 4.84D-01 DXMaxT set to 5.05D-01
 ITU=  0  1  0
 Use linear search instead of GDIIS.
     Eigenvalues ---    0.00231   0.00262   0.00274   0.00395   0.01375
     Eigenvalues ---    0.01518   0.01628   0.01672   0.03694   0.04262
     Eigenvalues ---    0.04781   0.05015   0.05180   0.05364   0.05906
     Eigenvalues ---    0.05953   0.05996   0.06380   0.07182   0.09977
     Eigenvalues ---    0.11221   0.11529   0.12215   0.13571   0.13639
     Eigenvalues ---    0.13704   0.13953   0.14334   0.15951   0.15990
     Eigenvalues ---    0.16000   0.16038   0.16643   0.21276   0.22035
     Eigenvalues ---    0.22202   0.24284   0.27286   0.28725   0.29211
     Eigenvalues ---    0.32159   0.32582   0.32973   0.33033   0.33140
     Eigenvalues ---    0.33190   0.33250   0.33470   0.40856   0.42541
     Eigenvalues ---    0.44466   0.44764   0.49226   0.53840   0.54098
     Eigenvalues ---    0.54269   0.58371
 Quartic linear search produced a step of -0.47215.
 Iteration  1 RMS(Cart)=  0.09417609 RMS(Int)=  0.00449672
 Iteration  2 RMS(Cart)=  0.00580230 RMS(Int)=  0.00026512
 Iteration  3 RMS(Cart)=  0.00003365 RMS(Int)=  0.00026417
 Iteration  4 RMS(Cart)=  0.00000000 RMS(Int)=  0.00026417
 Variable       Old X    -DE/DX   Delta X   Delta X   Delta X     New X
                                 (Linear)    (Quad)   (Total)
    R1        2.69080  -0.00467  -0.00245   0.00041  -0.00204   2.68876
    R2        1.83905  -0.00373  -0.00346  -0.00071  -0.00417   1.83487
    R3        2.92799  -0.01799  -0.01512  -0.00990  -0.02502   2.90296
    R4        2.08193   0.00098   0.00123   0.00113   0.00237   2.08430
    R5        2.08401   0.00119   0.00174   0.00009   0.00184   2.08585
    R6        3.05856   0.01189  -0.03849   0.05797   0.01947   3.07804
    R7        2.93972  -0.00472  -0.00302  -0.01527  -0.01829   2.92144
    R8        2.91224  -0.00477  -0.01145   0.01807   0.00663   2.91887
    R9        2.51963   0.01029   0.03135  -0.00853   0.02282   2.54245
   R10        2.13349  -0.00438  -0.01095   0.00000  -0.01095   2.12254
   R11        2.07728   0.00049   0.00256  -0.00142   0.00114   2.07842
   R12        1.86318  -0.00397  -0.00667  -0.00232  -0.00900   1.85418
   R13        2.61334   0.00420   0.01034  -0.00111   0.00922   2.62256
   R14        2.07927   0.00109   0.00034   0.00223   0.00257   2.08184
   R15        2.09567  -0.00063   0.00099  -0.00255  -0.00156   2.09411
   R16        1.83238  -0.00187  -0.00129  -0.00178  -0.00307   1.82930
   R17        2.57305   0.01203   0.01766   0.00018   0.01783   2.59088
   R18        2.11864   0.00067  -0.00454   0.00653   0.00199   2.12063
   R19        2.08554  -0.00069   0.00200  -0.00385  -0.00185   2.08368
[...]
 00003789,-0.00021082,0.00010719,-0.00144904,0.00035834,0.00003702,0.00
 123339,-0.00495453,-0.00756602,0.03361253,0.02309260,0.14616256,0.0545
 7337,-0.44240751,0.00014639,0.00088949,0.00465023,-0.00097356,-0.00007
 319,0.00107883,-0.00009226,0.00012912,-0.00018842,-0.00003244,-0.00037
 721,0.00045992,-0.00007510,-0.00009041,0.00024559,-0.00039825,0.000131
 70,-0.00001587,-0.00031563,-0.00023656,-0.00000194,-0.00001648,-0.0009
 1734,0.00006577,-0.14255278,-0.05569734,0.43986640,-0.03232085,0.01362
 170,-0.01743724,-0.11770556,0.08894731,-0.07605284,0.00779472,-0.00679
 179,0.00496108,-0.00079331,0.00067681,0.00266156,0.00024023,0.00007932
 ,0.00011547,0.00127236,-0.00110311,0.00052920,-0.00182865,0.00051788,0
 .00010753,-0.00043598,-0.00030124,-0.00021585,0.00066978,-0.00041966,-
 0.00134040,0.00052836,0.00083255,-0.00173947,0.13867037,-0.01331266,0.
 01128449,-0.00946688,0.09535619,-0.17921216,0.10281460,-0.00195754,0.0
 0185973,-0.00241101,0.00103842,-0.00016005,-0.00106703,-0.00010519,0.0
 0055710,0.00105997,0.00058440,-0.00034883,0.00123500,0.00080398,0.0000
 3206,-0.00118937,-0.00112271,0.00097538,-0.00097230,0.00034607,-0.0003
 1552,-0.00061325,0.00145999,0.00053641,-0.00041540,-0.09552653,0.17839
 915,0.00507161,-0.00327006,0.00550661,-0.08109265,0.09855100,-0.138322
 34,-0.01489406,0.02047243,-0.01751875,0.00371151,-0.00217117,-0.005202
 55,0.00013742,0.00007041,0.00125007,-0.00157373,0.00151809,-0.00082132
 ,-0.00058551,-0.00065199,0.00076997,-0.00104783,0.00156756,0.00120848,
 0.00013152,-0.00042572,0.00025159,0.00021053,-0.00078558,0.00109780,0.
 08391311,-0.10594278,0.14347085,-0.02095224,-0.03840189,-0.01507090,-0
 .05031892,-0.01223432,-0.00561943,0.00170725,0.00906881,0.00211173,0.0
 0002823,-0.00014836,-0.00069115,0.00011308,0.00016847,0.00035729,0.001
 14051,0.00144125,0.00052906,-0.00038461,-0.00046900,-0.00040654,-0.001
 83392,-0.00008621,0.00285476,0.00158673,-0.00082325,-0.00299108,0.0006
 6478,-0.00066934,-0.00120128,0.00521990,0.01367426,0.00652499,0.065855
 66,-0.00658740,0.00041408,-0.00018877,-0.02076112,-0.29030564,-0.09004
 045,0.00068139,0.00109760,-0.00025229,0.00097100,-0.00019225,-0.000020
 09,0.00036004,0.00003018,0.00177521,0.00004420,0.00026861,0.00000703,0
 .00036392,0.00012976,0.00004933,0.00012258,0.00054675,0.00018884,-0.00
 001170,-0.00007442,-0.00041852,-0.00053579,-0.00072845,-0.00060852,-0.
 00200530,-0.01420880,-0.00835198,0.02717569,0.30184052,0.00213759,0.00
 371058,0.00420192,-0.01054014,-0.08849631,-0.08879333,-0.00268711,-0.0
 2869700,-0.01023439,0.00107104,-0.00199757,0.00010413,-0.00041600,0.00
 132203,0.00172245,-0.00147674,-0.00092697,0.00084338,-0.00024995,0.000
 31942,-0.00003193,0.00333799,0.00090223,-0.00639253,-0.00083059,0.0010
 1024,0.00111656,0.00001966,0.00097810,0.00041202,0.00229641,0.01671664
 ,0.00896913,0.00864913,0.09659353,0.09010553,-0.00061105,0.00301947,0.
 00252364,-0.00028733,0.00004185,-0.00032753,0.00009796,0.00039723,-0.0
 0113822,0.00162714,-0.00143592,-0.00022879,-0.00159816,0.00176651,0.00
 128723,-0.00072121,0.00079898,0.00012732,0.00030092,-0.00051356,0.0001
 8698,-0.01785389,0.01988918,-0.02817357,-0.12242647,0.08708353,-0.1045
 6952,0.00055002,0.00012576,-0.00009133,-0.00007118,-0.00001687,0.00006
 368,0.00003835,0.00003515,0.00010978,0.13503664,-0.00044771,-0.0049803
 6,-0.00335381,0.00128879,0.00015404,-0.00043978,-0.00216791,0.00234036
 ,-0.00195876,0.00475992,0.00014369,-0.00018242,-0.00185468,0.00247039,
 0.00302715,-0.00085159,-0.00082819,0.00019944,0.00104908,-0.00071514,0
 .00031543,0.00375670,0.00250630,-0.00479615,0.10267472,-0.13239364,0.1
 6747293,0.00007510,-0.00007739,-0.00006921,-0.00017852,-0.00012396,0.0
 0028076,-0.00018587,-0.00008695,-0.00025350,-0.09689780,0.11811082,0.0
 0111829,-0.00087739,0.00061465,-0.00119782,-0.00019538,-0.00009126,0.0
 0086249,-0.00091411,-0.00113458,-0.00088150,-0.00036478,-0.00038269,0.
 00060073,-0.00149003,-0.00183629,-0.00033895,0.00069316,0.00033853,0.0
 0019346,0.00015079,-0.00006658,-0.00677293,-0.00313996,0.00654820,-0.1
 1323879,0.14412649,-0.26277769,0.00056702,0.00005006,-0.00001773,0.000
 16461,0.00006550,-0.00014440,0.00011201,0.00009365,0.00013976,0.126615
 13,-0.15528405,0.27812099,0.00038767,-0.00055967,0.00026539,-0.0024274
 3,0.00283265,-0.00146021,0.00624481,0.00640397,-0.01592083,-0.07956331
 ,-0.02304332,0.11554297,-0.01425354,-0.00212806,0.01980965,0.00143042,
 0.00036463,-0.00116206,0.00044822,-0.00058690,0.00047088,-0.00014164,-
 0.00075035,-0.00011150,0.00015261,-0.00067954,-0.00034104,0.00001243,0
 .00007559,0.00000469,0.00039550,-0.00006251,-0.00101427,-0.00005506,-0
 .00012551,-0.00001353,-0.00022643,-0.00003859,0.00057562,0.08752274,-0
 .00061446,0.00028969,-0.00031824,0.00264193,-0.00222638,0.00057245,-0.
 00811935,0.00097493,0.01125993,-0.02761316,-0.07309371,0.10340938,0.01
 602293,0.00711589,-0.02892145,-0.00089981,-0.00019308,0.00118431,0.000
 47129,-0.00008710,-0.00041765,0.00031667,0.00098037,0.00059408,-0.0002
 1029,-0.00064438,-0.00075860,0.00012202,-0.00005242,-0.00006866,-0.000
 47775,0.00017369,0.00081271,0.00004262,0.00002040,-0.00003237,-0.00022
 612,-0.00039504,0.00081432,0.01388615,0.06977953,0.00004534,0.00016796
 ,0.00028599,-0.00149229,0.00199383,-0.00035121,0.00622063,0.00443433,-
 0.00927816,0.10567650,0.07870291,-0.26156490,0.00752287,0.00185442,-0.
 00921025,0.00147870,-0.00039640,0.00038067,0.00047811,-0.00054609,0.00
 064282,-0.00037412,0.00029884,-0.00064024,-0.00008982,-0.00019376,0.00
 006546,0.00001689,0.00001987,0.00004486,0.00035697,-0.00006441,-0.0006
 2114,0.00006209,-0.00006692,0.00008704,0.00008199,0.00012335,0.0000352
 5,-0.11971997,-0.08554946,0.27899099,-0.00362179,0.00010011,0.00037796
 ,0.00054796,0.00389987,-0.00176102,-0.00025085,-0.00246599,0.00036779,
 -0.01521328,-0.00438717,0.02294470,-0.12927738,-0.05560626,0.17907388,
 -0.00081615,0.00014170,-0.00025336,0.00048595,-0.00034923,0.00004947,0
 .00212136,0.00008182,0.00055579,-0.00129301,0.00009162,-0.00020765,0.0
 0078375,-0.00081779,0.00005197,-0.00080340,-0.00082620,-0.00000531,-0.
 00129405,-0.00014834,-0.00191349,0.00063893,-0.00039133,0.00001575,0.0
 0063012,0.00347867,0.00060237,0.14693165,-0.00196132,0.00143769,-0.001
 03474,0.00748643,-0.00029443,0.00182620,-0.00016352,-0.00094546,-0.000
 51286,0.01694722,0.00769612,-0.03156952,-0.08193415,-0.09452429,0.1494
 7584,0.00039422,0.00048097,0.00009677,-0.00032831,-0.00012820,0.000152
 70,0.00100232,-0.00009225,-0.00010431,-0.00094938,0.00074843,0.0018301
 5,-0.00144411,0.00081137,0.00092514,-0.00057959,-0.00021033,-0.0000515
 9,-0.00040454,-0.00008522,0.00018219,0.00002729,-0.00010325,-0.0007657
 9,0.00408839,-0.00240601,-0.00121469,0.05788089,0.09057879,0.00240090,
 -0.00258664,-0.00434081,-0.00445228,0.00261943,0.00122553,-0.00230180,
 -0.00167681,0.00266100,0.01003644,0.00478204,-0.01765582,0.19307264,0.
 11311032,-0.30722285,0.00067439,0.00070727,-0.00069751,-0.00082107,0.0
 0022209,-0.00040416,-0.00007567,0.00022939,-0.00066655,0.00018974,0.00
 031013,-0.00247066,-0.00016685,0.00150040,-0.00074030,0.00015420,-0.00
 033437,-0.00030814,-0.00137744,0.00007070,-0.00105362,-0.00001846,-0.0
 0161878,0.00022628,0.00246965,-0.00202374,0.00116496,-0.19992214,-0.11
 672098,0.32629481,0.00078933,0.00087669,0.00016413,0.00034264,-0.00120
 928,-0.00099545,-0.00923318,-0.02941763,-0.01415237,0.00231352,-0.0009
 5603,0.00056326,-0.00020023,0.00051892,0.00028631,-0.06376683,-0.04746
 220,-0.01980524,0.00346417,0.02385975,0.00228800,-0.00431005,0.0021967
 1,0.00160889,-0.00318553,-0.00237179,-0.00015168,0.00010248,0.00003279
 ,0.00003521,-0.00014980,0.00005429,0.00026698,-0.00038449,0.00028520,0
 .00077525,0.00027317,-0.00028222,0.00037440,-0.00019640,0.00012041,-0.
 00020749,-0.00010433,-0.00008659,-0.00002602,0.06778984,0.00044029,0.0
 0061376,0.00009175,0.00016982,-0.00020939,-0.00027319,-0.00206319,-0.0
 0346219,-0.00259946,0.00019828,0.00045838,0.00018361,-0.00035771,0.000
 32161,0.00008616,-0.04572339,-0.24780997,-0.09349968,0.00536621,-0.029
 04906,0.00190818,-0.00002377,0.00044629,0.00042782,-0.00009718,0.00031
 625,0.00003378,0.00002068,-0.00002910,0.00004658,0.00014983,-0.0000107
 6,-0.00017098,-0.00039091,0.00016252,0.00053167,-0.00002254,-0.0000528
 8,0.00006250,-0.00030021,0.00002438,-0.00003254,-0.00007762,-0.0000191
 9,-0.00007421,0.04480207,0.27657375,-0.00032720,-0.00006384,0.00001733
 ,0.00086525,0.00130908,0.00025197,0.00220588,0.00250527,0.00114729,0.0
 0001306,-0.00034149,-0.00018812,-0.00012325,0.00027503,0.00011141,-0.0
 2262936,-0.09701532,-0.10130991,0.00176820,0.02585338,0.00991368,0.000
 46217,-0.00006253,0.00001182,-0.00022316,0.00011791,0.00032465,0.00001
 004,0.00002654,-0.00002819,-0.00017803,0.00002285,0.00002779,0.0002089
 8,-0.00011956,0.00018485,0.00008327,-0.00007718,0.00004074,0.00001853,
 -0.00013594,-0.00011044,0.00002150,-0.00003378,0.00006547,0.02415292,0
 .09425798,0.09899060,-0.00189025,-0.00062193,0.00242506,-0.00433014,-0
 .00142200,-0.00339407,-0.01219479,0.00145219,0.03067783,0.00041780,-0.
 00084265,0.00228742,0.00025131,0.00001334,-0.00068410,-0.07479791,-0.0
 0074322,0.07219214,0.00527200,0.00720680,-0.02356052,0.00044153,0.0010
 3181,0.00130861,0.00073871,0.00006680,-0.00086232,-0.00056363,-0.00010
 225,-0.00018176,-0.00005814,-0.00009828,0.00001454,-0.00008646,0.00008
 151,-0.00010863,-0.00004694,-0.00001410,0.00009415,-0.00035741,0.00069
 106,-0.00072290,0.00016259,-0.00026791,0.00008590,0.00470238,-0.001160
 15,-0.00731063,0.08090031,0.00004608,0.00029893,0.00015824,-0.00055725
 ,-0.00029481,-0.00060739,-0.00402936,-0.00008717,0.00616659,0.00065551
 ,-0.00023076,-0.00079581,0.00018997,0.00004406,0.00014515,0.00300076,-
 0.05461873,-0.01222412,-0.00191895,-0.00601637,0.03450839,-0.00077713,
 0.00014907,0.00154893,0.00050029,0.00006591,-0.00027509,-0.00002702,-0
 .00003371,0.00003157,0.00023352,-0.00003804,-0.00013319,-0.00015342,0.
 00020524,0.00030575,-0.00007170,0.00006099,-0.00002507,0.00040530,-0.0
 0009343,0.00010771,-0.00001974,-0.00003189,0.00000661,0.00879234,0.001
 73478,-0.02615399,-0.00486522,0.05831620,0.00025854,0.00016102,0.00029
 713,-0.00052202,0.00002969,0.00043391,0.00049223,-0.00069021,-0.000451
 99,-0.00053907,0.00049706,0.00062973,-0.00028167,-0.00008735,0.0004298
 5,0.07173666,-0.00982010,-0.28048191,-0.00492437,0.01281998,-0.0164578
 7,-0.00043248,-0.00034840,0.00045847,-0.00002762,0.00008988,0.00051412
 ,-0.00009403,0.00002547,0.00007372,-0.00033545,-0.00012669,0.00022132,
 -0.00007462,0.00006933,0.00014894,0.00004145,0.00002541,-0.00008219,0.
 00013374,-0.00033025,0.00025771,-0.00013324,0.00013693,-0.00008721,0.0
 0546784,-0.00097255,-0.01037395,-0.07187525,-0.00233918,0.30465616,0.0
 0055352,0.00006504,-0.00021612,-0.00013909,0.00016131,0.00003599,0.000
 72364,0.00284677,-0.00170500,-0.00057821,-0.00003061,0.00008831,-0.000
 01852,-0.00009234,-0.00006084,-0.01771260,-0.00467165,0.00179393,-0.49
 081971,-0.04729327,-0.00402569,-0.00031603,-0.00015331,-0.00021711,0.0
 0069438,0.00024823,0.00014025,-0.00004293,-0.00001642,0.00009863,-0.00
 018546,-0.00008355,0.00006770,-0.00006534,0.00002374,0.00006062,-0.000
 10807,0.00000933,-0.00014262,-0.00001863,0.00004121,-0.00004508,-0.000
 10811,0.00006996,-0.00000191,0.00149229,-0.00133963,0.00105441,0.00157
 416,-0.00134058,0.00097198,0.50533619,-0.00041734,-0.00006865,-0.00007
 686,0.00016670,0.00004725,0.00028024,0.00182301,-0.00408991,0.00286632
 ,0.00107761,0.00050097,0.00034823,0.00012288,-0.00035814,-0.00028659,0
 .03707129,0.00114812,0.00088167,-0.09182478,-0.04253367,0.01866023,-0.
 00008132,-0.00041941,0.00048946,-0.00036179,0.00004204,-0.00046840,0.0
 0005064,0.00002954,-0.00005979,0.00021285,-0.00001280,-0.00034315,0.00
 004689,0.00000177,-0.00006653,-0.00006638,-0.00007175,0.00013667,-0.00
 008881,-0.00000903,-0.00004750,0.00008153,0.00000212,0.00013038,0.0007
 2004,0.00004882,-0.00059593,-0.00031281,0.00055592,0.00064490,0.051779
 22,0.04427907,0.00026467,-0.00022204,-0.00023737,0.00049928,0.00024774
 ,-0.00008976,-0.00096277,0.00291801,-0.00231938,-0.00091129,0.00003896
 ,0.00036433,-0.00008423,0.00004999,-0.00020577,-0.02558862,-0.00203753
 ,-0.00220120,0.02503370,0.02174763,-0.01588663,-0.00014544,0.00013052,
 0.00026634,0.00036397,-0.00011514,-0.00015345,-0.00000390,0.00001953,0
 .00009671,-0.00017929,-0.00001351,0.00075959,0.00017193,-0.00019943,0.
 00006724,-0.00004072,0.00008351,-0.00002507,-0.00001328,0.00008071,0.0
 0001278,0.00000644,0.00003254,0.00000126,0.00069018,0.00036666,0.00072
 486,-0.00078130,-0.00046327,0.00003045,0.00205626,-0.02256044,0.018713
 15,0.00019717,0.00044263,0.00068143,-0.00016275,0.00009440,0.00013555,
 0.00560284,-0.00338544,0.00491788,0.00019644,-0.00084048,-0.00128105,0
 .00063389,-0.00126429,-0.00011893,0.00132834,-0.00004518,0.00096488,-0
 .00247909,0.00016390,-0.00073746,-0.08185418,0.07300430,-0.05232622,-0
 .02644517,0.02170928,-0.02308186,0.00000628,0.00014968,0.00007914,0.00
 023969,0.00003941,-0.00016494,0.00007822,-0.00006636,0.00000159,-0.006
 00607,-0.00030805,0.00238356,-0.00002717,0.00009118,0.00011355,-0.0001
 9553,-0.00002434,0.00014008,-0.00003078,0.00029608,-0.00016732,-0.0001
 6375,0.00010711,-0.00017450,-0.00010990,0.00001006,-0.00026051,0.10251
 356,-0.00005647,0.00059817,-0.00010197,0.00040660,0.00098989,0.0017203
 4,0.00965204,-0.01637508,0.01570341,-0.00005991,-0.00229171,-0.0023727
 6,0.00074634,-0.00207179,-0.00001990,0.00127491,-0.00120540,0.00077852
 ,0.00028382,0.00093871,-0.00023983,0.08429495,-0.20726275,0.12461480,-
 0.00938844,0.00817346,-0.00804382,0.00018465,-0.00005807,-0.00010614,0
 .00009706,-0.00004737,-0.00124135,-0.00042269,0.00028560,0.00014035,-0
 .00228591,-0.00028508,0.00040017,0.00001209,-0.00023276,0.00024496,-0.
 00029316,-0.00007596,0.00038739,-0.00016811,0.00020908,-0.00010149,-0.
 00013156,0.00003525,-0.00019469,-0.00006377,0.00071629,-0.00016457,-0.
 08241490,0.21337540,-0.00029173,0.00006805,-0.00039703,0.00118760,-0.0
 0077883,0.00154757,0.00493299,-0.00960060,0.00799535,-0.00089277,-0.00
 123410,-0.00059764,0.00068708,-0.00049795,0.00033494,0.00021513,0.0005
 4819,0.00018079,-0.00098934,-0.00058050,-0.00052494,-0.06402126,0.1228
 2255,-0.15392523,0.00322326,-0.00237632,0.00323596,0.00010790,-0.00007
 383,-0.00003125,-0.00015377,-0.00023854,-0.00048173,-0.00010723,0.0001
 1662,0.00001735,0.00128859,-0.00064334,0.00077549,0.00004445,-0.000310
 61,0.00008007,-0.00014339,-0.00005623,0.00013612,-0.00002407,-0.000028
 78,-0.00001210,-0.00011388,0.00005749,0.00002467,0.00004084,0.00006410
 ,-0.00005830,0.06614342,-0.12729227,0.15254257,0.00091200,0.00118683,0
 .00125480,-0.00053551,-0.00229960,-0.00041484,0.00293140,0.00092605,-0
 .00645513,-0.00048604,0.00035744,0.00037520,0.00027792,-0.00008566,-0.
 00006557,0.00143376,-0.00017109,-0.00140927,-0.00012563,0.00022704,0.0
 0046907,-0.06612488,0.00988608,0.06117900,-0.02495978,0.00367877,0.036
 93315,0.00005406,0.00015066,0.00008705,0.00008720,-0.00000871,0.000391
 47,0.00069415,-0.00005658,-0.00052568,0.00100486,0.00016157,0.00226958
 ,0.00015722,0.00007157,0.00002706,-0.00013017,-0.00007151,-0.00002044,
 -0.00017656,0.00003494,0.00011766,-0.00015574,-0.00019417,0.00037348,-
 0.00003768,-0.00006967,-0.00006682,0.00680180,-0.00260051,-0.01107420,
 0.08328153,0.00046319,0.00076342,0.00105645,-0.00221746,-0.00628482,-0
 .00079109,0.00829005,-0.00105409,-0.02762704,0.00022957,0.00098958,-0.
 00125223,-0.00032756,0.00074138,0.00099766,0.00134200,0.00173203,-0.00
 059847,0.00015729,-0.00039106,0.00013687,0.01019401,-0.05700725,-0.032
 85878,-0.00305676,0.00134244,0.00687038,0.00001329,-0.00009709,0.00007
 125,-0.00005348,0.00001027,0.00002829,0.00059973,0.00015927,-0.0017396
 2,0.00104852,0.00051761,-0.00023056,-0.00015486,-0.00053582,0.00025604
 ,-0.00015659,0.00010033,-0.00026969,0.00016614,-0.00003363,0.00037937,
 -0.00067297,-0.00012707,0.00060555,-0.00008762,0.00011403,-0.00003697,
 -0.00784031,0.00544381,0.02021736,-0.00731579,0.05465112,0.00028618,0.
 00045651,0.00050976,-0.00075100,-0.00206962,0.00046044,0.00124196,-0.0
 0008486,-0.00675022,-0.00075998,0.00033559,0.00077233,0.00005822,0.000
 34445,0.00026662,0.00048529,-0.00023307,0.00031750,-0.00027565,0.00027
 686,0.00018363,0.07899084,-0.03084244,-0.31717575,-0.00498272,0.000368
 50,0.00763197,-0.00003455,0.00006474,0.00004764,0.00006699,0.00004979,
 0.00034633,0.00032122,0.00005603,-0.00038248,0.00085080,0.00008771,0.0
 0064732,0.00017086,-0.00028730,0.00002774,-0.00007323,0.00003588,-0.00
 012161,-0.00002976,0.00003921,0.00022964,-0.00048468,-0.00019970,0.000
 09203,-0.00004352,-0.00011913,-0.00004823,0.00493634,-0.00395175,-0.01
 120399,-0.07874771,0.03617321,0.32453466,-0.02421276,-0.00239038,0.006
 74337,-0.00210803,-0.00912597,-0.00918472,0.00071005,-0.00142774,0.000
 35461,0.00112602,-0.00165922,-0.00000718,-0.00124053,0.00103028,0.0005
 7703,-0.00057789,0.00100069,0.00009459,0.00037046,-0.00009806,0.000161
 53,-0.01904455,0.00979020,0.02970303,-0.07456717,0.02984470,0.03070132
 ,0.00129213,0.00420429,0.00100469,-0.00076577,-0.00023628,-0.00012677,
 -0.00175174,0.00015366,0.00030280,0.01038883,-0.01015684,-0.01337419,-
 0.00011472,0.00016325,-0.00003139,0.00080573,0.00031855,-0.00003987,0.
 00046837,0.00007810,-0.00002290,0.00018438,0.00002365,-0.00006162,-0.0
 0011389,0.00006017,-0.00004828,-0.00012385,0.00093298,-0.00005962,-0.0
 0490391,-0.00062039,-0.00122592,0.11417885,-0.00122639,-0.01372806,0.0
 1008715,-0.01487617,-0.00477328,0.00243453,-0.00236663,0.00130742,0.00
 242317,-0.00166827,0.00055749,0.00042382,0.00170986,-0.00130431,-0.002
 27026,-0.00053988,-0.00048060,-0.00136456,0.00049037,-0.00090596,-0.00
 045384,0.00958176,0.00701087,0.00762960,0.03453941,-0.07261299,-0.0635
 0905,0.00802369,0.00919780,0.00192155,0.00206813,0.00086036,0.00023830
 ,0.00217206,0.00051944,-0.00050287,-0.01269667,0.01380943,0.01669379,0
 .00044956,0.00061029,-0.00009244,-0.00021683,-0.00293935,0.00122906,-0
 .00047150,-0.00023345,-0.00004636,0.00071154,0.00010564,-0.00019578,-0
 .00007205,0.00007743,0.00009708,0.00008130,-0.00085971,-0.00018244,-0.
 00380764,-0.00103446,-0.00050062,-0.02188565,0.06481600,0.01550143,0.0
 2194887,0.00552664,-0.02509576,-0.00462064,0.00932346,-0.00201458,0.00
 109386,0.00459316,-0.00461373,0.00162647,0.00084162,0.00266224,-0.0025
 6996,-0.00438932,0.00075262,-0.00185026,-0.00220243,-0.00026066,-0.000
 51630,-0.00142205,0.03172093,0.00361704,0.00575643,0.01887571,-0.04296
 706,-0.14556015,0.00518726,0.00293196,-0.00470829,0.00230524,0.0008911
 9,-0.00045914,0.00563649,0.00124628,-0.00123202,0.00132828,-0.00293872
 ,-0.02092873,0.00025027,0.00042640,-0.00029997,0.00034520,-0.00262986,
 0.00399380,-0.00128128,-0.00038452,-0.00001940,0.00099437,0.00018037,-
 0.00033310,0.00004897,0.00012210,0.00018845,-0.00218461,-0.00015941,0.
 00036133,-0.00469786,-0.00138799,-0.00038532,-0.04546053,0.02594019,0.
 15135503\\-0.00000029,0.00000051,0.00000042,0.00000090,-0.00000011,0.0
 0000147,0.00000140,-0.00000086,-0.00000011,0.00000079,-0.00000254,-0.0
 0000266,-0.00000119,0.00000163,0.00000009,-0.00000225,0.00000131,-0.00
 000092,0.00000044,-0.00000056,0.00000056,0.00000043,0.00000241,0.00000
 061,0.00000200,-0.00000320,0.00000364,0.00000050,0.00000069,0.00000068
 ,0.00000044,0.00000031,-0.00000062,-0.00000012,0.00000063,-0.00000098,
 -0.00000232,0.00000179,-0.00000262,-0.00000080,-0.00000046,0.00000009,
 0.,-0.00000034,-0.00000029,0.00000016,-0.00000014,-0.00000070,-0.00000
 012,-0.00000033,-0.00000036,0.00000056,0.00000047,-0.00000056,-0.00000
 035,-0.00000078,0.00000094,-0.00000045,-0.00000072,0.00000057,0.000000
 28,0.00000029,0.00000076\\\@


 IF MATHEMATICALLY YOU END UP WITH THE INCORRECT ANSWER,
 TRY MULTIPLYING BY THE PAGE NUMBER.
 Job cpu time:       0 days  0 hours 14 minutes 15.2 seconds.
 Elapsed time:       0 days  0 hours  3 minutes 38.9 seconds.
 File lengths (MBytes):  RWF=    122 Int=      0 D2E=      0 Chk=      4 Scr=      1
 Normal termination of Gaussian 16 at Mon Jul 10 20:57:06 2023.
real 5974.16
user 22214.66
sys 74.45
