 Entering Gaussian System, Link 0=g16
 Input=gaussian_test.inp
 Output=gaussian_test.log
 Initial command:
 /sw/restricted/lms/sw/Gaussian/g16_B01/g16/l1.exe "/scratch/user/peterchao1/peterchao1/6113306_1660079070000000361853000/Gau-46472.inp" -scrdir="/scratch/user/peterchao1/peterchao1/6113306_1660079070000000361853000/"
 Entering Link 1 = /sw/restricted/lms/sw/Gaussian/g16_B01/g16/l1.exe PID=     46478.
  
 Copyright (c) 1988-2017, Gaussian, Inc.  All Rights Reserved.
  
 This is part of the Gaussian(R) 16 program.  It is based on
 the Gaussian(R) 09 system (copyright 2009, Gaussian, Inc.),
 the Gaussian(R) 03 system (copyright 2003, Gaussian, Inc.),
 the Gaussian(R) 98 system (copyright 1998, Gaussian, Inc.),
 the Gaussian(R) 94 system (copyright 1995, Gaussian, Inc.),
 the Gaussian 92(TM) system (copyright 1992, Gaussian, Inc.),
 the Gaussian 90(TM) system (copyright 1990, Gaussian, Inc.),
 the Gaussian 88(TM) system (copyright 1988, Gaussian, Inc.),
 the Gaussian 86(TM) system (copyright 1986, Carnegie Mellon
 University), and the Gaussian 82(TM) system (copyright 1983,
 Carnegie Mellon University). Gaussian is a federally registered
 trademark of Gaussian, Inc.
  
 This software contains proprietary and confidential information,
 including trade secrets, belonging to Gaussian, Inc.
  
 This software is provided under written license and may be
 used, copied, transmitted, or stored only in accord with that
 written license.
  
 The following legend is applicable only to US Government
 contracts under FAR:
  
                    RESTRICTED RIGHTS LEGEND
  
 Use, reproduction and disclosure by the US Government is
 subject to restrictions as set forth in subparagraphs (a)
 and (c) of the Commercial Computer Software - Restricted
 Rights clause in FAR 52.227-19.
  
 Gaussian, Inc.
 340 Quinnipiac St., Bldg. 40, Wallingford CT 06492
  
  
 ---------------------------------------------------------------
 Warning -- This program may not be used in any manner that
 competes with the business of Gaussian, Inc. or will provide
 assistance to any competitor of Gaussian, Inc.  The licensee
 of this program is prohibited from giving any competitor of
 Gaussian, Inc. access to this program.  By using this program,
 the user acknowledges that Gaussian, Inc. is engaged in the
 business of creating and licensing software in the field of
 computational chemistry and represents and warrants to the
 licensee that it is not a competitor of Gaussian, Inc. and that
 it will not use this program in any manner prohibited above.
 ---------------------------------------------------------------
  

 Cite this work as:
 Gaussian 16, Revision B.01,
 M. J. Frisch, G. W. Trucks, H. B. Schlegel, G. E. Scuseria, 
 M. A. Robb, J. R. Cheeseman, G. Scalmani, V. Barone, 
 G. A. Petersson, H. Nakatsuji, X. Li, M. Caricato, A. V. Marenich, 
 J. Bloino, B. G. Janesko, R. Gomperts, B. Mennucci, H. P. Hratchian, 
 J. V. Ortiz, A. F. Izmaylov, J. L. Sonnenberg, D. Williams-Young, 
 F. Ding, F. Lipparini, F. Egidi, J. Goings, B. Peng, A. Petrone, 
 T. Henderson, D. Ranasinghe, V. G. Zakrzewski, J. Gao, N. Rega, 
 G. Zheng, W. Liang, M. Hada, M. Ehara, K. Toyota, R. Fukuda, 
 J. Hasegawa, M. Ishida, T. Nakajima, Y. Honda, O. Kitao, H. Nakai, 
 T. Vreven, K. Throssell, J. A. Montgomery, Jr., J. E. Peralta, 
 F. Ogliaro, M. J. Bearpark, J. J. Heyd, E. N. Brothers, K. N. Kudin, 
 V. N. Staroverov, T. A. Keith, R. Kobayashi, J. Normand, 
 K. Raghavachari, A. P. Rendell, J. C. Burant, S. S. Iyengar, 
 J. Tomasi, M. Cossi, J. M. Millam, M. Klene, C. Adamo, R. Cammi, 
 J. W. Ochterski, R. L. Martin, K. Morokuma, O. Farkas, 
 J. B. Foresman, and D. J. Fox, Gaussian, Inc., Wallingford CT, 2016.
 
 ******************************************
 Gaussian 16:  ES64L-G16RevB.01 20-Dec-2017
                 9-Aug-2022 
 ******************************************
 %nprocshared=4
 Will use up to    4 processors via shared memory.
 %mem=8000mb
 ----------------------------------------------------------------------
 #T wB97XD/def2svpp opt=tight freq int(grid=ultrafine) scf=(verytight,q
 c)
 ----------------------------------------------------------------------
 -----
 dimer
 -----
 Symbolic Z-matrix:
 Charge =  0 Multiplicity = 1
 N                    -1.16452   0.75713  -1.63942 
 C                    -2.53567   0.80326  -1.12963 
 C                    -2.82573  -0.33017  -0.12761 
 C                    -1.89755  -0.28897   1.10255 
 N                    -1.92042   1.01141   1.76843 
 C                    -4.28552  -0.1874    0.34243 
 O                    -4.55121   1.05254   0.9336 
 C                    -2.64105  -1.69168  -0.82309 
 O                    -1.32931  -1.89785  -1.27425 
 H                    -0.51272   1.00584  -0.8959 
 H                    -1.05695   1.44457  -2.37762 
 H                    -3.21019   0.67544  -1.98305 
 H                    -2.78367   1.76179  -0.6544 
 H                    -0.88798  -0.58778   0.79328 
 H                    -2.25683  -1.03953   1.81353 
 H                    -1.32669   1.66367   1.26495 
 H                    -1.53092   0.92457   2.70071 
 H                    -4.51098  -1.00584   1.04568 
 H                    -4.96658  -0.28075  -0.50999 
 H                    -3.7828    1.25682   1.5026 
 H                    -3.34697  -1.76009  -1.66516 
 H                    -2.86542  -2.50524  -0.12626 
 H                    -1.07053  -1.05388  -1.70501 
 N                     2.97923   2.18482  -1.2723 
 C                     3.75714   1.24891  -0.4607 
 C                     2.88881   0.11447   0.11694 
 C                     2.2753   -0.71694  -1.03313 
 N                     1.63892  -1.93804  -0.54507 
 C                     3.80505  -0.78735   0.97413 
 O                     3.11379  -1.75467   1.70249 
 C                     1.80517   0.7107    1.03034 
 O                     0.89602   1.55022   0.35883 
 H                     2.73343   1.7593   -2.16014 
 H                     3.53121   3.01147  -1.47307 
 H                     4.17944   1.81698   0.37322 
 H                     4.59654   0.80384  -1.01763 
 H                     3.09324  -1.00656  -1.70105 
 H                     1.57713  -0.087    -1.602 
 H                     1.6027   -2.63282  -1.28123 
 H                     0.673    -1.7645   -0.28294 
 H                     4.34415  -0.17559   1.70482 
 H                     4.54858  -1.25807   0.31037 
 H                     2.52479  -2.19978   1.05748 
 H                     2.30166   1.27011   1.83677 
 H                     1.22902  -0.09537   1.48922 
 H                     1.44032   2.12417  -0.21577 
 
 Add virtual bond connecting atoms O32        and H10        Dist= 3.71D+00.

 GradGradGradGradGradGradGradGradGradGradGradGradGradGradGradGradGradGrad
 Initialization pass.
                           ----------------------------
                           !    Initial Parameters    !
                           ! (Angstroms and Degrees)  !
 --------------------------                            --------------------------
 ! Name  Definition              Value          Derivative Info.                !
 --------------------------------------------------------------------------------
 ! R1    R(1,2)                  1.4636         estimate D2E/DX2                !
 ! R2    R(1,10)                 1.0196         estimate D2E/DX2                !
 ! R3    R(1,11)                 1.0144         estimate D2E/DX2                !
 ! R4    R(2,3)                  1.5404         estimate D2E/DX2                !
 ! R5    R(2,12)                 1.0953         estimate D2E/DX2                !
 ! R6    R(2,13)                 1.0982         estimate D2E/DX2                !
 ! R7    R(3,4)                  1.5416         estimate D2E/DX2                !
 ! R8    R(3,6)                  1.5402         estimate D2E/DX2                !
 ! R9    R(3,8)                  1.54           estimate D2E/DX2                !
 ! R10   R(4,5)                  1.4611         estimate D2E/DX2                !
 ! R11   R(4,14)                 1.0973         estimate D2E/DX2                !
 ! R12   R(4,15)                 1.0945         estimate D2E/DX2                !
 ! R13   R(5,16)                 1.0156         estimate D2E/DX2                !
 ! R14   R(5,17)                 1.0141         estimate D2E/DX2                !
 ! R15   R(6,7)                  1.3991         estimate D2E/DX2                !
 ! R16   R(6,18)                 1.1024         estimate D2E/DX2                !
 ! R17   R(6,19)                 1.0951         estimate D2E/DX2                !
 ! R18   R(7,20)                 0.9777         estimate D2E/DX2                !
 ! R19   R(8,9)                  1.4024         estimate D2E/DX2                !
 ! R20   R(8,21)                 1.1009         estimate D2E/DX2                !
 ! R21   R(8,22)                 1.0944         estimate D2E/DX2                !
 ! R22   R(9,23)                 0.9822         estimate D2E/DX2                !
 ! R23   R(10,32)                1.9635         estimate D2E/DX2                !
 ! R24   R(24,25)                1.4628         estimate D2E/DX2                !
 ! R25   R(24,33)                1.0148         estimate D2E/DX2                !
 ! R26   R(24,34)                1.0141         estimate D2E/DX2                !
 ! R27   R(25,26)                1.541          estimate D2E/DX2                !
 ! R28   R(25,35)                1.0938         estimate D2E/DX2                !
 ! R29   R(25,36)                1.1013         estimate D2E/DX2                !
 ! R30   R(26,27)                1.5461         estimate D2E/DX2                !
 ! R31   R(26,29)                1.5452         estimate D2E/DX2                !
 ! R32   R(26,31)                1.5376         estimate D2E/DX2                !
 ! R33   R(27,28)                1.4609         estimate D2E/DX2                !
 ! R34   R(27,37)                1.095          estimate D2E/DX2                !
 ! R35   R(27,38)                1.099          estimate D2E/DX2                !
 ! R36   R(28,39)                1.0129         estimate D2E/DX2                !
 ! R37   R(28,40)                1.0158         estimate D2E/DX2                !
 ! R38   R(29,30)                1.3943         estimate D2E/DX2                !
 ! R39   R(29,41)                1.0949         estimate D2E/DX2                !
 ! R40   R(29,42)                1.1023         estimate D2E/DX2                !
 ! R41   R(30,43)                0.9803         estimate D2E/DX2                !
 ! R42   R(31,32)                1.4079         estimate D2E/DX2                !
 ! R43   R(31,44)                1.0999         estimate D2E/DX2                !
 ! R44   R(31,45)                1.0919         estimate D2E/DX2                !
 ! R45   R(32,46)                0.9777         estimate D2E/DX2                !
 ! A1    A(2,1,10)             109.7077         estimate D2E/DX2                !
 ! A2    A(2,1,11)             109.3567         estimate D2E/DX2                !
 ! A3    A(10,1,11)            107.3124         estimate D2E/DX2                !
 ! A4    A(1,2,3)              112.3208         estimate D2E/DX2                !
 ! A5    A(1,2,12)             107.5696         estimate D2E/DX2                !
 ! A6    A(1,2,13)             112.941          estimate D2E/DX2                !
 ! A7    A(3,2,12)             107.7597         estimate D2E/DX2                !
 ! A8    A(3,2,13)             108.554          estimate D2E/DX2                !
 ! A9    A(12,2,13)            107.4552         estimate D2E/DX2                !
 ! A10   A(2,3,4)              112.7085         estimate D2E/DX2                !
 ! A11   A(2,3,6)              107.9854         estimate D2E/DX2                !
 ! A12   A(2,3,8)              109.5227         estimate D2E/DX2                !
 ! A13   A(4,3,6)              108.944          estimate D2E/DX2                !
 ! A14   A(4,3,8)              108.1679         estimate D2E/DX2                !
 ! A15   A(6,3,8)              109.4773         estimate D2E/DX2                !
 ! A16   A(3,4,5)              112.2115         estimate D2E/DX2                !
 ! A17   A(3,4,14)             108.7691         estimate D2E/DX2                !
 ! A18   A(3,4,15)             107.6016         estimate D2E/DX2                !
 ! A19   A(5,4,14)             112.6557         estimate D2E/DX2                !
 ! A20   A(5,4,15)             108.0067         estimate D2E/DX2                !
 ! A21   A(14,4,15)            107.358          estimate D2E/DX2                !
 ! A22   A(4,5,16)             109.6637         estimate D2E/DX2                !
 ! A23   A(4,5,17)             109.6786         estimate D2E/DX2                !
 ! A24   A(16,5,17)            106.6311         estimate D2E/DX2                !
 ! A25   A(3,6,7)              113.0213         estimate D2E/DX2                !
 ! A26   A(3,6,18)             108.6453         estimate D2E/DX2                !
 ! A27   A(3,6,19)             110.1205         estimate D2E/DX2                !
 ! A28   A(7,6,18)             110.4615         estimate D2E/DX2                !
 ! A29   A(7,6,19)             106.6392         estimate D2E/DX2                !
 ! A30   A(18,6,19)            107.8242         estimate D2E/DX2                !
 ! A31   A(6,7,20)             106.3687         estimate D2E/DX2                !
 ! A32   A(3,8,9)              112.7952         estimate D2E/DX2                !
 ! A33   A(3,8,21)             108.8725         estimate D2E/DX2                !
 ! A34   A(3,8,22)             110.187          estimate D2E/DX2                !
 ! A35   A(9,8,21)             110.1542         estimate D2E/DX2                !
 ! A36   A(9,8,22)             106.6967         estimate D2E/DX2                !
 ! A37   A(21,8,22)            108.0198         estimate D2E/DX2                !
 ! A38   A(8,9,23)             105.1407         estimate D2E/DX2                !
 ! A39   A(25,24,33)           110.2401         estimate D2E/DX2                !
 ! A40   A(25,24,34)           109.9948         estimate D2E/DX2                !
 ! A41   A(33,24,34)           107.485          estimate D2E/DX2                !
 ! A42   A(24,25,26)           112.292          estimate D2E/DX2                !
 ! A43   A(24,25,35)           107.2191         estimate D2E/DX2                !
 ! A44   A(24,25,36)           112.5394         estimate D2E/DX2                !
 ! A45   A(26,25,35)           108.3065         estimate D2E/DX2                !
 ! A46   A(26,25,36)           108.756          estimate D2E/DX2                !
 ! A47   A(35,25,36)           107.5278         estimate D2E/DX2                !
 ! A48   A(25,26,27)           109.9168         estimate D2E/DX2                !
 ! A49   A(25,26,29)           107.6667         estimate D2E/DX2                !
 ! A50   A(25,26,31)           109.5328         estimate D2E/DX2                !
 ! A51   A(27,26,29)           109.5186         estimate D2E/DX2                !
 ! A52   A(27,26,31)           111.7626         estimate D2E/DX2                !
 ! A53   A(29,26,31)           108.3416         estimate D2E/DX2                !
 ! A54   A(26,27,28)           111.952          estimate D2E/DX2                !
 ! A55   A(26,27,37)           107.4307         estimate D2E/DX2                !
 ! A56   A(26,27,38)           109.201          estimate D2E/DX2                !
 ! A57   A(28,27,37)           107.9445         estimate D2E/DX2                !
 ! A58   A(28,27,38)           112.0425         estimate D2E/DX2                !
 ! A59   A(37,27,38)           108.0832         estimate D2E/DX2                !
 ! A60   A(27,28,39)           110.2492         estimate D2E/DX2                !
 ! A61   A(27,28,40)           110.9551         estimate D2E/DX2                !
 ! A62   A(39,28,40)           105.7078         estimate D2E/DX2                !
 ! A63   A(26,29,30)           113.6239         estimate D2E/DX2                !
 ! A64   A(26,29,41)           109.6385         estimate D2E/DX2                !
 ! A65   A(26,29,42)           108.3707         estimate D2E/DX2                !
 ! A66   A(30,29,41)           106.447          estimate D2E/DX2                !
 ! A67   A(30,29,42)           110.6537         estimate D2E/DX2                !
 ! A68   A(41,29,42)           107.9596         estimate D2E/DX2                !
 ! A69   A(29,30,43)           105.6143         estimate D2E/DX2                !
 ! A70   A(26,31,32)           113.7654         estimate D2E/DX2                !
 ! A71   A(26,31,44)           108.3392         estimate D2E/DX2                !
 ! A72   A(26,31,45)           109.5888         estimate D2E/DX2                !
 ! A73   A(32,31,44)           109.7497         estimate D2E/DX2                !
 ! A74   A(32,31,45)           107.4517         estimate D2E/DX2                !
 ! A75   A(44,31,45)           107.7892         estimate D2E/DX2                !
 ! A76   A(10,32,31)           127.0681         estimate D2E/DX2                !
 ! A77   A(10,32,46)           100.7556         estimate D2E/DX2                !
 ! A78   A(31,32,46)           105.7161         estimate D2E/DX2                !
 ! A79   L(1,10,32,4,-1)       186.907          estimate D2E/DX2                !
 ! A80   L(1,10,32,4,-2)       178.3296         estimate D2E/DX2                !
 ! D1    D(10,1,2,3)           -69.6692         estimate D2E/DX2                !
 ! D2    D(10,1,2,12)          171.9154         estimate D2E/DX2                !
 ! D3    D(10,1,2,13)           53.5118         estimate D2E/DX2                !
 ! D4    D(11,1,2,3)           172.8872         estimate D2E/DX2                !
 ! D5    D(11,1,2,12)           54.4718         estimate D2E/DX2                !
 ! D6    D(11,1,2,13)          -63.9318         estimate D2E/DX2                !
 ! D7    D(2,1,32,31)          106.8814         estimate D2E/DX2                !
 ! D8    D(2,1,32,46)         -135.8006         estimate D2E/DX2                !
 ! D9    D(11,1,32,31)        -134.4139         estimate D2E/DX2                !
 ! D10   D(11,1,32,46)         -17.0959         estimate D2E/DX2                !
 ! D11   D(1,2,3,4)             59.5951         estimate D2E/DX2                !
 ! D12   D(1,2,3,6)            179.9836         estimate D2E/DX2                !
 ! D13   D(1,2,3,8)            -60.8693         estimate D2E/DX2                !
 ! D14   D(12,2,3,4)           177.8984         estimate D2E/DX2                !
 ! D15   D(12,2,3,6)           -61.7131         estimate D2E/DX2                !
 ! D16   D(12,2,3,8)            57.434          estimate D2E/DX2                !
 ! D17   D(13,2,3,4)           -66.0142         estimate D2E/DX2                !
 ! D18   D(13,2,3,6)            54.3742         estimate D2E/DX2                !
 ! D19   D(13,2,3,8)           173.5213         estimate D2E/DX2                !
 ! D20   D(2,3,4,5)             54.05           estimate D2E/DX2                !
 ! D21   D(2,3,4,14)           -71.2737         estimate D2E/DX2                !
 ! D22   D(2,3,4,15)           172.7255         estimate D2E/DX2                !
 ! D23   D(6,3,4,5)            -65.7867         estimate D2E/DX2                !
 ! D24   D(6,3,4,14)           168.8897         estimate D2E/DX2                !
 ! D25   D(6,3,4,15)            52.8889         estimate D2E/DX2                !
 ! D26   D(8,3,4,5)            175.2885         estimate D2E/DX2                !
 ! D27   D(8,3,4,14)            49.9649         estimate D2E/DX2                !
 ! D28   D(8,3,4,15)           -66.036          estimate D2E/DX2                !
 ! D29   D(2,3,6,7)            -58.1272         estimate D2E/DX2                !
 ! D30   D(2,3,6,18)           178.9            estimate D2E/DX2                !
 ! D31   D(2,3,6,19)            61.0172         estimate D2E/DX2                !
 ! D32   D(4,3,6,7)             64.5937         estimate D2E/DX2                !
 ! D33   D(4,3,6,18)           -58.3791         estimate D2E/DX2                !
 ! D34   D(4,3,6,19)          -176.2619         estimate D2E/DX2                !
 ! D35   D(8,3,6,7)           -177.3031         estimate D2E/DX2                !
 ! D36   D(8,3,6,18)            59.7241         estimate D2E/DX2                !
 ! D37   D(8,3,6,19)           -58.1587         estimate D2E/DX2                !
 ! D38   D(2,3,8,9)             62.0916         estimate D2E/DX2                !
 ! D39   D(2,3,8,21)           -60.4992         estimate D2E/DX2                !
 ! D40   D(2,3,8,22)          -178.7936         estimate D2E/DX2                !
 ! D41   D(4,3,8,9)            -61.0998         estimate D2E/DX2                !
 ! D42   D(4,3,8,21)           176.3094         estimate D2E/DX2                !
 ! D43   D(4,3,8,22)            58.015          estimate D2E/DX2                !
 ! D44   D(6,3,8,9)           -179.6859         estimate D2E/DX2                !
 ! D45   D(6,3,8,21)            57.7233         estimate D2E/DX2                !
 ! D46   D(6,3,8,22)           -60.5711         estimate D2E/DX2                !
 ! D47   D(3,4,5,16)           -79.8488         estimate D2E/DX2                !
 ! D48   D(3,4,5,17)           163.3704         estimate D2E/DX2                !
 ! D49   D(14,4,5,16)           43.3154         estimate D2E/DX2                !
 ! D50   D(14,4,5,17)          -73.4654         estimate D2E/DX2                !
 ! D51   D(15,4,5,16)          161.7147         estimate D2E/DX2                !
 ! D52   D(15,4,5,17)           44.9339         estimate D2E/DX2                !
 ! D53   D(3,6,7,20)           -41.8182         estimate D2E/DX2                !
 ! D54   D(18,6,7,20)           80.1407         estimate D2E/DX2                !
 ! D55   D(19,6,7,20)         -162.9551         estimate D2E/DX2                !
 ! D56   D(3,8,9,23)           -44.8218         estimate D2E/DX2                !
 ! D57   D(21,8,9,23)           77.0485         estimate D2E/DX2                !
 ! D58   D(22,8,9,23)         -165.9433         estimate D2E/DX2                !
 ! D59   D(33,24,25,26)        -73.3692         estimate D2E/DX2                !
 ! D60   D(33,24,25,35)        167.7849         estimate D2E/DX2                !
 ! D61   D(33,24,25,36)         49.7508         estimate D2E/DX2                !
 ! D62   D(34,24,25,26)        168.2757         estimate D2E/DX2                !
 ! D63   D(34,24,25,35)         49.4297         estimate D2E/DX2                !
 ! D64   D(34,24,25,36)        -68.6044         estimate D2E/DX2                !
 ! D65   D(24,25,26,27)         61.9622         estimate D2E/DX2                !
 ! D66   D(24,25,26,29)       -178.805          estimate D2E/DX2                !
 ! D67   D(24,25,26,31)        -61.1972         estimate D2E/DX2                !
 ! D68   D(35,25,26,27)       -179.8327         estimate D2E/DX2                !
 ! D69   D(35,25,26,29)        -60.5999         estimate D2E/DX2                !
 ! D70   D(35,25,26,31)         57.0079         estimate D2E/DX2                !
 ! D71   D(36,25,26,27)        -63.2584         estimate D2E/DX2                !
 ! D72   D(36,25,26,29)         55.9744         estimate D2E/DX2                !
 ! D73   D(36,25,26,31)        173.5822         estimate D2E/DX2                !
 ! D74   D(25,26,27,28)        169.9635         estimate D2E/DX2                !
 ! D75   D(25,26,27,37)         51.6228         estimate D2E/DX2                !
 ! D76   D(25,26,27,38)        -65.3677         estimate D2E/DX2                !
 ! D77   D(29,26,27,28)         51.8703         estimate D2E/DX2                !
 ! D78   D(29,26,27,37)        -66.4703         estimate D2E/DX2                !
 ! D79   D(29,26,27,38)        176.5392         estimate D2E/DX2                !
 ! D80   D(31,26,27,28)        -68.1962         estimate D2E/DX2                !
 ! D81   D(31,26,27,37)        173.4632         estimate D2E/DX2                !
 ! D82   D(31,26,27,38)         56.4726         estimate D2E/DX2                !
 ! D83   D(25,26,29,30)        171.9159         estimate D2E/DX2                !
 ! D84   D(25,26,29,41)         52.9566         estimate D2E/DX2                !
 ! D85   D(25,26,29,42)        -64.6549         estimate D2E/DX2                !
 ! D86   D(27,26,29,30)        -68.5976         estimate D2E/DX2                !
 ! D87   D(27,26,29,41)        172.4431         estimate D2E/DX2                !
 ! D88   D(27,26,29,42)         54.8316         estimate D2E/DX2                !
 ! D89   D(31,26,29,30)         53.5391         estimate D2E/DX2                !
 ! D90   D(31,26,29,41)        -65.4202         estimate D2E/DX2                !
 ! D91   D(31,26,29,42)        176.9684         estimate D2E/DX2                !
 ! D92   D(25,26,31,32)         63.2203         estimate D2E/DX2                !
 ! D93   D(25,26,31,44)        -59.1193         estimate D2E/DX2                !
 ! D94   D(25,26,31,45)       -176.4804         estimate D2E/DX2                !
 ! D95   D(27,26,31,32)        -58.8408         estimate D2E/DX2                !
 ! D96   D(27,26,31,44)        178.8196         estimate D2E/DX2                !
 ! D97   D(27,26,31,45)         61.4585         estimate D2E/DX2                !
 ! D98   D(29,26,31,32)       -179.5951         estimate D2E/DX2                !
 ! D99   D(29,26,31,44)         58.0653         estimate D2E/DX2                !
 ! D100  D(29,26,31,45)        -59.2958         estimate D2E/DX2                !
 ! D101  D(26,27,28,39)       -155.8974         estimate D2E/DX2                !
 ! D102  D(26,27,28,40)         87.3409         estimate D2E/DX2                !
 ! D103  D(37,27,28,39)        -37.8625         estimate D2E/DX2                !
 ! D104  D(37,27,28,40)       -154.6242         estimate D2E/DX2                !
 ! D105  D(38,27,28,39)         81.0269         estimate D2E/DX2                !
 ! D106  D(38,27,28,40)        -35.7348         estimate D2E/DX2                !
 ! D107  D(26,29,30,43)         50.2587         estimate D2E/DX2                !
 ! D108  D(41,29,30,43)        171.0289         estimate D2E/DX2                !
 ! D109  D(42,29,30,43)        -71.9152         estimate D2E/DX2                !
 ! D110  D(26,31,32,10)         72.1053         estimate D2E/DX2                !
 ! D111  D(26,31,32,46)        -44.994          estimate D2E/DX2                !
 ! D112  D(44,31,32,10)       -166.3359         estimate D2E/DX2                !
 ! D113  D(44,31,32,46)         76.5648         estimate D2E/DX2                !
 ! D114  D(45,31,32,10)        -49.3904         estimate D2E/DX2                !
 ! D115  D(45,31,32,46)       -166.4898         estimate D2E/DX2                !
 --------------------------------------------------------------------------------
 Number of steps in this run=    250 maximum allowed number of steps=    276.
 GradGradGradGradGradGradGradGradGradGradGradGradGradGradGradGradGradGrad

                    Distance matrix (angstroms):
                    1          2          3          4          5
     1  N    0.000000
     2  C    1.463587   0.000000
     3  C    2.495472   1.540393   0.000000
     4  C    3.024901   2.565690   1.541594   0.000000
     5  N    3.499929   2.969953   2.492868   1.461128   0.000000
     6  C    3.815824   2.492049   1.540234   2.508088   3.010698
     7  O    4.263490   2.895067   2.452618   2.978272   2.760377
     8  C    2.973753   2.515905   1.539970   2.495690   3.813392
     9  O    2.685040   2.961793   2.451870   2.925845   4.251013
    10  H    1.019568   2.046468   2.779422   2.754645   3.013360
    11  H    1.014442   2.038480   3.367610   3.977857   4.257113
    12  H    2.075939   1.095279   2.145156   3.489129   3.981207
    13  H    2.145058   1.098241   2.157672   2.842125   2.679251
    14  H    2.793435   2.889199   2.160852   1.097346   2.138755
    15  H    4.042770   3.483648   2.143569   1.094498   2.078831
    16  H    3.046878   2.817082   2.856873   2.040844   1.015610
    17  H    4.358788   3.961787   3.354148   2.039905   1.014098
    18  H    4.638603   3.450599   2.161768   2.710568   3.361940
    19  H    4.099812   2.732818   2.175292   3.466884   4.017451
    20  H    4.120361   2.947825   2.468221   2.470559   1.897190
    21  H    3.331689   2.741483   2.163424   3.453289   4.637430
    22  H    3.978158   3.472981   2.175431   2.712671   4.104831
    23  H    1.814633   2.434474   2.468326   3.025129   4.129468
    24  N    4.398147   5.687111   6.429072   5.961750   5.884687
    25  C    5.084680   6.343945   6.777802   6.065009   6.104112
    26  C    4.463997   5.608333   5.737023   4.903406   5.163394
    27  C    3.791144   5.046360   5.195188   4.707112   5.332916
    28  N    4.039897   5.028282   4.763671   4.235641   5.169179
    29  C    5.823455   6.867358   6.737212   5.725772   6.053713
    30  O    5.981761   6.817655   6.376239   5.255643   5.744466
    31  C    3.993593   4.849427   4.885637   3.835968   3.809885
    32  O    2.977888   3.814448   4.198082   3.426330   3.195255
    33  H    4.058259   5.453386   6.277038   6.023822   6.136068
    34  H    5.211483   6.465388   7.306669   6.855516   6.650407
    35  H    5.807913   6.955497   7.343938   6.472767   6.309032
    36  H    5.794706   7.133099   7.560966   6.918282   7.090566
    37  H    4.609003   5.940258   6.161769   5.769149   6.422331
    38  H    2.868895   4.234481   4.649524   4.407804   4.979877
    39  H    4.390616   5.381050   5.122886   4.840221   5.915503
    40  H    3.402224   4.195933   3.784510   3.271770   4.317363
    41  H    6.511475   7.504947   7.401948   6.271711   6.376351
    42  H    6.364132   7.517269   7.445350   6.566526   7.008884
    43  H    5.443125   6.277741   5.790335   4.817712   5.529660
    44  H    4.935726   5.693616   5.719246   4.539068   4.230553
    45  H    4.030403   4.673203   4.371528   3.156331   3.349910
    46  H    3.268139   4.288177   4.922466   4.324642   4.058309
                    6          7          8          9         10
     6  C    0.000000
     7  O    1.399113   0.000000
     8  C    2.515071   3.776956   0.000000
     9  O    3.778686   4.894897   1.402392   0.000000
    10  H    4.146242   4.433808   3.436815   3.039966   0.000000
    11  H    4.526109   4.829875   3.842136   3.530355   1.638348
    12  H    2.703459   3.232241   2.696790   3.265258   2.927014
    13  H    2.654909   2.479705   3.460528   3.986523   2.405625
    14  H    3.450632   4.016168   2.627638   2.487113   2.352398
    15  H    2.646859   3.227264   2.743116   3.336373   3.816604
    16  H    3.610008   3.298602   4.164830   4.374012   2.400952
    17  H    3.792858   3.501599   4.527063   4.879245   3.738847
    18  H    1.102379   2.061821   2.731177   4.037423   4.878802
    19  H    1.095066   2.008511   2.738039   4.053249   4.651999
    20  H    1.919505   0.977730   3.925057   4.866461   4.063156
    21  H    2.717468   4.014299   1.100946   2.059787   4.034240
    22  H    2.758392   4.077125   1.094433   2.011570   4.295950
    23  H    3.908827   4.849159   1.910782   0.982246   2.282159
    24  N    7.810976   7.928147   6.842262   5.935633   3.704774
    25  C    8.209289   8.426821   7.050904   6.036226   4.298858
    26  C    7.184217   7.543260   5.892805   4.876208   3.659339
    27  C    6.724349   7.321218   5.016439   3.800774   3.280214
    28  N    6.241101   7.031903   4.296055   3.056747   3.663196
    29  C    8.137338   8.556509   6.752774   5.714025   5.035437
    30  O    7.684788   8.199020   6.284960   5.350016   5.246298
    31  C    6.194859   6.366296   5.382887   4.684086   3.028215
    32  O    5.465158   5.500033   4.941426   4.416815   1.963478
    33  H    7.701824   7.945856   6.525484   5.537635   3.564190
    34  H    8.638869   8.657652   7.787094   6.911268   4.550716
    35  H    8.699081   8.781947   7.762789   6.845472   4.927974
    36  H    9.040099   9.356844   7.658211   6.517727   5.114701
    37  H    7.700192   8.343793   5.841429   4.531617   4.207249
    38  H    6.177501   6.729360   4.579816   3.440060   2.461769
    39  H    6.579319   7.507187   4.370927   3.022731   4.226494
    40  H    5.240729   6.058714   3.358566   2.238242   3.075130
    41  H    8.736557   9.012795   7.581678   6.635452   5.634595
    42  H    8.898803   9.409223   7.291330   6.121272   5.674247
    43  H    7.137321   7.788630   5.520925   4.514670   4.828888
    44  H    6.910015   6.915551   6.346447   5.735710   3.931669
    45  H    5.633272   5.919244   4.782511   4.175019   3.151998
    46  H    6.200011   6.194175   5.620239   4.996789   2.351081
                   11         12         13         14         15
    11  H    0.000000
    12  H    2.320275   0.000000
    13  H    2.460022   1.768446   0.000000
    14  H    3.770098   3.833587   3.348122   0.000000
    15  H    5.017593   4.273646   3.770362   1.765994   0.000000
    16  H    3.659112   3.882482   2.411702   2.341792   2.910909
    17  H    5.126847   4.981932   3.677918   2.517716   2.274139
    18  H    5.445534   3.700268   3.678808   3.655767   2.381584
    19  H    4.663683   2.483768   2.992970   4.292756   3.649280
    20  H    4.745698   3.579900   2.430205   3.505092   2.774613
    21  H    4.002703   2.459991   3.707097   3.669446   3.716030
    22  H    4.892868   3.699084   4.300362   2.903866   2.506284
    23  H    2.587442   2.765135   3.459282   2.547941   3.713166
    24  N    4.249759   6.410324   5.811350   5.187411   6.880049
    25  C    5.185402   7.154727   6.563752   5.150054   6.824728
    26  C    4.853973   6.474752   5.956986   3.900605   5.539649
    27  C    4.193287   5.738604   5.646300   3.654963   5.361686
    28  N    4.697659   5.693140   5.767147   3.162208   4.641889
    29  C    6.313063   7.752302   7.249928   4.700747   6.124909
    30  O    6.654144   7.712419   7.259516   4.266437   5.419163
    31  C    4.510488   5.851115   5.000057   2.999216   4.491826
    32  O    3.363550   4.807350   3.822507   2.818234   4.331673
    33  H    3.809637   6.044226   5.718887   5.229344   6.966069
    34  H    4.931997   7.152869   6.489196   6.133530   7.791901
    35  H    5.926685   7.839751   7.038747   5.624773   7.187467
    36  H    5.849967   7.867246   7.450988   5.941045   7.640825
    37  H    4.867225   6.530072   6.580074   4.716691   6.401298
    38  H    3.144145   4.862599   4.830377   3.473457   5.222297
    39  H    4.990078   5.882256   6.240651   3.832651   5.197310
    40  H    4.204590   4.891095   4.951898   2.231492   3.674866
    41  H    6.961549   8.449417   7.754044   5.326910   6.658160
    42  H    6.778757   8.318455   7.988257   5.498968   6.972863
    43  H    6.157121   7.099416   6.841374   3.783564   4.978121
    44  H    5.391827   6.732392   5.684035   3.835938   5.110262
    45  H    4.748637   5.688354   4.913841   2.282212   3.625983
    46  H    3.372213   5.181631   4.262136   3.714005   5.272185
                   16         17         18         19         20
    16  H    0.000000
    17  H    1.627699   0.000000
    18  H    4.161016   3.917440   0.000000
    19  H    4.492205   4.854389   1.775792   0.000000
    20  H    2.500891   2.572311   2.420464   2.795704   0.000000
    21  H    4.938538   5.437482   3.045072   2.479114   4.396178
    22  H    4.656492   4.640711   2.515853   3.083907   4.200932
    23  H    4.033774   4.851452   4.405143   4.147888   4.794212
    24  N    5.024956   6.141218   8.465021   8.354397   7.367921
    25  C    5.384725   6.169552   8.701434   8.856950   7.791360
    26  C    4.635559   5.183260   7.541522   7.890268   6.909077
    27  C    4.891094   5.578840   7.103413   7.273834   6.857562
    28  N    5.004329   5.364467   6.420338   6.810316   6.617783
    29  C    5.694457   5.863817   8.319207   8.910705   7.876121
    30  O    5.620895   5.454192   7.689562   8.506465   7.528082
    31  C    3.282032   3.737030   6.545265   7.015134   5.634413
    32  O    2.402994   3.430148   6.020039   6.203011   4.825520
    33  H    5.312715   6.519919   8.390752   8.134792   7.491952
    34  H    5.736945   6.884828   9.335937   9.163982   8.088766
    35  H    5.579979   6.230721   9.162092   9.424973   8.061419
    36  H    6.405797   7.168442   9.512057   9.637807   8.761858
    37  H    5.955091   6.669910   8.085095   8.179616   7.916198
    38  H    4.440316   5.403388   6.702206   6.637025   6.338232
    39  H    5.790005   6.191158   6.740819   7.020144   7.202953
    40  H    4.259940   4.581544   5.405039   5.835915   5.671917
    41  H    5.977860   6.059590   8.918359   9.571106   8.254691
    42  H    6.630733   6.887527   9.092853   9.600332   8.783958
    43  H    5.459238   5.376862   7.136369   7.890519   7.206381
    44  H    3.694159   3.943920   7.226191   7.793566   6.093640
    45  H    3.110656   3.182024   5.828663   6.512805   5.191040
    46  H    3.171896   4.332804   6.841503   6.849705   5.566508
                   21         22         23         24         25
    21  H    0.000000
    22  H    1.776327   0.000000
    23  H    2.383796   2.796514   0.000000
    24  N    7.465749   7.580892   5.203554   0.000000
    25  C    7.808534   7.619960   5.491594   1.462797   0.000000
    26  C    6.750909   6.327174   4.512307   2.494899   1.540983
    27  C    5.753039   5.517911   3.429212   2.995488   2.527477
    28  N    5.113249   4.559183   3.077060   4.395822   3.827617
    29  C    7.685271   6.975464   5.569568   3.816050   2.491465
    30  O    7.285775   6.297511   5.441574   4.938332   3.756970
    31  C    6.317833   5.787431   4.343446   2.975499   2.514572
    32  O    5.749576   5.552516   3.861099   2.720857   2.991391
    33  H    7.042891   7.325980   4.753023   1.014761   2.048555
    34  H    8.373409   8.553640   6.144662   1.014070   2.045129
    35  H    8.578882   8.280160   6.334277   2.069671   1.093824
    36  H    8.372121   8.211298   6.003278   2.141886   1.101302
    37  H    6.484243   6.342841   4.164044   3.222069   2.658269
    38  H    5.200956   5.268957   2.820563   2.689932   2.799945
    39  H    5.040659   4.616740   3.133492   5.010443   4.514723
    40  H    4.250961   3.618511   2.359482   4.679176   4.315579
    41  H    8.545214   7.794740   6.458877   4.037053   2.657678
    42  H    8.154411   7.530833   5.973094   4.101364   2.739684
    43  H    6.487191   5.527106   4.676620   4.985895   3.964475
    44  H    7.304284   6.693683   5.414496   3.310906   2.719784
    45  H    5.801816   5.018134   4.050897   3.986035   3.464198
    46  H    6.332953   6.322876   4.315344   1.867669   2.488725
                   26         27         28         29         30
    26  C    0.000000
    27  C    1.546064   0.000000
    28  N    2.492644   1.460909   0.000000
    29  C    1.545169   2.524719   2.885164   0.000000
    30  O    2.461360   3.043617   2.694515   1.394295   0.000000
    31  C    1.537554   2.552863   3.086322   2.499370   2.870956
    32  O    2.468011   2.996658   3.679245   3.782226   4.200742
    33  H    2.813305   2.758946   4.180512   4.178207   5.235702
    34  H    3.366515   3.958776   5.379550   4.527120   5.742349
    35  H    2.151733   3.467616   4.625763   2.698856   3.957186
    36  H    2.163066   2.775106   4.060636   2.669361   4.017914
    37  H    2.145600   1.095003   2.078222   2.776927   3.484854
    38  H    2.171604   1.099038   2.132435   3.477152   4.007764
    39  H    3.340142   2.045609   1.012898   3.652773   3.457909
    40  H    2.932620   2.056095   1.015789   3.513515   3.146349
    41  H    2.173364   3.474135   3.935292   1.094894   2.001824
    42  H    2.162432   2.695485   3.108098   1.102269   2.059911
    43  H    2.524459   2.575214   1.849716   1.908133   0.980349
    44  H    2.153613   3.490758   4.050257   2.690252   3.134792
    45  H    2.163811   2.800590   2.775209   2.716629   2.520151
    46  H    2.499546   3.072002   4.080370   3.935070   4.639580
                   31         32         33         34         35
    31  C    0.000000
    32  O    1.407922   0.000000
    33  H    3.484302   3.124897   0.000000
    34  H    3.813111   3.526379   1.635983   0.000000
    35  H    2.700524   3.294266   2.917560   2.292550   0.000000
    36  H    3.463331   4.018159   2.385248   2.493188   1.770568
    37  H    3.473993   3.950695   2.826691   4.048249   3.668079
    38  H    2.759991   2.643716   2.248854   3.665451   3.781356
    39  H    4.069825   4.548291   4.619706   5.967738   5.401621
    40  H    3.022111   3.383632   4.492929   5.691721   5.054969
    41  H    2.772520   4.084074   4.612603   4.573535   2.402216
    42  H    3.452642   4.607601   4.301473   4.737578   3.097766
    43  H    2.998257   4.147711   5.105968   5.879943   4.397783
    44  H    1.099893   2.058777   4.049811   3.936899   2.442766
    45  H    1.091909   2.024007   4.361287   4.871107   3.688836
    46  H    1.919321   0.977674   2.363438   2.596141   2.818521
                   36         37         38         39         40
    36  H    0.000000
    37  H    2.450412   0.000000
    38  H    3.201867   1.775954   0.000000
    39  H    4.565435   2.245592   2.566077   0.000000
    40  H    4.746617   2.905702   2.317630   1.617064   0.000000
    41  H    2.904265   3.722266   4.312696   4.740257   4.466900
    42  H    2.453030   2.495412   3.722648   3.619579   3.953306
    43  H    4.197620   3.058826   3.526299   2.550949   2.327087
    44  H    3.692089   4.280886   3.767202   5.044134   4.044077
    45  H    4.293380   3.805710   3.110771   3.775405   2.497143
    46  H    3.513978   3.839231   2.613353   4.877551   3.964224
                   41         42         43         44         45
    41  H    0.000000
    42  H    1.777092   0.000000
    43  H    2.797586   2.353874   0.000000
    44  H    2.505836   3.710826   3.563320   0.000000
    45  H    3.123611   3.709588   2.508785   1.770839   0.000000
    46  H    4.172506   4.623599   4.636145   2.384164   2.806774
                   46
    46  H    0.000000
 Framework group  C1[X(C10H28N4O4)]
 Deg. of freedom   132
                         Standard orientation:                         
 ---------------------------------------------------------------------
 Center     Atomic      Atomic             Coordinates (Angstroms)
 Number     Number       Type             X           Y           Z
 ---------------------------------------------------------------------
      1          7           0        1.165943   -0.792217   -1.616153
      2          6           0        2.538320   -0.841985   -1.109998
      3          6           0        2.842679    0.307311   -0.130563
      4          6           0        1.918337    0.298368    1.103140
      5          7           0        1.930956   -0.989347    1.793451
      6          6           0        4.302621    0.159313    0.337397
      7          8           0        4.558368   -1.071748    0.951076
      8          6           0        2.668753    1.657161   -0.851092
      9          8           0        1.357536    1.867472   -1.301850
     10          1           0        0.514311   -1.020498   -0.865964
     11          1           0        1.049252   -1.492412   -2.340861
     12          1           0        3.211123   -0.736862   -1.967857
     13          1           0        2.778693   -1.793723   -0.617505
     14          1           0        0.910645    0.601055    0.791522
     15          1           0        2.287244    1.058719    1.798625
     16          1           0        1.329264   -1.645228    1.304320
     17          1           0        1.545487   -0.881132    2.725168
     18          1           0        4.538344    0.988675    1.024297
     19          1           0        4.981641    0.229924   -0.518824
     20          1           0        3.789965   -1.257777    1.526320
     21          1           0        3.372430    1.702798   -1.696573
     22          1           0        2.903316    2.481530   -0.170518
     23          1           0        1.089177    1.018056   -1.715715
     24          7           0       -2.990084   -2.172488   -1.208730
     25          6           0       -3.756185   -1.213912   -0.412492
     26          6           0       -2.875008   -0.077222    0.140766
     27          6           0       -2.257433    0.726318   -1.026812
     28          7           0       -1.607671    1.950196   -0.564009
     29          6           0       -3.779599    0.849476    0.983673
     30          8           0       -3.076589    1.823652    1.691357
     31          6           0       -1.794055   -0.666559    1.061795
     32          8           0       -0.895327   -1.527384    0.403380
     33          1           0       -2.743220   -1.766224   -2.105251
     34          1           0       -3.550679   -2.997394   -1.392038
     35          1           0       -4.181091   -1.762000    0.433384
     36          1           0       -4.593152   -0.771331   -0.975051
     37          1           0       -3.074822    1.011172   -1.697459
     38          1           0       -1.567303    0.078995   -1.585898
     39          1           0       -1.567268    2.630552   -1.313306
     40          1           0       -0.642581    1.772294   -0.301750
     41          1           0       -4.322076    0.256888    1.727548
     42          1           0       -4.520819    1.314747    0.313515
     43          1           0       -2.485527    2.250761    1.036141
     44          1           0       -2.293164   -1.205784    1.880264
     45          1           0       -1.208616    0.142420    1.503474
     46          1           0       -1.447073   -2.106796   -0.158496
 ---------------------------------------------------------------------
 Rotational constants (GHZ):           0.6417477           0.2106965           0.2007303
   308 basis functions,   562 primitive gaussians,   326 cartesian basis functions
    74 alpha electrons       74 beta electrons
       nuclear repulsion energy      1611.5314003051 Hartrees.
 NAtoms=   46 NActive=   46 NUniq=   46 SFac= 1.00D+00 NAtFMM=   60 NAOKFM=F Big=F
 Nuclear repulsion after empirical dispersion term =     1611.4855693718 Hartrees.
   1 Symmetry operations used in ECPInt.
 ECPInt:  NShTT=   13530 NPrTT=   54274 LenC2=   12752 LenP2D=   35631.
 LDataN:  DoStor=T MaxTD1= 4 Len=   56
 ExpMin= 1.22D-01 ExpMax= 2.27D+03 ExpMxC= 3.41D+02 IAcc=3 IRadAn=         5 AccDes= 0.00D+00
 Harris functional with IExCor= 4639 and IRadAn=       5 diagonalized for initial guess.
 HarFok:  IExCor= 4639 AccDes= 0.00D+00 IRadAn=         5 IDoV= 1 UseB2=F ITyADJ=14
 ICtDFT=  3500011 ScaDFX=  1.000000  1.000000  1.000000  1.000000
 FoFCou: FMM=F IPFlag=           0 FMFlag=      100000 FMFlg1=           0
         NFxFlg=           0 DoJE=T BraDBF=F KetDBF=T FulRan=T
         wScrn=  0.000000 ICntrl=       500 IOpCl=  0 I1Cent=   200000004 NGrid=           0
         NMat0=    1 NMatS0=      1 NMatT0=    0 NMatD0=    1 NMtDS0=    0 NMtDT0=    0
 Petite list used in FoFCou.
     Minimum is close to point  3 DX=  5.70D-02 DF= -7.20D-04 DXR=  8.68D-02 DFR=  7.53D-03 which will be used.
     Accept linear search using points  2 and  3.
     Accept linear search using points  1 and  2.
     Minimum is close to point  2 DX= -3.03D-02 DF= -1.80D-06 DXR=  4.53D-02 DFR=  7.86D-04 which will be used.
     Accept linear search using points  1 and  2.
     Accept linear search using points  2 and  3.
     Accept linear search using points  2 and  3.
     Minimum is close to point  2 DX=  9.37D-06 DF=  0.00D+00 DXR=  9.37D-06 DFR=  0.00D+00 which will be used.
 SCF Done:  E(RwB97XD) =  -916.786203781     a.u. after    8 cycles
            Convg  =    0.3807D-09                    34 Fock formations.
              S**2 =  0.0000                  -V/T =  2.0086

 **********************************************************************

            Population analysis using the SCF Density.

 **********************************************************************

 Orbital symmetries:
       Occupied  (A) (A) (A) (A) (A) (A) (A) (A) (A) (A) (A) (A)
                 (A) (A) (A) (A) (A) (A) (A) (A) (A) (A) (A) (A)
                 (A) (A) (A) (A) (A) (A) (A) (A) (A) (A) (A) (A)
                 (A) (A) (A) (A) (A) (A) (A) (A) (A) (A) (A) (A)
                 (A) (A) (A) (A) (A) (A) (A) (A) (A) (A) (A) (A)
                 (A) (A) (A) (A) (A) (A) (A) (A) (A) (A) (A) (A)
                 (A) (A)
       Virtual   (A) (A) (A) (A) (A) (A) (A) (A) (A) (A) (A) (A)
                 (A) (A) (A) (A) (A) (A) (A) (A) (A) (A) (A) (A)
                 (A) (A) (A) (A) (A) (A) (A) (A) (A) (A) (A) (A)
                 (A) (A) (A) (A) (A) (A) (A) (A) (A) (A) (A) (A)
                 (A) (A) (A) (A) (A) (A) (A) (A) (A) (A) (A) (A)
                 (A) (A) (A) (A) (A) (A) (A) (A) (A) (A) (A) (A)
                 (A) (A) (A) (A) (A) (A) (A) (A) (A) (A) (A) (A)
                 (A) (A) (A) (A) (A) (A) (A) (A) (A) (A) (A) (A)
                 (A) (A) (A) (A) (A) (A) (A) (A) (A) (A) (A) (A)
                 (A) (A) (A) (A) (A) (A) (A) (A) (A) (A) (A) (A)
                 (A) (A) (A) (A) (A) (A) (A) (A) (A) (A) (A) (A)
                 (A) (A) (A) (A) (A) (A) (A) (A) (A) (A) (A) (A)
                 (A) (A) (A) (A) (A) (A) (A) (A) (A) (A) (A) (A)
                 (A) (A) (A) (A) (A) (A) (A) (A) (A) (A) (A) (A)
                 (A) (A) (A) (A) (A) (A) (A) (A) (A) (A) (A) (A)
                 (A) (A) (A) (A) (A) (A) (A) (A) (A) (A) (A) (A)
                 (A) (A) (A) (A) (A) (A) (A) (A) (A) (A) (A) (A)
                 (A) (A) (A) (A) (A) (A) (A) (A) (A) (A) (A) (A)
                 (A) (A) (A) (A) (A) (A) (A) (A) (A) (A) (A) (A)
                 (A) (A) (A) (A) (A) (A)
 The electronic state is 1-A.
 Alpha  occ. eigenvalues --  -19.25226 -19.22351 -19.21487 -19.20772 -14.46026
 Alpha  occ. eigenvalues --  -14.42953 -14.42710 -14.42702 -10.33878 -10.33603
 Alpha  occ. eigenvalues --  -10.32896 -10.32733 -10.32322 -10.31695 -10.31383
 Alpha  occ. eigenvalues --  -10.31136 -10.31086 -10.29579  -1.11918  -1.09527
 Alpha  occ. eigenvalues --   -1.08991  -1.08081  -1.01422  -0.99061  -0.98589
 Alpha  occ. eigenvalues --   -0.97400  -0.89120  -0.87580  -0.77071  -0.76601
 Alpha  occ. eigenvalues --   -0.75538  -0.74646  -0.74522  -0.73261  -0.66107
 Alpha  occ. eigenvalues --   -0.64326  -0.62329  -0.62186  -0.61048  -0.60446
 Alpha  occ. eigenvalues --   -0.59818  -0.56994  -0.56690  -0.56354  -0.56097
 Alpha  occ. eigenvalues --   -0.55550  -0.55251  -0.54166  -0.52906  -0.51826
 Alpha  occ. eigenvalues --   -0.51038  -0.50767  -0.49504  -0.48919  -0.47887
 Alpha  occ. eigenvalues --   -0.47788  -0.47443  -0.47048  -0.46261  -0.44384
 Alpha  occ. eigenvalues --   -0.43557  -0.43053  -0.42132  -0.41058  -0.40821
 Alpha  occ. eigenvalues --   -0.39777  -0.36488  -0.35060  -0.34467  -0.33303
 Alpha  occ. eigenvalues --   -0.32787  -0.32246  -0.31825  -0.31528
 Alpha virt. eigenvalues --    0.10403   0.12667   0.13298   0.14081   0.15306
 Alpha virt. eigenvalues --    0.15595   0.16054   0.17637   0.18380   0.18536
 Alpha virt. eigenvalues --    0.19154   0.20448   0.21040   0.21239   0.21510
 Alpha virt. eigenvalues --    0.22924   0.23272   0.23928   0.24037   0.24524
 Alpha virt. eigenvalues --    0.25153   0.25677   0.25981   0.26487   0.26986
 Alpha virt. eigenvalues --    0.27703   0.28320   0.28771   0.29912   0.30399
 Alpha virt. eigenvalues --    0.30524   0.31136   0.32111   0.32963   0.33288
 Alpha virt. eigenvalues --    0.33442   0.33966   0.35544   0.35800   0.36745
 Alpha virt. eigenvalues --    0.37405   0.39399   0.40035   0.42850   0.50071
 Alpha virt. eigenvalues --    0.50316   0.52649   0.54261   0.54582   0.55911
 Alpha virt. eigenvalues --    0.56374   0.57583   0.58897   0.59698   0.60107
 Alpha virt. eigenvalues --    0.60647   0.62194   0.64735   0.65017   0.65315
 Alpha virt. eigenvalues --    0.66598   0.66995   0.67614   0.68439   0.69220
 Alpha virt. eigenvalues --    0.69772   0.70256   0.70940   0.71403   0.72086
 Alpha virt. eigenvalues --    0.72837   0.73409   0.73855   0.74109   0.75323
 Alpha virt. eigenvalues --    0.76077   0.76749   0.77216   0.78042   0.79067
 Alpha virt. eigenvalues --    0.79433   0.80212   0.80471   0.80686   0.80862
 Alpha virt. eigenvalues --    0.81653   0.81944   0.82265   0.82874   0.83552
 Alpha virt. eigenvalues --    0.83594   0.83967   0.85127   0.85313   0.86342
 Alpha virt. eigenvalues --    0.86819   0.87918   0.88108   0.89516   0.92978
 Alpha virt. eigenvalues --    0.94202   0.95764   0.96157   0.97065   0.99038
 Alpha virt. eigenvalues --    1.00118   1.00587   1.02864   1.04980   1.06277
 Alpha virt. eigenvalues --    1.07588   1.08472   1.10196   1.13146   1.15088
 Alpha virt. eigenvalues --    1.17129   1.17746   1.18643   1.20739   1.21805
 Alpha virt. eigenvalues --    1.22502   1.23104   1.24294   1.25308   1.27028
 Alpha virt. eigenvalues --    1.27403   1.28355   1.29203   1.30863   1.32695
 Alpha virt. eigenvalues --    1.36817   1.37515   1.38722   1.39990   1.41759
 Alpha virt. eigenvalues --    1.43672   1.44655   1.45807   1.49284   1.50962
 Alpha virt. eigenvalues --    1.52395   1.53418   1.56567   1.60152   1.63762
 Alpha virt. eigenvalues --    1.66564   1.69360   1.74995   1.76701   1.78134
 Alpha virt. eigenvalues --    1.79288   1.80709   1.81409   1.85165   1.86300
 Alpha virt. eigenvalues --    1.87528   1.90834   1.92115   1.93294   1.94292
 Alpha virt. eigenvalues --    2.00027   2.01838   2.04139   2.04666   2.04892
 Alpha virt. eigenvalues --    2.05426   2.06542   2.06799   2.08953   2.12701
 Alpha virt. eigenvalues --    2.13740   2.13965   2.14537   2.15902   2.18653
 Alpha virt. eigenvalues --    2.19222   2.21465   2.21709   2.22685   2.23390
 Alpha virt. eigenvalues --    2.24599   2.26828   2.27976   2.29103   2.37800
 Alpha virt. eigenvalues --    2.38363   2.38882   2.42810   2.43732   2.45458
 Alpha virt. eigenvalues --    2.46142   2.47182   2.48902   2.54466   2.56052
 Alpha virt. eigenvalues --    2.57454   2.59328   2.60317   2.63567   2.65317
 Alpha virt. eigenvalues --    2.69222   2.70576   2.72780   2.74334   2.75374
 Alpha virt. eigenvalues --    2.75998   2.76761   2.77634   2.79563   2.80346
 Alpha virt. eigenvalues --    2.82061   2.82702   2.85867   2.89859   2.95455
 Alpha virt. eigenvalues --    2.97785   2.98614   2.99913   3.02356   3.05047
 Alpha virt. eigenvalues --    3.05645   3.07886   3.09252   3.11797   3.11981
 Alpha virt. eigenvalues --    3.12234   3.15014   3.15945   3.16272   3.17557
 Alpha virt. eigenvalues --    3.49540   3.51961   3.52801   3.52866
          Condensed to atoms (all electrons):
 Mulliken charges:
               1
     1  N   -0.592442
     2  C   -0.047875
     3  C   -0.383324
     4  C   -0.086818
     5  N   -0.539405
     6  C    0.131830
     7  O   -0.514944
     8  C    0.118815
     9  O   -0.523646
    10  H    0.275623
    11  H    0.229274
    12  H    0.095364
    13  H    0.111816
    14  H    0.114566
    15  H    0.100393
    16  H    0.250839
    17  H    0.237391
    18  H    0.074301
    19  H    0.084183
    20  H    0.322886
    21  H    0.081674
    22  H    0.089564
    23  H    0.326491
    24  N   -0.542904
    25  C   -0.036134
    26  C   -0.386898
    27  C   -0.048506
    28  N   -0.567025
    29  C    0.123960
    30  O   -0.503686
    31  C    0.096289
    32  O   -0.517785
    33  H    0.244018
    34  H    0.243497
    35  H    0.107160
    36  H    0.100813
    37  H    0.092549
    38  H    0.096652
    39  H    0.243517
    40  H    0.278998
    41  H    0.087291
    42  H    0.075520
    43  H    0.321838
    44  H    0.086079
    45  H    0.115898
    46  H    0.332305
 Sum of Mulliken charges =   0.00000
 Mulliken charges with hydrogens summed into heavy atoms:
               1
     1  N   -0.087545
     2  C    0.159305
     3  C   -0.383324
     4  C    0.128141
     5  N   -0.051174
     6  C    0.290314
     7  O   -0.192058
     8  C    0.290053
     9  O   -0.197155
    24  N   -0.055390
    25  C    0.171839
    26  C   -0.386898
    27  C    0.140695
    28  N   -0.044511
    29  C    0.286771
    30  O   -0.181848
    31  C    0.298265
    32  O   -0.185480
 Electronic spatial extent (au):  <R**2>=           5988.1925
 Charge=              0.0000 electrons
 Dipole moment (field-independent basis, Debye):
    X=             -4.9033    Y=             -3.0411    Z=             -3.7057  Tot=              6.8573
   1 Symmetry operations used in ECPInt.
 ECPInt:  NShTT=   13530 NPrTT=   54274 LenC2=   12752 LenP2D=   35631.
 LDataN:  DoStor=T MaxTD1= 5 Len=  102
 Calling FoFJK, ICntrl=      2127 FMM=F ISym2X=0 I1Cent= 0 IOpClX= 0 NMat=1 NMatS=1 NMatT=0.

 GradGradGradGradGradGradGradGradGradGradGradGradGradGradGradGradGradGrad
 FormGI is forming the generalized inverse of G from B-inverse, IUseBI=4.
 Internal  Forces:  Max     0.012117587 RMS     0.002820405
 Step number   1 out of a maximum of  250
 All quantities printed in internal units (Hartrees-Bohrs-Radians)
 Mixed Optimization -- RFO/linear search
 Second derivative matrix not updated -- first step.
 ITU=  0
     Eigenvalues ---    0.00230   0.00230   0.00230   0.00230   0.00230
     Eigenvalues ---    0.00230   0.00230   0.00232   0.00234   0.00237
     Eigenvalues ---    0.00269   0.00851   0.00861   0.00883   0.00886
     Eigenvalues ---    0.01587   0.01660   0.01704   0.01767   0.02747
     Eigenvalues ---    0.03356   0.04122   0.04131   0.04141   0.04193
     Eigenvalues ---    0.04258   0.04304   0.04329   0.04354   0.04402
     Eigenvalues ---    0.04474   0.04578   0.04709   0.04753   0.04753
     Eigenvalues ---    0.04776   0.04814   0.04999   0.05148   0.05511
     Eigenvalues ---    0.05540   0.05542   0.05544   0.05556   0.05758
     Eigenvalues ---    0.05778   0.05819   0.09226   0.09269   0.09273
     Eigenvalues ---    0.09299   0.09815   0.11757   0.11778   0.11778
     Eigenvalues ---    0.11830   0.12774   0.12814   0.12818   0.12821
     Eigenvalues ---    0.13051   0.13139   0.14009   0.14030   0.14061
     Eigenvalues ---    0.14073   0.14322   0.14433   0.14700   0.16000
     Eigenvalues ---    0.16000   0.16000   0.16000   0.16000   0.16000
     Eigenvalues ---    0.16000   0.16000   0.16000   0.16000   0.16000
     Eigenvalues ---    0.21965   0.21967   0.21970   0.21990   0.22015
     Eigenvalues ---    0.22064   0.22066   0.22085   0.27988   0.28066
     Eigenvalues ---    0.28378   0.28432   0.28484   0.28498   0.28522
     Eigenvalues ---    0.28737   0.33420   0.33432   0.33539   0.33578
     Eigenvalues ---    0.33694   0.33789   0.33877   0.33977   0.34210
     Eigenvalues ---    0.34234   0.34241   0.34253   0.34298   0.34305
     Eigenvalues ---    0.34374   0.34593   0.36518   0.36616   0.36823
     Eigenvalues ---    0.36851   0.44332   0.44404   0.45017   0.45046
     Eigenvalues ---    0.45185   0.45226   0.45237   0.45293   0.45298
     Eigenvalues ---    0.45491   0.45768   0.46579   0.50951   0.51317
     Eigenvalues ---    0.51828   0.51839
 Linear search not attempted -- first point.
 Maximum step size (   0.300) exceeded in Quadratic search.
    -- Step size scaled by   0.483
 Iteration  1 RMS(Cart)=  0.20125598 RMS(Int)=  0.01024833
 Iteration  2 RMS(Cart)=  0.13255220 RMS(Int)=  0.00261797
 Iteration  3 RMS(Cart)=  0.00534978 RMS(Int)=  0.00086753
 Iteration  4 RMS(Cart)=  0.00001946 RMS(Int)=  0.00086753
 Iteration  5 RMS(Cart)=  0.00000016 RMS(Int)=  0.00086753
 Variable       Old X    -DE/DX   Delta X   Delta X   Delta X     New X
                                 (Linear)    (Quad)   (Total)
    R1        2.76578   0.00211   0.00000   0.00269   0.00265   2.76843
    R2        1.92670   0.00424   0.00000   0.00446   0.00443   1.93113
    R3        1.91702   0.00456   0.00000   0.00470   0.00470   1.92172
    R4        2.91092   0.00071   0.00000   0.00114   0.00117   2.91209
    R5        2.06978   0.00607   0.00000   0.00819   0.00819   2.07797
    R6        2.07538   0.00492   0.00000   0.00671   0.00671   2.08209
    R7        2.91319   0.00342   0.00000   0.00553   0.00552   2.91871
    R8        2.91062   0.00142   0.00000   0.00228   0.00228   2.91290
    R9        2.91012   0.00160   0.00000   0.00258   0.00258   2.91270
   R10        2.76113   0.00344   0.00000   0.00433   0.00433   2.76546
   R11        2.07368   0.00560   0.00000   0.00761   0.00761   2.08130
   R12        2.06830   0.00617   0.00000   0.00832   0.00832   2.07662
   R13        1.91922   0.00572   0.00000   0.00593   0.00593   1.92515
   R14        1.91637   0.00465   0.00000   0.00479   0.00479   1.92116
   R15        2.64394   0.00150   0.00000   0.00153   0.00153   2.64547
   R16        2.08319   0.00679   0.00000   0.00938   0.00938   2.09257
   R17        2.06937   0.00700   0.00000   0.00946   0.00946   2.07883
   R18        1.84764   0.00466   0.00000   0.00422   0.00422   1.85186
   R19        2.65014   0.00519   0.00000   0.00536   0.00536   2.65549
   R20        2.08049   0.00654   0.00000   0.00899   0.00899   2.08948
   R21        2.06818   0.00702   0.00000   0.00945   0.00945   2.07763
   R22        1.85618   0.00590   0.00000   0.00543   0.00543   1.86160
   R23        3.71044  -0.00325   0.00000  -0.02559  -0.02557   3.68487
   R24        2.76429   0.00523   0.00000   0.00662   0.00662   2.77090
   R25        1.91762   0.00496   0.00000   0.00513   0.00513   1.92275
   R26        1.91632   0.00471   0.00000   0.00486   0.00486   1.92118
   R27        2.91204  -0.00009   0.00000  -0.00015  -0.00015   2.91189
   R28        2.06703   0.00661   0.00000   0.00888   0.00888   2.07591
   R29        2.08116   0.00591   0.00000   0.00813   0.00813   2.08929
   R30        2.92164   0.00305   0.00000   0.00498   0.00498   2.92662
   R31        2.91995   0.00162   0.00000   0.00265   0.00265   2.92259
   R32        2.90556  -0.00025   0.00000  -0.00039  -0.00039   2.90516
   R33        2.76072   0.00332   0.00000   0.00418   0.00418   2.76490
   R34        2.06926   0.00665   0.00000   0.00898   0.00898   2.07823
   R35        2.07688   0.00594   0.00000   0.00813   0.00813   2.08501
   R36        1.91410   0.00486   0.00000   0.00499   0.00499   1.91909
   R37        1.91956   0.00690   0.00000   0.00716   0.00716   1.92672
   R38        2.63484  -0.00013   0.00000  -0.00013  -0.00013   2.63471
   R39        2.06905   0.00700   0.00000   0.00945   0.00945   2.07850
   R40        2.08299   0.00714   0.00000   0.00986   0.00986   2.09284
   R41        1.85259   0.00354   0.00000   0.00323   0.00323   1.85582
   R42        2.66059   0.00194   0.00000   0.00204   0.00204   2.66263
   R43        2.07850   0.00614   0.00000   0.00841   0.00841   2.08691
   R44        2.06341   0.00611   0.00000   0.00817   0.00817   2.07158
   R45        1.84754   0.00807   0.00000   0.00731   0.00731   1.85484
    A1        1.91476  -0.00570   0.00000  -0.01340  -0.01090   1.90386
    A2        1.90864   0.00295   0.00000   0.01229   0.01933   1.92797
    A3        1.87295   0.00200   0.00000   0.00898   0.00739   1.88035
    A4        1.96037  -0.00559   0.00000  -0.01106  -0.01117   1.94920
    A5        1.87744   0.00231   0.00000   0.00788   0.00796   1.88540
    A6        1.97119   0.00184   0.00000   0.00265   0.00263   1.97383
    A7        1.88076   0.00182   0.00000   0.00526   0.00526   1.88602
    A8        1.89462   0.00152   0.00000   0.00085   0.00093   1.89556
    A9        1.87545  -0.00173   0.00000  -0.00513  -0.00516   1.87029
   A10        1.96714  -0.00101   0.00000  -0.00393  -0.00390   1.96324
   A11        1.88470  -0.00010   0.00000   0.00122   0.00121   1.88591
   A12        1.91153   0.00118   0.00000   0.00322   0.00320   1.91474
   A13        1.90143   0.00128   0.00000   0.00423   0.00425   1.90568
   A14        1.88789  -0.00070   0.00000  -0.00349  -0.00351   1.88437
   A15        1.91074  -0.00064   0.00000  -0.00121  -0.00120   1.90954
   A16        1.95846   0.00518   0.00000   0.01237   0.01235   1.97081
   A17        1.89838   0.00016   0.00000   0.00480   0.00479   1.90316
   A18        1.87800  -0.00181   0.00000  -0.00446  -0.00445   1.87355
   A19        1.96621  -0.00249   0.00000  -0.00456  -0.00464   1.96158
   A20        1.88507  -0.00117   0.00000  -0.00309  -0.00309   1.88198
   A21        1.87375  -0.00011   0.00000  -0.00603  -0.00604   1.86771
   A22        1.91399   0.00136   0.00000   0.00311   0.00310   1.91710
   A23        1.91425   0.00175   0.00000   0.00417   0.00417   1.91842
   A24        1.86106  -0.00187   0.00000  -0.00651  -0.00651   1.85455
   A25        1.97259   0.00016   0.00000   0.00191   0.00191   1.97451
   A26        1.89622  -0.00163   0.00000  -0.00522  -0.00525   1.89097
   A27        1.92197  -0.00051   0.00000  -0.00352  -0.00354   1.91843
   A28        1.92792   0.00216   0.00000   0.01037   0.01037   1.93829
   A29        1.86121   0.00049   0.00000   0.00260   0.00261   1.86381
   A30        1.88189  -0.00067   0.00000  -0.00644  -0.00648   1.87541
   A31        1.85648   0.00104   0.00000   0.00285   0.00285   1.85933
   A32        1.96865   0.00119   0.00000   0.00404   0.00404   1.97269
   A33        1.90018  -0.00100   0.00000  -0.00331  -0.00334   1.89685
   A34        1.92313  -0.00102   0.00000  -0.00419  -0.00421   1.91892
   A35        1.92255   0.00090   0.00000   0.00596   0.00596   1.92851
   A36        1.86221   0.00054   0.00000   0.00371   0.00372   1.86593
   A37        1.88530  -0.00065   0.00000  -0.00657  -0.00661   1.87869
   A38        1.83505   0.00262   0.00000   0.00722   0.00722   1.84227
   A39        1.92405   0.00265   0.00000   0.00822   0.00819   1.93224
   A40        1.91977   0.00275   0.00000   0.00851   0.00848   1.92825
   A41        1.87597  -0.00219   0.00000  -0.00414  -0.00420   1.87177
   A42        1.95987   0.00109   0.00000   0.00334   0.00333   1.96320
   A43        1.87133  -0.00025   0.00000  -0.00199  -0.00199   1.86934
   A44        1.96418  -0.00037   0.00000   0.00144   0.00142   1.96560
   A45        1.89030  -0.00074   0.00000  -0.00345  -0.00345   1.88686
   A46        1.89815   0.00070   0.00000   0.00467   0.00465   1.90280
   A47        1.87671  -0.00055   0.00000  -0.00475  -0.00474   1.87197
   A48        1.91841  -0.00088   0.00000  -0.00486  -0.00486   1.91355
   A49        1.87914  -0.00119   0.00000  -0.00386  -0.00385   1.87529
   A50        1.91171   0.00089   0.00000  -0.00078  -0.00079   1.91092
   A51        1.91146   0.00231   0.00000   0.01050   0.01050   1.92196
   A52        1.95063  -0.00107   0.00000  -0.00302  -0.00305   1.94757
   A53        1.89092  -0.00005   0.00000   0.00211   0.00210   1.89302
   A54        1.95393   0.00857   0.00000   0.01957   0.01955   1.97348
   A55        1.87502  -0.00275   0.00000  -0.00404  -0.00409   1.87093
   A56        1.90592  -0.00042   0.00000   0.00250   0.00255   1.90847
   A57        1.88399  -0.00117   0.00000   0.00075   0.00070   1.88469
   A58        1.95551  -0.00480   0.00000  -0.01321  -0.01326   1.94225
   A59        1.88641   0.00037   0.00000  -0.00617  -0.00620   1.88021
   A60        1.92421   0.00158   0.00000   0.00233   0.00233   1.92654
   A61        1.93653   0.00147   0.00000   0.00206   0.00206   1.93859
   A62        1.84495  -0.00262   0.00000  -0.01125  -0.01125   1.83370
   A63        1.98311   0.00018   0.00000   0.00212   0.00212   1.98523
   A64        1.91355  -0.00109   0.00000  -0.00521  -0.00523   1.90832
   A65        1.89143  -0.00095   0.00000  -0.00319  -0.00322   1.88821
   A66        1.85785   0.00101   0.00000   0.00450   0.00451   1.86236
   A67        1.93127   0.00166   0.00000   0.00879   0.00879   1.94006
   A68        1.88425  -0.00088   0.00000  -0.00760  -0.00764   1.87661
   A69        1.84332  -0.00411   0.00000  -0.01131  -0.01131   1.83200
   A70        1.98558  -0.00501   0.00000  -0.00952  -0.00953   1.97605
   A71        1.89088   0.00137   0.00000   0.00503   0.00505   1.89593
   A72        1.91269   0.00129   0.00000  -0.00063  -0.00066   1.91202
   A73        1.91549   0.00325   0.00000   0.01295   0.01297   1.92846
   A74        1.87539   0.00093   0.00000  -0.00174  -0.00177   1.87361
   A75        1.88128  -0.00172   0.00000  -0.00615  -0.00614   1.87513
   A76        2.21776  -0.01212   0.00000  -0.03581  -0.03533   2.18243
   A77        1.75852   0.00193   0.00000   0.00008  -0.00066   1.75785
   A78        1.84509   0.00358   0.00000   0.00685   0.00915   1.85425
   A79        3.26214  -0.01011   0.00000  -0.27855  -0.27923   2.98291
   A80        3.11244  -0.00231   0.00000  -0.07182  -0.07474   3.03770
    D1       -1.21596   0.00185   0.00000   0.02835   0.03006  -1.18590
    D2        3.00049   0.00140   0.00000   0.02330   0.02509   3.02558
    D3        0.93396   0.00095   0.00000   0.02295   0.02469   0.95865
    D4        3.01745   0.00101   0.00000   0.01806   0.01616   3.03362
    D5        0.95071   0.00056   0.00000   0.01302   0.01120   0.96191
    D6       -1.11582   0.00010   0.00000   0.01266   0.01080  -1.10502
    D7        1.86543  -0.00400   0.00000  -0.09020  -0.08418   1.78125
    D8       -2.37017  -0.00197   0.00000  -0.04327  -0.04088  -2.41105
    D9       -2.34596  -0.00021   0.00000  -0.01565  -0.01794  -2.36390
   D10       -0.29838   0.00182   0.00000   0.03129   0.02536  -0.27302
   D11        1.04013  -0.00075   0.00000  -0.00114  -0.00117   1.03896
   D12        3.14131   0.00015   0.00000   0.00253   0.00253  -3.13935
   D13       -1.06237  -0.00001   0.00000   0.00363   0.00363  -1.05874
   D14        3.10491  -0.00002   0.00000   0.00544   0.00539   3.11030
   D15       -1.07710   0.00088   0.00000   0.00911   0.00908  -1.06802
   D16        1.00241   0.00071   0.00000   0.01020   0.01018   1.01260
   D17       -1.15217  -0.00030   0.00000   0.00263   0.00259  -1.14958
   D18        0.94901   0.00060   0.00000   0.00630   0.00629   0.95529
   D19        3.02852   0.00044   0.00000   0.00739   0.00739   3.03591
   D20        0.94335   0.00015   0.00000   0.00811   0.00814   0.95149
   D21       -1.24396  -0.00041   0.00000   0.00171   0.00169  -1.24227
   D22        3.01463   0.00059   0.00000   0.00870   0.00870   3.02333
   D23       -1.14819   0.00005   0.00000   0.00620   0.00622  -1.14197
   D24        2.94768  -0.00051   0.00000  -0.00020  -0.00022   2.94746
   D25        0.92308   0.00049   0.00000   0.00679   0.00679   0.92987
   D26        3.05936   0.00050   0.00000   0.00726   0.00728   3.06664
   D27        0.87205  -0.00006   0.00000   0.00086   0.00084   0.87289
   D28       -1.15254   0.00094   0.00000   0.00784   0.00785  -1.14470
   D29       -1.01451   0.00137   0.00000   0.01613   0.01610  -0.99841
   D30        3.12239  -0.00032   0.00000   0.00534   0.00534   3.12773
   D31        1.06495   0.00174   0.00000   0.01826   0.01822   1.08318
   D32        1.12737   0.00085   0.00000   0.01466   0.01468   1.14205
   D33       -1.01891  -0.00084   0.00000   0.00387   0.00391  -1.01500
   D34       -3.07635   0.00122   0.00000   0.01679   0.01680  -3.05955
   D35       -3.09452   0.00038   0.00000   0.01222   0.01222  -3.08230
   D36        1.04238  -0.00131   0.00000   0.00144   0.00145   1.04383
   D37       -1.01506   0.00075   0.00000   0.01435   0.01434  -1.00072
   D38        1.08370  -0.00007   0.00000   0.00304   0.00305   1.08675
   D39       -1.05591  -0.00129   0.00000  -0.00492  -0.00490  -1.06081
   D40       -3.12054   0.00070   0.00000   0.00753   0.00752  -3.11302
   D41       -1.06639   0.00089   0.00000   0.00809   0.00809  -1.05830
   D42        3.07718  -0.00033   0.00000   0.00013   0.00014   3.07732
   D43        1.01255   0.00166   0.00000   0.01257   0.01256   1.02512
   D44       -3.13611   0.00013   0.00000   0.00571   0.00571  -3.13040
   D45        1.00746  -0.00110   0.00000  -0.00225  -0.00225   1.00522
   D46       -1.05717   0.00089   0.00000   0.01019   0.01018  -1.04699
   D47       -1.39362  -0.00121   0.00000  -0.01090  -0.01089  -1.40451
   D48        2.85135  -0.00075   0.00000  -0.00724  -0.00724   2.84411
   D49        0.75600   0.00108   0.00000   0.00146   0.00144   0.75743
   D50       -1.28221   0.00153   0.00000   0.00511   0.00509  -1.27713
   D51        2.82245  -0.00129   0.00000  -0.01073  -0.01071   2.81174
   D52        0.78425  -0.00084   0.00000  -0.00708  -0.00706   0.77718
   D53       -0.72986   0.00093   0.00000   0.01145   0.01144  -0.71843
   D54        1.39872   0.00051   0.00000   0.01364   0.01365   1.41236
   D55       -2.84410   0.00113   0.00000   0.01290   0.01291  -2.83120
   D56       -0.78229  -0.00000   0.00000   0.00076   0.00076  -0.78153
   D57        1.34475   0.00018   0.00000   0.00361   0.00362   1.34837
   D58       -2.89626   0.00018   0.00000   0.00103   0.00102  -2.89524
   D59       -1.28053  -0.00050   0.00000  -0.00528  -0.00526  -1.28580
   D60        2.92840  -0.00006   0.00000  -0.00171  -0.00169   2.92671
   D61        0.86831   0.00098   0.00000   0.00454   0.00456   0.87288
   D62        2.93696  -0.00112   0.00000  -0.01046  -0.01047   2.92649
   D63        0.86271  -0.00068   0.00000  -0.00689  -0.00690   0.85581
   D64       -1.19737   0.00036   0.00000  -0.00064  -0.00065  -1.19802
   D65        1.08144  -0.00039   0.00000   0.00571   0.00571   1.08715
   D66       -3.12074   0.00120   0.00000   0.01331   0.01332  -3.10741
   D67       -1.06809   0.00095   0.00000   0.01322   0.01323  -1.05487
   D68       -3.13867  -0.00052   0.00000   0.00302   0.00302  -3.13565
   D69       -1.05767   0.00106   0.00000   0.01063   0.01063  -1.04703
   D70        0.99498   0.00081   0.00000   0.01053   0.01053   1.00551
   D71       -1.10407  -0.00120   0.00000  -0.00197  -0.00198  -1.10605
   D72        0.97694   0.00039   0.00000   0.00563   0.00563   0.98257
   D73        3.02958   0.00014   0.00000   0.00554   0.00553   3.03511
   D74        2.96642   0.00148   0.00000   0.02878   0.02874   2.99517
   D75        0.90099  -0.00028   0.00000   0.01915   0.01914   0.92013
   D76       -1.14088   0.00102   0.00000   0.02736   0.02737  -1.11351
   D77        0.90531   0.00207   0.00000   0.03008   0.03006   0.93537
   D78       -1.16013   0.00030   0.00000   0.02046   0.02046  -1.13967
   D79        3.08119   0.00160   0.00000   0.02866   0.02869   3.10988
   D80       -1.19025   0.00128   0.00000   0.02237   0.02236  -1.16789
   D81        3.02750  -0.00048   0.00000   0.01275   0.01275   3.04026
   D82        0.98563   0.00081   0.00000   0.02096   0.02099   1.00662
   D83        3.00050  -0.00005   0.00000  -0.00259  -0.00259   2.99790
   D84        0.92427  -0.00070   0.00000  -0.00606  -0.00605   0.91822
   D85       -1.12844   0.00152   0.00000   0.00783   0.00782  -1.12062
   D86       -1.19725  -0.00049   0.00000  -0.00477  -0.00478  -1.20204
   D87        3.00970  -0.00114   0.00000  -0.00823  -0.00823   3.00147
   D88        0.95699   0.00107   0.00000   0.00566   0.00563   0.96263
   D89        0.93443  -0.00042   0.00000  -0.00069  -0.00068   0.93375
   D90       -1.14180  -0.00107   0.00000  -0.00416  -0.00413  -1.14593
   D91        3.08868   0.00115   0.00000   0.00973   0.00973   3.09842
   D92        1.10340   0.00158   0.00000   0.02327   0.02326   1.12666
   D93       -1.03183  -0.00022   0.00000   0.00937   0.00937  -1.02246
   D94       -3.08016   0.00034   0.00000   0.01422   0.01422  -3.06594
   D95       -1.02697   0.00280   0.00000   0.03199   0.03198  -0.99499
   D96        3.12099   0.00099   0.00000   0.01809   0.01808   3.13907
   D97        1.07265   0.00155   0.00000   0.02294   0.02294   1.09559
   D98       -3.13453   0.00063   0.00000   0.01941   0.01941  -3.11512
   D99        1.01343  -0.00118   0.00000   0.00551   0.00552   1.01895
   D100      -1.03491  -0.00062   0.00000   0.01036   0.01037  -1.02454
   D101      -2.72092   0.00037   0.00000   0.00637   0.00632  -2.71461
   D102       1.52439   0.00172   0.00000   0.01753   0.01748   1.54186
   D103      -0.66082   0.00124   0.00000   0.01328   0.01328  -0.64755
   D104      -2.69870   0.00260   0.00000   0.02444   0.02444  -2.67426
   D105       1.41419  -0.00189   0.00000  -0.00167  -0.00162   1.41257
   D106      -0.62369  -0.00053   0.00000   0.00949   0.00954  -0.61415
   D107       0.87718   0.00051   0.00000   0.00605   0.00606   0.88324
   D108       2.98502  -0.00004   0.00000   0.00391   0.00391   2.98893
   D109      -1.25516   0.00036   0.00000   0.00206   0.00205  -1.25311
   D110       1.25847  -0.00173   0.00000  -0.01641  -0.01546   1.24301
   D111      -0.78529   0.00047   0.00000   0.00184   0.00092  -0.78438
   D112      -2.90311  -0.00103   0.00000  -0.00694  -0.00601  -2.90912
   D113       1.33631   0.00117   0.00000   0.01131   0.01037   1.34668
   D114      -0.86203  -0.00081   0.00000  -0.00830  -0.00738  -0.86941
   D115      -2.90579   0.00138   0.00000   0.00994   0.00900  -2.89679
         Item               Value     Threshold  Converged?
 Maximum Force            0.012118     0.000015     NO 
 RMS     Force            0.002820     0.000010     NO 
 Maximum Displacement     0.995960     0.000060     NO 
 RMS     Displacement     0.328301     0.000040     NO 
 GradGradGradGradGradGradGradGradGradGradGradGradGradGradGradGradGradGrad

                    Distance matrix (angstroms):
                    1          2          3          4          5
     1  N    0.000000
     2  C    1.464990   0.000000
     3  C    2.487762   1.541010   0.000000
     4  C    3.010641   2.565299   1.544515   0.000000
     5  N    3.506907   2.987715   2.507501   1.463418   0.000000
     6  C    3.813751   2.494618   1.541439   2.515250   3.028879
     7  O    4.262317   2.891420   2.455852   2.996423   2.793941
     8  C    2.965353   2.520369   1.541333   2.495975   3.822986
     9  O    2.682686   2.974288   2.458623   2.925638   4.260785
    10  H    1.021913   2.041914   2.748470   2.707703   2.996627
    11  H    1.016931   2.054772   3.373789   3.966527   4.264506
    12  H    2.086223   1.099615   2.152803   3.496537   4.003093
    13  H    2.150878   1.101793   2.161521   2.841647   2.696042
    14  H    2.778238   2.893243   2.169936   1.101374   2.140676
    15  H    4.029370   3.486086   2.145974   1.098901   2.081820
    16  H    3.068442   2.847377   2.881343   2.047312   1.018745
    17  H    4.367479   3.981460   3.369188   2.046655   1.016635
    18  H    4.633745   3.454889   2.162559   2.713488   3.370457
    19  H    4.104720   2.743475   2.177508   3.475588   4.045756
    20  H    4.106759   2.931296   2.470803   2.492870   1.928050
    21  H    3.330954   2.747916   2.165652   3.457335   4.652825
    22  H    3.974779   3.479140   2.177299   2.715896   4.110216
    23  H    1.816071   2.455360   2.482942   3.028059   4.146226
    24  N    4.554703   5.741982   6.238634   5.512405   5.410991
    25  C    5.121507   6.266069   6.435345   5.525357   5.634776
    26  C    4.378142   5.406786   5.303692   4.379731   4.800569
    27  C    3.657440   4.868665   4.928336   4.440223   5.153517
    28  N    3.717305   4.672984   4.394455   4.068892   5.136538
    29  C    5.677797   6.586265   6.196017   5.159061   5.714406
    30  O    5.755494   6.442808   5.754594   4.733755   5.527225
    31  C    3.894942   4.592736   4.340875   3.164575   3.365984
    32  O    2.959968   3.655537   3.797722   2.860410   2.729442
    33  H    4.225959   5.552439   6.199463   5.706747   5.759240
    34  H    5.413783   6.568278   7.135144   6.381115   6.123269
    35  H    5.856533   6.862796   6.925761   5.829460   5.756379
    36  H    5.825493   7.068768   7.257702   6.434570   6.666690
[...]
 327880,0.00461002,0.00134963,-0.00732156,-0.00277851,0.00667868,-0.025
 39284,-0.02167662,-0.00701644,-0.20214307,-0.11172910,-0.13886410,0.00
 117745,0.00002956,-0.00061009,-0.00104206,-0.00006573,-0.00008111,0.00
 014453,0.00013030,-0.00015062,-0.00007517,0.00007907,-0.00016925,-0.00
 021127,-0.00030425,0.00012577,-0.00013264,-0.00003557,0.00018040,-0.00
 093838,-0.00099769,0.00076244,-0.00052748,-0.00077486,0.00006678,0.001
 11635,-0.00043522,0.00269779,-0.00131725,0.00012862,-0.00256148,0.0007
 3185,0.00074315,0.00210605,0.00102731,0.00042020,-0.00234704,0.2296404
 5,-0.00017497,-0.00024045,-0.00014270,0.00005528,0.00003443,-0.0000577
 4,-0.00004087,0.00000981,0.00011027,0.00019534,0.00012324,-0.00005161,
 -0.00042678,-0.00010070,-0.00002790,-0.00000389,0.00010860,-0.00002132
 ,-0.00013633,-0.00012266,-0.00008233,-0.00014014,0.00017292,0.00009044
 ,0.00027854,-0.00038310,0.00003702,0.00029025,0.00007805,0.00027036,0.
 00000359,0.00000684,0.00002424,-0.00003726,0.00000295,-0.00001631,0.00
 001481,-0.00003158,0.00001565,0.00003926,0.00019150,0.00012530,-0.0000
 6860,-0.00001660,0.00006176,0.00023781,-0.00006715,-0.00003720,0.00015
 342,-0.00001728,-0.00012582,-0.00000407,-0.00003565,0.00002533,-0.0000
 3605,-0.00000378,-0.00001330,0.00021287,0.00001808,0.00003610,0.000035
 89,-0.00003775,-0.00002047,-0.00003155,-0.00003294,0.00002891,0.000043
 48,0.00035729,-0.00001528,0.00037572,0.00063807,-0.00025288,-0.0011074
 1,-0.00037934,-0.00034397,-0.00069875,0.00020564,-0.00100305,0.0018218
 3,0.00129014,0.00548577,0.00030728,-0.01090837,0.00022212,-0.02700867,
 -0.01864242,-0.01117817,-0.10296002,-0.08121761,-0.06657773,0.00006215
 ,-0.00248017,0.00075553,-0.00049959,0.00138447,-0.00126923,0.00002862,
 0.00000710,0.00001574,-0.00003467,0.00006090,-0.00020045,0.00007518,0.
 00005995,0.00016412,0.00026427,0.00008575,-0.00019653,-0.00023117,-0.0
 0063384,-0.00000543,-0.00046702,-0.00072651,0.00001624,-0.00105140,0.0
 0038527,-0.00527691,-0.00057969,-0.00039942,0.00015190,-0.00281861,-0.
 00201105,0.00330654,0.00133740,0.00097459,-0.00057679,0.13100907,0.113
 46185,0.00034635,-0.00054025,-0.00021820,-0.00030821,-0.00001604,0.000
 07043,0.00027903,0.00012191,-0.00012945,-0.00039008,0.00017537,0.00056
 558,0.00005289,-0.00041214,-0.00043264,-0.00018001,0.00001749,0.000198
 37,0.00008946,-0.00018373,-0.00029683,-0.00122500,-0.00002428,0.000892
 48,0.00275947,-0.00051109,0.00021009,0.00002367,0.00040421,0.00027022,
 0.00001839,0.00001545,0.00000276,0.00002692,0.00002836,-0.00001008,0.0
 0007995,-0.00006963,-0.00004418,-0.00000305,0.00049691,0.00010387,0.00
 016622,0.00005724,-0.00003996,0.00005152,0.00003382,0.00004204,0.00006
 682,-0.00011240,0.00000415,0.00001742,0.00002518,-0.00002086,0.0000068
 2,0.00000178,-0.00001383,0.00005343,0.00002719,0.00013357,0.00038724,-
 0.00006837,-0.00006611,0.00003397,0.00005610,-0.00009307,-0.00043986,0
 .00076321,-0.00033457,-0.00008304,0.00020261,-0.00031717,-0.00085900,-
 0.00064314,-0.00095510,0.00023235,0.00219477,0.00004598,0.00413182,0.0
 0945190,-0.00449037,0.01028062,-0.00486318,0.00549232,0.01834193,0.009
 56075,0.02044698,-0.17164870,-0.09272968,-0.19028176,-0.00039296,-0.00
 094094,0.00060112,-0.00052526,0.00047568,-0.00133351,0.00016558,0.0002
 7774,-0.00023812,-0.00007546,0.00007472,-0.00011950,-0.00040273,-0.000
 68046,0.00015369,0.00010584,0.00002674,0.00012753,-0.00100936,-0.00098
 496,0.00061804,-0.00049214,-0.00127729,0.00017045,-0.00088000,-0.00093
 448,-0.00337015,-0.00462646,-0.00056008,0.00363976,0.00422449,0.004464
 65,-0.00246079,0.00257975,0.00049550,-0.00226047,0.13809054,0.07660181
 ,0.17323006,-0.00052570,-0.00046308,-0.00050356,0.00024944,0.00002409,
 -0.00023283,-0.00013156,0.00009406,0.00018690,0.00024454,-0.00025040,-
 0.00038664,-0.00011701,0.00020453,0.00028034,0.00005204,-0.00004471,-0
 .00013266,-0.00008349,0.00002837,0.00009209,0.00004818,0.00007631,0.00
 006365,0.00004388,-0.00028875,-0.00001203,0.00109753,0.00045275,0.0009
 9145,-0.00005779,0.00001618,0.00003879,-0.00010931,-0.00000647,0.00001
 244,0.00001672,0.00001093,0.00003621,-0.00007774,0.00031537,0.00022156
 ,-0.00008437,-0.00000927,0.00005623,0.00027690,-0.00011492,-0.00049059
 ,-0.00007690,-0.00019663,-0.00004351,-0.00001367,-0.00001598,0.0000250
 5,-0.00003849,0.00000948,-0.00000326,0.00007672,-0.00002622,-0.0000567
 4,-0.00000385,-0.00000179,-0.00002174,-0.00000315,-0.00002222,0.000014
 60,-0.00002044,0.00036149,0.00002760,0.00071804,-0.00025560,-0.0002557
 8,0.00102808,0.00129900,0.00035132,0.00839865,0.01237577,0.01617231,-0
 .00389058,0.00124809,0.00249118,0.00052768,-0.00003060,-0.00052174,0.0
 0122714,0.00025750,0.00066666,0.00007273,-0.00001085,0.00027172,-0.101
 82642,-0.06571883,-0.07600666,-0.01520924,0.00248046,-0.02353008,-0.00
 011474,0.00007166,0.00007024,0.00008120,-0.00008935,-0.00002171,-0.000
 21116,-0.00017800,-0.00007863,0.00024727,-0.00000557,-0.00018308,0.000
 65031,0.00079191,0.00108630,0.00001347,-0.00012824,0.00003172,0.000040
 70,-0.00000980,-0.00006408,-0.00016235,0.00016026,0.00017519,-0.000339
 77,-0.00010477,-0.00028659,0.00006419,-0.00027867,0.00002164,-0.000150
 64,0.00013031,0.00013392,0.11659709,0.00040444,0.00047470,0.00035624,-
 0.00011554,-0.00005429,0.00013717,-0.00016867,0.00001460,0.00022428,0.
 00023237,-0.00035876,-0.00048302,-0.00013351,0.00022660,0.00006098,-0.
 00000901,-0.00002740,-0.00014227,-0.00001761,0.00006195,0.00003519,0.0
 0011950,0.00001858,-0.00003009,-0.00020511,0.00014866,-0.00010142,-0.0
 0060787,-0.00056722,-0.00052076,0.00002429,-0.00000888,-0.00001289,0.0
 0005660,0.00001444,-0.00004224,-0.00001456,0.00000447,-0.00001344,-0.0
 0006253,0.00015047,0.00031100,-0.00004207,0.00002540,0.00001816,-0.000
 00070,-0.00008994,0.00008578,-0.00000871,-0.00006793,-0.00008003,0.000
 01347,0.00000840,-0.00000858,-0.00004596,0.00000545,0.00000548,0.00002
 620,-0.00002339,-0.00000821,-0.00003999,-0.00000218,-0.00001287,0.0000
 0475,0.00001223,0.00000691,0.00007570,-0.00024670,0.00007344,-0.000446
 03,0.00015014,0.00008847,-0.00059981,0.00020328,0.00132877,-0.00782947
 ,-0.00836419,-0.01058034,0.00337114,-0.00022105,-0.00145348,0.00007799
 ,0.00001719,0.00043102,-0.00085483,-0.00013573,-0.00158240,0.00046055,
 0.00017212,0.00095538,-0.06610370,-0.12582324,-0.09485635,0.01974954,0
 .01195461,0.02422375,0.00004023,-0.00013487,0.00004053,-0.00001336,0.0
 0001373,-0.00004564,0.00039063,0.00056961,0.00001138,0.00009363,0.0000
 6503,0.00018258,-0.00032454,-0.00067609,-0.00098642,0.00002746,0.00011
 826,0.00018118,-0.00002717,0.00006218,-0.00018024,0.00024496,0.0000040
 3,0.00019641,0.00079319,-0.00009728,0.00036330,0.00015654,0.00021532,0
 .00023039,-0.00051064,0.00039428,-0.00047594,0.05939426,0.12987824,-0.
 00058038,-0.00032778,-0.00027862,0.00026195,0.00009164,-0.00023530,0.0
 0005618,0.00003079,-0.00011029,0.00005860,0.00014556,0.00022509,-0.000
 07827,-0.00003381,0.00013719,0.00007145,-0.00000866,0.00003322,-0.0000
 5194,-0.00000046,0.00006514,0.00013089,0.00000717,-0.00007178,-0.00017
 181,-0.00018807,0.00011002,0.00088372,0.00028834,0.00066776,-0.0000382
 4,-0.00001322,0.00002343,-0.00009698,-0.00002212,0.00003843,-0.0000115
 8,0.00000815,0.00004002,0.00005471,-0.00003666,-0.00016326,-0.00001620
 ,-0.00002383,0.00001149,0.00022007,0.00006046,-0.00028674,-0.00006188,
 -0.00003686,0.00000696,-0.00002080,-0.00001566,0.00002206,0.00002215,-
 0.00000027,-0.00000421,0.00001727,-0.00000145,-0.00004332,-0.00002385,
 0.00001329,0.00000704,-0.00001363,-0.00002690,0.00001676,0.00007212,0.
 00028526,-0.00001794,0.00096442,0.00033267,-0.00002660,-0.00209380,-0.
 00038577,0.00002152,-0.00840123,-0.01387405,-0.01460440,0.00402778,-0.
 00011284,-0.00121590,-0.00030687,-0.00016910,0.00075884,-0.00086973,0.
 00061860,-0.00006552,0.00027171,-0.00034123,0.00036122,-0.07427906,-0.
 09297137,-0.16923516,-0.01734754,0.00348134,-0.01682041,-0.00021522,-0
 .00008574,0.00023350,0.00014604,-0.00007343,-0.00020196,0.00109641,0.0
 0066106,-0.00016464,0.00011116,0.00010709,0.00055499,-0.00037255,-0.00
 071530,-0.00094494,-0.00001833,0.00024727,0.00027373,-0.00008334,-0.00
 000278,0.00002781,0.00007178,-0.00006362,-0.00015513,0.00052962,-0.000
 05981,0.00056446,0.00021599,0.00030616,0.00029101,-0.00006416,-0.00000
 361,-0.00032278,0.09166222,0.09735999,0.18882547,-0.00007855,0.0000531
 1,0.00004322,0.00006856,0.00002681,-0.00000861,-0.00004383,0.00000017,
 -0.00004747,-0.00241489,-0.00027013,-0.00067705,0.00061499,-0.00056785
 ,0.00003192,-0.00003257,-0.00010473,-0.00003186,0.00021093,0.00006084,
 0.00010176,0.00011584,-0.00004848,-0.00002362,-0.00017615,0.00007237,0
 .00002204,0.00017774,-0.00002003,-0.00001743,0.00000924,0.00000212,0.0
 0001637,-0.00000689,-0.00000652,0.00002584,-0.00000855,0.00002742,-0.0
 0001606,-0.00136697,-0.00074919,-0.00081762,0.00013546,-0.00001035,0.0
 0002367,-0.00034452,0.00056118,-0.00005718,-0.00037076,0.00021332,0.00
 029064,-0.00000377,0.00002363,-0.00001135,0.00001479,0.00002611,0.0000
 1865,-0.00035992,0.00000983,-0.00008652,-0.00001631,0.00001870,0.00002
 034,0.00000114,0.00000240,-0.00000335,0.00004106,-0.00004265,0.0000347
 6,0.00123198,-0.00020005,-0.00059922,-0.00289736,0.00353320,0.00177933
 ,-0.01189655,-0.01384050,0.00765883,0.00019656,-0.00095459,-0.00038549
 ,0.00034007,0.00017585,-0.00082140,-0.00189424,-0.00213248,0.00203726,
 0.00257836,-0.00029895,-0.00161622,-0.15483242,-0.11867383,0.07863888,
 0.01554455,0.02112088,-0.01607734,-0.00008216,-0.00002295,0.00005603,0
 .00002598,0.00001312,0.00002709,0.00039414,0.00036094,-0.00004795,-0.0
 0082118,-0.00079471,0.00109782,-0.00005437,-0.00006682,-0.00012991,0.0
 0003442,0.00018105,0.00016257,0.00003804,0.00006239,-0.00009389,0.0001
 9346,0.00008789,0.00008791,0.00014173,0.00024519,0.00004725,0.00039936
 ,0.00014596,-0.00034880,-0.00020798,0.00187677,0.00089484,-0.00686197,
 -0.00825734,0.00627948,0.16528555,0.00031896,0.00011376,-0.00000495,-0
 .00015655,-0.00005121,0.00016807,0.00002336,-0.00014570,0.00012067,-0.
 00062191,0.00073910,0.00011947,-0.00132214,-0.00031104,-0.00034295,-0.
 00002883,0.00018230,0.00006073,-0.00033411,-0.00012632,-0.00023308,-0.
 00018029,0.00009515,0.00010425,0.00024371,-0.00000573,-0.00011723,-0.0
 0042808,-0.00015190,-0.00017869,-0.00001448,0.00000870,-0.00001901,0.0
 0002670,0.00000543,-0.00005207,0.00003006,-0.00004518,0.00000657,-0.00
 098700,0.00019421,-0.00017128,-0.00008804,-0.00008782,0.00010196,0.000
 46693,-0.00060387,0.00041808,0.00048777,0.00010539,-0.00053690,0.00002
 037,-0.00002016,-0.00000635,-0.00004009,-0.00001119,-0.00003740,0.0005
 4923,-0.00003397,0.00013147,0.00001839,-0.00003685,-0.00003522,0.00000
 802,0.00000944,0.00000178,-0.00003323,-0.00004773,0.00007750,-0.000980
 81,-0.00007366,0.00050178,0.00224191,-0.00195491,-0.00132901,0.0089879
 6,0.01320084,-0.00678554,-0.00041784,0.00048787,-0.00015628,-0.0000366
 2,0.00011394,-0.00004260,-0.00002477,0.00073725,0.00044394,0.00143852,
 -0.00224225,0.00054171,-0.11173433,-0.16775139,0.07696110,-0.00670080,
 -0.01704128,0.01694098,0.00002862,0.00000377,-0.00000545,-0.00004553,0
 .00001776,-0.00002769,0.00014250,0.00002293,0.00009789,0.00084686,0.00
 056055,-0.00056442,0.00002287,0.00006296,0.00020011,-0.00005916,-0.000
 10460,-0.00001151,0.00004980,-0.00000489,0.00009198,-0.00017360,-0.000
 04150,-0.00000123,-0.00001069,-0.00015234,0.00011147,-0.00028846,0.000
 02120,-0.00004349,0.00095438,-0.00154202,-0.00028560,-0.01102733,-0.00
 904361,0.00670147,0.11482877,0.18683912,-0.00016014,-0.00018600,0.0000
 0485,0.00003093,0.00008758,-0.00004547,0.00030433,-0.00005771,-0.00040
 905,-0.00065482,0.00051170,0.00090929,0.00027452,-0.00019946,-0.000296
 87,0.00001155,0.00005700,0.00024898,0.00001670,-0.00007805,-0.00006708
 ,-0.00012139,-0.00006963,0.00000667,0.00016008,0.00001305,0.00016422,0
 .00023029,0.00031581,0.00002008,0.00005710,-0.00001553,0.00003101,-0.0
 0000192,-0.00001653,0.00003289,0.00000631,-0.00001278,-0.00000434,-0.0
 0068891,-0.00048174,-0.00048608,0.00020038,0.00000583,-0.00011857,-0.0
 0007607,0.00015274,0.00003806,0.00033208,-0.00006641,-0.00004031,-0.00
 001040,-0.00000169,-0.00000355,0.00007796,-0.00000954,-0.00001072,-0.0
 0002098,0.00003257,0.00002315,0.00003299,0.00000539,0.00003304,0.00000
 149,-0.00000362,-0.00000860,-0.00000098,0.00012072,-0.00005628,-0.0000
 0911,-0.00014058,-0.00009506,0.00205455,-0.00301071,-0.00127920,0.0135
 1553,0.01206135,-0.00789824,0.00031088,0.00124422,0.00028952,-0.000728
 24,0.00003941,0.00007205,-0.00029331,0.00076750,-0.00074059,-0.0018966
 9,0.00057680,-0.00039083,0.07081352,0.07405186,-0.10188826,0.00774556,
 0.01842429,-0.01354201,-0.00000851,0.00003939,0.00009997,0.00010263,-0
 .00010110,-0.00012731,0.00018870,0.00011423,0.00019404,0.00096614,0.00
 078659,-0.00029518,-0.00003090,0.00012943,0.00021387,-0.00006999,-0.00
 006277,-0.00005062,0.00000692,-0.00007450,0.00038314,-0.00005592,-0.00
 029829,-0.00038174,0.00003545,-0.00000157,-0.00001710,0.00016893,-0.00
 000192,0.00002412,0.00052954,-0.00031689,0.00058249,-0.01400469,-0.015
 00359,0.01137212,-0.07593640,-0.09184122,0.11315889,0.00107849,0.00165
 904,0.00033442,-0.00040125,-0.00009170,0.00066152,0.00012041,-0.000089
 03,0.00000398,-0.00012414,0.00014341,0.00005458,0.00025079,0.00007791,
 0.00009737,-0.00013890,-0.00003646,0.00003508,0.00026252,0.00010927,-0
 .00007119,-0.00003576,-0.00015256,-0.00014342,-0.00013498,0.00077139,-
 0.00001069,-0.00351866,-0.00253227,-0.00107139,-0.00005682,-0.00027685
 ,-0.00058267,0.00029116,0.00005538,-0.00004633,-0.00007471,-0.00000179
 ,-0.00004104,0.00006764,-0.00014433,-0.00012166,0.00006849,0.00005927,
 -0.00006444,-0.00046814,-0.00046689,0.00008325,-0.00022497,0.00001596,
 0.00018047,0.00003855,0.00006000,-0.00006473,0.00003528,-0.00000382,0.
 00003362,-0.00025407,-0.00004146,0.00006525,0.00000815,0.00000238,0.00
 004649,0.00001065,0.00006397,-0.00003164,0.00006937,-0.00097752,-0.000
 05227,-0.00058807,-0.00052718,-0.00531963,-0.00775645,0.00798192,-0.00
 384981,0.00118320,0.00217689,-0.00063090,0.00012586,0.00008749,0.00053
 913,-0.00079787,-0.00031839,0.00023769,-0.00020297,0.00028122,-0.00042
 028,-0.00136839,-0.00037326,0.00106520,0.02108813,0.01226514,-0.016009
 84,-0.18603331,-0.11119347,0.15046985,0.00404864,-0.00042760,-0.000646
 81,0.00090140,-0.00200675,-0.00057423,0.00014717,-0.00038495,0.0002872
 0,0.00087460,-0.00179481,0.00082210,-0.00029890,0.00045117,0.00028903,
 0.00040896,-0.00011884,-0.00049273,-0.00004706,-0.00004854,0.00005326,
 0.00033990,-0.00029490,-0.00007485,-0.00002380,-0.00004319,-0.00015405
 ,-0.00031017,0.00027085,0.00012382,0.00033593,-0.00029162,-0.00009996,
 -0.00166220,0.00068128,-0.00200833,-0.00302205,0.00399900,-0.00340566,
 0.17578837,0.00093853,0.00002928,-0.00008576,-0.00021414,-0.00000615,0
 .00048928,0.00004285,-0.00002498,-0.00007428,-0.00019047,-0.00013553,-
 0.00011837,0.00141371,0.00012104,-0.00041453,-0.00010898,0.00000247,0.
 00004738,0.00029720,-0.00006081,0.00000394,-0.00021442,-0.00008048,0.0
 0008771,0.00032381,0.00021995,0.00002720,-0.00316897,-0.00031728,-0.00
 097203,0.00014386,0.00014471,0.00011950,0.00019040,0.00002141,-0.00002
 987,0.00008265,0.00000420,-0.00014222,0.00012537,-0.00008486,0.0000680
 7,0.00006647,0.00008112,-0.00001264,-0.00166622,0.00018064,0.00042817,
 -0.00012932,0.00004066,0.00013042,0.00000970,0.00000913,-0.00002270,0.
 00003708,0.00000433,0.00002373,-0.00034686,0.00007995,-0.00003521,0.00
 007004,0.00000327,0.00003607,0.00001150,0.00001245,-0.00003214,-0.0001
 3362,-0.00027888,-0.00010057,0.00082826,-0.01239610,-0.00142904,0.0043
 6869,0.00071124,-0.00322175,-0.00098851,0.00078085,-0.00046824,0.00014
 715,-0.00131876,-0.00000732,-0.00008711,0.00060170,-0.00029578,-0.0007
 2594,-0.00020654,0.00136582,0.00039581,-0.00004042,-0.00031391,-0.0116
 9431,-0.02010794,0.02357349,-0.08255960,-0.10972564,0.11529280,0.00302
 897,-0.00036575,-0.00130151,-0.00350635,0.00165483,0.00216918,-0.00030
 352,-0.00016461,-0.00002211,0.00030565,-0.00093139,0.00088439,-0.00024
 682,0.00042893,0.00011547,-0.00018771,-0.00057700,-0.00076754,0.000068
 52,0.00007075,-0.00007727,-0.00017112,-0.00006827,0.00001517,-0.000125
 02,-0.00000624,-0.00020181,-0.00042725,0.00039876,-0.00023445,0.000067
 41,-0.00002133,0.00026264,-0.00052474,0.00095879,-0.00115192,0.0033321
 0,-0.00189050,0.00251437,0.09142525,0.14224901,0.00032957,0.00045765,-
 0.00197124,-0.00015228,0.00004724,0.00034907,0.00020326,-0.00007071,0.
 00015481,0.00051060,0.00044276,0.00051020,-0.00146662,-0.00045439,0.00
 028054,0.00001753,0.00020698,-0.00001182,-0.00042739,-0.00015591,-0.00
 027194,-0.00023022,0.00017670,0.00020665,0.00030242,-0.00004521,-0.000
 39178,-0.00028177,-0.00122733,0.00349310,-0.00074499,0.00000094,-0.000
 29372,0.00001134,-0.00003056,-0.00012321,0.00019832,-0.00010530,0.0000
 1285,0.00000667,0.00036610,0.00011236,-0.00018280,-0.00010863,0.000010
 00,0.00180301,-0.00012470,-0.00105904,0.00014618,-0.00006595,-0.000200
 44,0.00003423,-0.00002371,-0.00000683,-0.00010220,-0.00001420,-0.00005
 184,0.00065373,0.00000436,0.00016786,-0.00000327,-0.00005573,-0.000090
 11,0.00002436,0.00001602,-0.00000186,-0.00010289,-0.00007627,0.0002633
 1,-0.00768976,-0.00116926,-0.00797669,0.00044735,-0.00356712,0.0073230
 5,-0.00063633,-0.00077887,0.00272424,0.00063217,-0.00037336,0.00034454
 ,0.00032867,0.00049046,-0.00059401,0.00066882,-0.00035871,-0.00054836,
 0.00061181,0.00029364,-0.00072299,0.00499498,0.02002528,-0.01862482,0.
 12063828,0.12094107,-0.16988243,0.00302131,-0.00112058,-0.00246746,-0.
 00182994,0.00230228,0.00058238,-0.00088491,0.00020752,-0.00064564,-0.0
 0101080,0.00200553,-0.00164679,0.00014209,-0.00034032,-0.00036249,-0.0
 0057429,-0.00031862,-0.00001664,0.00007903,0.00008245,-0.00011787,-0.0
 0026062,0.00021087,0.00022198,-0.00014411,0.00003426,-0.00002161,0.000
 43601,-0.00051194,-0.00004495,-0.00013534,0.00026852,0.00024751,0.0016
 5529,-0.00028757,0.00027959,-0.00154175,-0.00107381,0.00035058,-0.1194
 9475,-0.13612184,0.19051199\\-0.00000011,-0.00000006,-0.00000020,-0.00
 000067,-0.00000008,-0.00000072,-0.00000001,-0.00000063,0.00000084,-0.0
 0000006,-0.00000133,-0.00000067,0.00000044,0.00000268,-0.00000018,-0.0
 0000022,0.00000048,0.00000033,0.00000079,0.00000042,-0.00000039,-0.000
 00034,-0.00000148,0.00000168,0.00000061,-0.00000117,0.00000064,0.00000
 069,-0.00000027,-0.00000011,-0.00000022,-0.00000155,-0.00000126,0.,-0.
 00000107,-0.00000034,0.00000022,-0.00000043,-0.00000031,-0.00000031,0.
 00000069,0.00000075,-0.00000001,0.00000102,0.00000110,-0.00000027,0.00
 000048,-0.00000085,-0.00000015,0.00000140,-0.00000032,0.00000031,0.000
 00016,0.00000097,0.00000018,-0.00000072,0.00000028,-0.00000022,0.00000
 153,0.00000046,0.00000025,-0.00000110,0.00000108,0.00000018,-0.0000004
 0,0.00000172,-0.00000019,-0.00000139,0.00000037,-0.00000021,-0.0000005
 3,-0.00000223,-0.00000015,-0.00000027,-0.00000027,0.00000042,0.0000010
 8,-0.00000058,0.00000093,0.00000015,-0.00000099,-0.00000169,-0.0000007
 4,0.00000090,0.00000041,0.00000079,0.00000104,-0.00000026,0.00000140,0
 .00000066,0.00000021,0.00000133,0.00000038,0.,-0.00000061,-0.00000132,
 -0.00000012,-0.00000102,-0.00000106,-0.00000033,-0.00000073,-0.0000016
 9,-0.00000012,0.00000055,-0.00000127,-0.00000026,-0.00000052,-0.000000
 55,-0.00000018,-0.00000073,0.00000055,-0.00000067,-0.00000107,0.000000
 37,0.00000021,0.,0.00000182,0.00000102,-0.00000004,0.00000133,0.000000
 04,0.00000128,-0.00000016,0.00000008,0.00000061,0.00000028,0.00000055,
 0.00000009,0.00000116,0.00000007,0.00000118,-0.00000082,-0.00000015,0.
 00000105,-0.00000059,-0.00000067,-0.00000042,-0.00000181\\\@


 MORNING PEOPLE ARE USUALLY ADMIRED AS EARLY BIRDS.
 RECALL BEN FRANKLIN'S APHORISM THAT THE EARLY BIRD GETS THE WORM.
 I IDENTIFY WITH THE WORM. --  CRAIG JAGGER, MINNEAPOLIS, KS.
 Job cpu time:       0 days  1 hours 33 minutes  8.9 seconds.
 Elapsed time:       0 days  0 hours 23 minutes 27.2 seconds.
 File lengths (MBytes):  RWF=    535 Int=      0 D2E=      0 Chk=      9 Scr=      1
 Normal termination of Gaussian 16 at Tue Aug  9 20:51:27 2022.
real 17216.59
user 68333.00
sys 42.41
