You are running Q-Chem version: 5.3.2

#
# job setting
#
local host:  c101.cluster
current dir: /scratch/user/peterchao1/peterchao1/8628956_1689110386000000096281615
input file:  qchem_test.inp
output file: 
nprocs     : 0
nthreads   : 8
#
# qchem installation setting
#
QC:          /sw/restricted/qchem/sw/5.3.2
QCAUX:       /sw/restricted/qchem/sw/5.3.2/qcaux
QCPROG:      /sw/restricted/qchem/sw/5.3.2/exe/qcprog.exe_s
QCPROG_S:    /sw/restricted/qchem/sw/5.3.2/exe/qcprog.exe_s
PARALLEL:    -DSERIAL
QCMPI:       seq
#
# qchem directory setting
#
qcrun:       qchem179299
QCSCRATCH:   /scratch/user/peterchao1/peterchao1/8628956_1689110386000000096281615
QCLOCALSCR:  
QCTMPDIR:    /scratch/user/peterchao1/peterchao1/8628956_1689110386000000096281615
QCFILEPREF:  /scratch/user/peterchao1/peterchao1/8628956_1689110386000000096281615/qchem179299
QCSAVEDIR:   
workdirs:    /scratch/user/peterchao1/peterchao1/8628956_1689110386000000096281615/qchem179299
workdir0:    /scratch/user/peterchao1/peterchao1/8628956_1689110386000000096281615/qchem179299
partmpdirs =  
#
# parallel setting
#
QCRSH:           ssh
QCMPI:           seq
QCMPIRUN:        
QCMACHINEFILE:   /scratch/user/peterchao1/peterchao1/8628956_1689110386000000096281615/qchem179299/hostfile

#
# env setting
#
exported envs:   QC QCAUX QCSCRATCH QCRUNNAME QCFILEPREF QCPROG QCPROG_S GUIFILE

Running Job 1 of 1 qchem_test.inp
qchem qchem_test.inp_179299.0 /scratch/user/peterchao1/peterchao1/8628956_1689110386000000096281615/qchem179299/ 0
/sw/restricted/qchem/sw/5.3.2/exe/qcprog.exe_s qchem_test.inp_179299.0 /scratch/user/peterchao1/peterchao1/8628956_1689110386000000096281615/qchem179299/
                  Welcome to Q-Chem
     A Quantum Leap Into The Future Of Chemistry


 Q-Chem 5.3, Q-Chem, Inc., Pleasanton, CA (2020)

 License issued to: MRG Daniel Tabor and Mike Hall, Texas A&M University

 Yihan Shao,  Zhengting Gan,  E. Epifanovsky,  A. T. B. Gilbert,  M. Wormit,  
 J. Kussmann,  A. W. Lange,  A. Behn,  Jia Deng,  Xintian Feng,  D. Ghosh,  
 M. Goldey,  P. R. Horn,  L. D. Jacobson,  I. Kaliman,  T. Kus,  A. Landau,  
 Jie Liu,  E. I. Proynov,  R. M. Richard,  R. P. Steele,  E. J. Sundstrom,  
 H. L. Woodcock III,  P. M. Zimmerman,  D. Zuev,  B. Alam,  B. Albrecht,  
 A. Aldossary,  E. Alguire,  S. A. Baeppler,  D. Barton,  Z. Benda,  
 Y. A. Bernard,  E. J. Berquist,  K. B. Bravaya,  H. Burton,  K. Carter-Fenk,  
 D. Casanova,  Chun-Min Chang,  Yunqing Chen,  A. Chien,  K. D. Closser,  
 M. P. Coons,  S. Coriani,  S. Dasgupta,  A. L. Dempwolff,  M. Diedenhofen,  
 Hainam Do,  R. G. Edgar,  Po-Tung Fang,  S. Faraji,  S. Fatehi,  
 Qingguo Feng,  J. Fosso-Tande,  J. Gayvert,  Qinghui Ge,  A. Ghysels,  
 G. Gidofalvi,  J. Gomes,  J. Gonthier,  S. Gulania,  A. Gunina,  D. Hait,  
 M. W. D. Hanson-Heine,  S. Hammes-Schiffer,  P. H. P. Harbach,  
 A. W. Hauser,  M. F. Herbst,  J. E. Herr,  E. G. Hohenstein,  Z. C. Holden,  
 S. Houck,  Kerwin Hui,  B. C. Huynh,  M. Ivanov,  T.-C. Jagau,  Hyunjun Ji,  
 B. Kaduk,  K. Khistyaev,  Jaehoon Kim,  P. Klunzinger,  K. Koh,  
 D. Kosenkov,  L. Koulias,  T. Kowalczyk,  C. M. Krauter,  A. Kunitsa,  
 Ka Un Lao,  A. Laurent,  K. V. Lawler,  Joonho Lee,  D. Lefrancois,  
 S. Lehtola,  D. S. Levine,  Yi-Pei Li,  You-Sheng Lin,  Fenglai Liu,  
 Kuan-Yu Liu,  E. Livshits,  M. Loipersberger,  A. Luenser,  A. Manjanath,  
 P. Manohar,  E. Mansoor,  S. F. Manzer,  Shan-Ping Mao,  Yuezhi Mao,  
 N. Mardirossian,  A. V. Marenich,  T. Markovich,  L. A. Martinez-Martinez,  
 S. A. Maurer,  N. J. Mayhall,  S. C. McKenzie,  J.-M. Mewes,  P. Morgante,  
 A. F. Morrison,  J. W. Mullinax,  K. Nanda,  T. S. Nguyen-Beck,  
 R. Olivares-Amaya,  K. J. Oosterbaan,  J. A. Parkhill,  S. K. Paul,  
 F. Pavosevic,  Zheng Pei,  T. M. Perrine,  F. Plasser,  P. Pokhilko,  
 S. Prager,  A. Prociuk,  E. Ramos,  B. Rana,  D. R. Rehn,  F. Rob,  
 E. Rossomme,  M. Scheurer,  M. Schneider,  N. Sergueev,  S. M. Sharada,  
 S. Sharma,  W. Skomorowski,  D. W. Small,  T. Stauch,  C. J. Stein,  
 T. Stein,  Yu-Chuan Su,  S. P. Veccham,  Zhen Tao,  A. J. W. Thom,  
 A. Tkatchenko,  T. Tsuchimochi,  N. M. Tubman,  L. Vogt,  M. L. Vidal,  
 O. Vydrov,  M. A. Watson,  J. Wenzel,  M. de Wergifosse,  T. A. Wesolowski,  
 A. White,  J. Witte,  A. Yamada,  Jun Yang,  K. Yao,  S. Yeganeh,  
 S. R. Yost,  Zhi-Qiang You,  A. Zech,  Igor Ying Zhang,  Xing Zhang,  
 Yan Zhao,  Ying Zhu,  B. R. Brooks,  G. K. L. Chan,  C. J. Cramer,  
 M. S. Gordon,  W. J. Hehre,  A. Klamt,  M. W. Schmidt,  C. D. Sherrill,  
 D. G. Truhlar,  A. Aspuru-Guzik,  R. Baer,  A. T. Bell,  N. A. Besley,  
 Jeng-Da Chai,  A. E. DePrince, III,  R. A. DiStasio Jr.,  A. Dreuw,  
 B. D. Dunietz,  T. R. Furlani,  Chao-Ping Hsu,  Yousung Jung,  Jing Kong,  
 D. S. Lambrecht,  WanZhen Liang,  C. Ochsenfeld,  V. A. Rassolov,  
 L. V. Slipchenko,  J. E. Subotnik,  T. Van Voorhis,  J. M. Herbert,  
 A. I. Krylov,  P. M. W. Gill,  M. Head-Gordon

 Contributors to earlier versions of Q-Chem not listed above: 
 R. D. Adamson,  B. Austin,  J. Baker,  G. J. O. Beran,  K. Brandhorst,  
 S. T. Brown,  E. F. C. Byrd,  A. K. Chakraborty,  C.-L. Cheng,  
 Siu Hung Chien,  D. M. Chipman,  D. L. Crittenden,  H. Dachsel,  
 R. J. Doerksen,  A. D. Dutoi,  L. Fusti-Molnar,  W. A. Goddard III,  
 A. Golubeva-Zadorozhnaya,  S. R. Gwaltney,  G. Hawkins,  A. Heyden,  
 S. Hirata,  G. Kedziora,  F. J. Keil,  C. Kelley,  Jihan Kim,  R. A. King,  
 R. Z. Khaliullin,  P. P. Korambath,  W. Kurlancheek,  A. M. Lee,  M. S. Lee,  
 S. V. Levchenko,  Ching Yeh Lin,  D. Liotard,  R. C. Lochan,  I. Lotan,  
 P. E. Maslen,  N. Nair,  D. P. O'Neill,  D. Neuhauser,  E. Neuscamman,  
 C. M. Oana,  R. Olson,  B. Peters,  R. Peverati,  P. A. Pieniazek,  
 Y. M. Rhee,  J. Ritchie,  M. A. Rohrdanz,  E. Rosta,  N. J. Russ,  
 H. F. Schaefer III,  N. E. Schultz,  N. Shenvi,  A. C. Simmonett,  A. Sodt,  
 D. Stuck,  K. S. Thanthiriwatte,  V. Vanovschi,  Tao Wang,  A. Warshel,  
 C. F. Williams,  Q. Wu,  X. Xu,  W. Zhang

 Please cite Q-Chem as follows:
 Y. Shao et al., Mol. Phys. 113, 184-215 (2015)
 DOI: 10.1080/00268976.2014.952696

 Q-Chem 5.3.2 for Intel X86 EM64T Linux

 Parts of Q-Chem use Armadillo 9.800.1 (Horizon Scraper).
 http://arma.sourceforge.net/

 Q-Chem begins on Tue Jul 11 16:20:01 2023  

Host: 
0

     Scratch files written to /scratch/user/peterchao1/peterchao1/8628956_1689110386000000096281615/qchem179299//
 Dec820 |scratch|qcdevops|jenkins|workspace|build_RNUM -1
Processing $rem in /sw/restricted/qchem/sw/5.3.2/config/preferences:
Processing $rem in /home/peterchao1/.qchemrc:

 Q-Chem warning in module libgen/rem_setup.C, line 2945:

 Neither GIA nor STOLL is specified by user. Use STOLL as the default


Checking the input file for inconsistencies... 	...done.

--------------------------------------------------------------
User input:
--------------------------------------------------------------
$molecule
0 1
--
0 1
C       -1.758693    1.317221   -1.260742
C       -2.417770    0.769714    0.000032
C       -1.758635    1.317258    1.260760
C       -3.923177    1.012533    0.000063
Br       -2.149836   -1.211346    0.000056
H       -1.907204    2.412650   -1.294546
H       -2.204805    0.880535   -2.169540
H       -0.673805    1.122108   -1.264010
H       -2.204710    0.880603    2.169592
H       -1.907140    2.412689    1.294536
H       -0.673748    1.122140    1.263988
H       -4.400398    0.580298   -0.894847
H       -4.111074    2.102306    0.000051
H       -4.400358    0.580324    0.895007
--
0 1
C        1.758654   -1.317250   -1.260778
C        2.417774   -0.769714   -0.000038
C        1.758687   -1.317233    1.260726
C        3.923182   -1.012526   -0.000057
Br        2.149831    1.211345   -0.000047
H        1.907165   -2.412679   -1.294563
H        2.204735   -0.880583   -2.169600
H        0.673766   -1.122138   -1.264016
H        2.204801   -0.880564    2.169531
H        1.907188   -2.412664    1.294514
H        0.673802   -1.122109    1.263995
H        4.111083   -2.102299   -0.000051
H        4.400393   -0.580295    0.894860
H        4.400369   -0.580310   -0.894994
$end

$rem
JOBTYPE           eda
EDA2              2
METHOD            wB97X-D
BASIS             def2-SV(P)
SCF_CONVERGENCE   8
THRESH            14
SYMMETRY          false
DISP_FREE_X       wB97X-D
DISP_FREE_C       none
EDA_BSSE          true
$end
--------------------------------------------------------------
 ----------------------------------------------------------------
             Standard Nuclear Orientation (Angstroms)
    I     Atom           X                Y                Z
 ----------------------------------------------------------------
    1      C      -1.7586704538    -1.3172343693     1.2607598277
    2      C      -2.4177701204    -0.7697140519     0.0000034605
    3      C      -1.7586577795    -1.3172447265    -1.2607421732
    4      C      -3.9231771192    -1.0125330612    -0.0000030445
    5      Br     -2.1498361332     1.2113459500    -0.0000044235
    6      H      -1.9071808393    -2.4126637274     1.2945549227
    7      H      -2.2047661202    -0.8805579748     2.1695704608
    8      H      -0.6737823964    -1.1221213969     1.2640103877
    9      H      -2.2047491191    -0.8805801264    -2.1695615407
   10      H      -1.9071633798    -2.4126753705    -1.2945270783
   11      H      -0.6737708390    -1.1221266854    -1.2639876131
   12      H      -4.4003820352    -0.5803075202     0.8949201008
   13      H      -4.1110741122    -2.1023060625     0.0000008183
   14      H      -4.4003742090    -0.5803146081    -0.8949338998
   15      C       1.7586765299     1.3172366528     1.2607604374
   16      C       2.4177738705     0.7697139783     0.0000028042
   17      C       1.7586642041     1.3172462956    -1.2607435628
   18      C       3.9231818691     1.0125259878    -0.0000026910
   19      Br      2.1498308830    -1.2113450234    -0.0000043117
   20      H       1.9071881303     2.4126652967     1.2945543424
   21      H       2.2047738692     0.8805600528     2.1695698047
   22      H       0.6737885895     1.1221246116     1.2640158775
   23      H       2.2047618703     0.8805869012    -2.1695611957
   24      H       1.9071645899     2.4126776535    -1.2945226576
   25      H       0.6737791467     1.1221223232    -1.2639951229
   26      H       4.1110828622     2.1022989890    -0.0000005538
   27      H       4.4003767849     0.5803044468    -0.8949328360
   28      H       4.4003849588     0.5803005347     0.8949211642
 ----------------------------------------------------------------
 Molecular Point Group                 C1    NOp =  1
 Largest Abelian Subgroup              C1    NOp =  1
 Nuclear Repulsion Energy =        1200.11402179 hartrees
 There are       68 alpha and       68 beta electrons
 Requested basis set is def2-SV(P)
 There are 108 shells and 212 basis functions

 Total QAlloc Memory Limit   7500 MB
 Mega-Array Size       188 MB
 MEM_STATIC part       192 MB
 A cutoff of  1.0D-14 yielded   5166 shell pairs
 There are     19438 function pairs (     21917 Cartesian)
 Smallest overlap matrix eigenvalue = 1.95E-03

 Scale SEOQF with 1.000000e-01/1.000000e-01/1.000000e-01

 Standard Electronic Orientation quadrupole field applied
 Nucleus-field energy     =     0.0000000354 hartrees

 -----------------------------------------------------------------------
  General SCF calculation program by
  Eric Jon Sundstrom, Paul Horn, Yuezhi Mao, Dmitri Zuev, Alec White,
  David Stuck, Shaama M.S., Shane Yost, Joonho Lee, David Small,
  Daniel Levine, Susi Lehtola, Hugh Burton, Evgeny Epifanovsky,
  Bang C. Huynh
 -----------------------------------------------------------------------
================================================================
                 ALMO-EDA with the EDA2 driver                  
================================================================
 The second-generation ALMO-EDA (for DFT):                      
 P. R. Horn, Y. Mao and M. Head-Gordon, PCCP, 18, 23067 (2016)  
 Decomposition of the frozen energy:                            
 P. R. Horn, Y. Mao and M. Head-Gordon, JCP, 144, 114107 (2016) 
Using eda2 option set 2
Option set summary: Frozen orbital wavefunction, initial wavefunction decomposition, and traditional AO-based POL.
--------------------------------
Printing EDA Options
--------------------------------
eda_child_super_basis      0
fragmo_guess_mode          0
child_mp                   0
child_mp_orders            0
cls_elec                   1
cls_disp                   0
scfmi_mode                 1
scfmi_occs                 0
scfmi_virts                0
frz_relax                  0
frz_relax_method           0
dc_pen_start               0
dc_pen_conv                0
dc_pen_increment           0
dc_pen_steps               0
dc_pen_thresh_factor       0
dc_pen_pre_newton_thresh   0
frz_ortho_decomp           1
frz_ortho_decomp_conv      6
plot_mo_ortho_frz          0
frgm_method                2
scfmi_freeze_ss            0
separate_rehyb             0
plot_diff_den              0
eda_nocv                   0
eda_vct_relax              1
disp_free_x                -110
disp_free_c                0
eda_bsse                   1
eda_pct_a                  0
eda_covp                   0
--------------------------------
Attempting to make child job directory: /scratch/user/peterchao1/peterchao1/8628956_1689110386000000096281615/qchem179299//Frg1/
Attempting to make child job directory: /scratch/user/peterchao1/peterchao1/8628956_1689110386000000096281615/qchem179299//Frg2/
Creating input file /scratch/user/peterchao1/peterchao1/8628956_1689110386000000096281615/qchem179299/Frg1.input
using default PutDataFrgm: nothing
calling putenv with: QCSCRATCH=/scratch/user/peterchao1/peterchao1/8628956_1689110386000000096281615/qchem179299/ 
Spawning Job For Fragment 0
Done Job For Fragment 0
calling putenv with: QCSCRATCH=/scratch/user/peterchao1/peterchao1/8628956_1689110386000000096281615 
calling putenv with: QCTHREADS=8 
Creating input file /scratch/user/peterchao1/peterchao1/8628956_1689110386000000096281615/qchem179299/Frg2.input
using default PutDataFrgm: nothing
calling putenv with: QCSCRATCH=/scratch/user/peterchao1/peterchao1/8628956_1689110386000000096281615/qchem179299/ 
Spawning Job For Fragment 1
Done Job For Fragment 1
calling putenv with: QCSCRATCH=/scratch/user/peterchao1/peterchao1/8628956_1689110386000000096281615 
calling putenv with: QCTHREADS=8 
Doing General SCFMI
 Exchange:     0.2220 Hartree-Fock + 1.0000 wB97X-D + LR-HF
 Correlation:  1.0000 wB97X-D
 Using SG-2 standard quadrature grid
 Dispersion:   Grimme D
performing fock build before subrot guess so that all methods have access
Printing subrot_rss_gen Method Specification:
Occupied Subspace Method is 0
Virtual Subspace Method is 0
Energy of the unrelaxed supersystem initial determinant -5463.167784453241
write pseudocanon occs and virts to disk
write pseudocanon orbital energies to disk
Tolerance of ortho_decomp_scf: 1.00e-06
GDM subspace size: 20
Beginning the Orthogonal Decomposition of the Initial Supersystem Wavefunction
    1   -5463.1405001105      9.21e-02     ortho_decomp Preconditoned Steepest Descent
    2   -5463.1475593695      3.42e-04     ortho_decomp BFGS Step
    3   -5463.1475610742      1.92e-05     ortho_decomp BFGS Step
    4   -5463.1475610804      8.29e-07     ortho_decomp 00000 Convergence criterion met
 Exchange:     0.2220 Hartree-Fock + 1.0000 wB97X-D + LR-HF
 Correlation:  1.0000 wB97X-D
 Using SG-2 standard quadrature grid
 Dispersion:   Grimme D
 Long-range K will be added via erf
 Coulomb attenuation parameter = 0.2 bohr**(-1)
 Exchange:     0.2220 Hartree-Fock + 1.0000 wB97X-D + LR-HF
 Correlation:  1.0000 wB97X-D
 Using SG-2 standard quadrature grid
 Dispersion:   Grimme D
 Long-range K will be added via erf
 Coulomb attenuation parameter = 0.2 bohr**(-1)
 Exchange:     0.2220 Hartree-Fock + 1.0000 wB97X-D + LR-HF
 Correlation:  1.0000 wB97X-D
 Using SG-2 standard quadrature grid
 Dispersion:   Grimme D
 Long-range K will be added via erf
 Coulomb attenuation parameter = 0.2 bohr**(-1)
Doing General SCFMI
 Exchange:     0.2220 Hartree-Fock + 1.0000 wB97X-D + LR-HF
 Correlation:  1.0000 wB97X-D
 Using SG-2 standard quadrature grid
 Dispersion:   Grimme D
performing fock build at end of subrot_r(subrot) constructor so that all methods have access
<S^2> of initial wavefunction before polarization iterations 0.0000000000
Beginning iterations for the determination of the polarized wavefunction
Energy prior to optimization (guess energy) = -5463.167784453242
Begin Timing: Total SCF Calculation
begin iterations for algorithm: DIIS         
the SCF tolerance is set to 1.00e-08
    1   -5463.1677844532      1.25e-04     00000 
    2   -5463.1680925335      3.99e-05     00000 
    3   -5463.1681104192      2.41e-05     00000 
    4   -5463.1681177679      8.18e-06     00000 
    5   -5463.1681186750      1.46e-06     00000 
    6   -5463.1681187277      7.33e-07     00000 
    7   -5463.1681187359      1.01e-07     00000 
    8   -5463.1681187361      3.14e-08     00000 
    9   -5463.1681187361      8.31e-09     00000 Convergence criterion met
write pseudocanon occs and virts to disk
write pseudocanon orbital energies to disk
Timing for Total SCF: 132.00s (wall), 130.53s (cpu)
<S^2> of polarized wavefunction after polarization iterations 0.0000000000
relaxing scfmi constraint to allow all rotations in the entire AO span
Doing General SCFMI
 Exchange:     0.2220 Hartree-Fock + 1.0000 wB97X-D + LR-HF
 Correlation:  1.0000 wB97X-D
 Using SG-2 standard quadrature grid
 Dispersion:   Grimme D
performing fock build at end of subrot_r(subrot) constructor so that all methods have access
<S^2> of polarized wavefunction before ct-allowed iterations 0.0000000000
Beginning iterations for the determination of the CT-Allowed wavefunction
Energy prior to optimization (guess energy) = -5463.168118736134
Begin Timing: Total SCF Calculation
begin iterations for algorithm: DIIS         
the SCF tolerance is set to 1.00e-08
    1   -5463.1681187361      8.61e-04     00000 
    2   -5463.1725006696      5.70e-05     00000 
    3   -5463.1727419735      1.75e-05     00000 
    4   -5463.1727598761      1.22e-05     00000 
    5   -5463.1727628997      1.76e-06     00000 
    6   -5463.1727629979      7.65e-07     00000 
    7   -5463.1727630178      2.49e-07     00000 
    8   -5463.1727630197      4.22e-08     00000 
    9   -5463.1727630197      1.77e-08     00000 
   10   -5463.1727630197      3.21e-09     00000 Convergence criterion met
write pseudocanon occs and virts to disk
write pseudocanon orbital energies to disk
Timing for Total SCF: 150.00s (wall), 148.18s (cpu)
<S^2> of ct_allowed wavefunction after ct-allowed iterations 0.0000000000
Attempting to make child job directory: /scratch/user/peterchao1/peterchao1/8628956_1689110386000000096281615/qchem179299//FrgBSSE1/
Attempting to make child job directory: /scratch/user/peterchao1/peterchao1/8628956_1689110386000000096281615/qchem179299//FrgBSSE2/
Creating input file /scratch/user/peterchao1/peterchao1/8628956_1689110386000000096281615/qchem179299/FrgBSSE1.input
calling putenv with: QCSCRATCH=/scratch/user/peterchao1/peterchao1/8628956_1689110386000000096281615/qchem179299/ 
Spawning Job For Fragment 0
Done Job For Fragment 0
calling putenv with: QCSCRATCH=/scratch/user/peterchao1/peterchao1/8628956_1689110386000000096281615 
calling putenv with: QCTHREADS=8 
Creating input file /scratch/user/peterchao1/peterchao1/8628956_1689110386000000096281615/qchem179299/FrgBSSE2.input
calling putenv with: QCSCRATCH=/scratch/user/peterchao1/peterchao1/8628956_1689110386000000096281615/qchem179299/ 
Spawning Job For Fragment 1
Done Job For Fragment 1
calling putenv with: QCSCRATCH=/scratch/user/peterchao1/peterchao1/8628956_1689110386000000096281615 
calling putenv with: QCTHREADS=8 
====================================================================
   Evaluating the BSSE with fragment SCF in the supersystem basis
   Fragment contributions (kJ/mol) 
   Frgm 1: 3.7689
   Frgm 2: 3.7690
   BSSE (kJ/mol) = 7.5379
====================================================================

================================
        Results of EDA2         
================================
Basic EDA Quantities
--------------------
Fragment Energies (Ha):
1-2731.5820090183
2-2731.5820090331
--------------------
  E_prp (kJ/mol) = 0.0000
  E_frz (kJ/mol) = -9.8888
  E_pol (kJ/mol) = -0.8777
  E_vct (kJ/mol) = -4.6558 (CP-corrected)
  E_int (kJ/mol) = -15.4223 (CP-corrected)
--------------------


Decomposition of frozen interaction energy
--------------------
  --------------------
  Orthogonal Frozen Decomposition:
  --------------------
     E_elec   (ELEC)   (kJ/mol) = -24.3808
     E_pauli  (PAULI)  (kJ/mol) = 28.6583
     E_disp   (DISP)   (kJ/mol) = -14.1663
  --------------------
  Classical Frozen Decomposition:
  --------------------
     E_cls_elec  (CLS ELEC)  (kJ/mol) = -10.2299
     E_mod_pauli (MOD PAULI) (kJ/mol) = 14.5074 (FRZ - CLS ELEC - DISP)
     E_disp      (DISP)      (kJ/mol) = -14.1663
  --------------------
--------------------

Simplified EDA Summary (kJ/mol)
--------------------
 PREPARATION      0.0000
 FROZEN           -9.8888 (ELEC + PAULI + DISP)
[ELEC + PAULI = 4.2775, DISP = -14.1663]
 POLARIZATION    -0.8777
 CHARGE TRANSFER -4.6558     (counterpoise-corrected)
 TOTAL           -15.4223     (PRP + FRZ + POL + CT)
--------------------
 
 --------------------------------------------------------------
 
                    Orbital Energies (a.u.)
 --------------------------------------------------------------
 
 Alpha MOs
 -- Occupied --
********-483.0377 -62.6194 -62.6194 -56.4270 -56.4270 -56.4237 -56.4237
-56.4237 -56.4237 -10.3654 -10.3654 -10.2949 -10.2949 -10.2907 -10.2907
-10.2907 -10.2907  -8.7888  -8.7888  -6.6134  -6.6134  -6.6015  -6.6015
 -6.6015  -6.6015  -2.7170  -2.7170  -2.7139  -2.7139  -2.7137  -2.7137
 -2.7043  -2.7043  -2.7043  -2.7043  -0.9401  -0.9388  -0.8297  -0.8281
 -0.7890  -0.7877  -0.7869  -0.7854  -0.6357  -0.6321  -0.5535  -0.5526
 -0.5416  -0.5386  -0.5384  -0.5352  -0.4863  -0.4857  -0.4851  -0.4800
 -0.4584  -0.4539  -0.4349  -0.4339  -0.4334  -0.4331  -0.4064  -0.4054
 -0.3514  -0.3506  -0.3503  -0.3471
 -- Virtual --
  0.0692   0.0753   0.1213   0.1394   0.1818   0.1906   0.1924   0.1926
  0.1945   0.1979   0.1990   0.2045   0.2118   0.2212   0.2366   0.2372
  0.2406   0.2449   0.2593   0.2613   0.2661   0.2729   0.2916   0.2961
  0.3005   0.3278   0.4232   0.4482   0.4484   0.4521   0.4803   0.4805
  0.4813   0.4842   0.4843   0.5097   0.5528   0.5583   0.5891   0.5975
  0.5980   0.6084   0.6259   0.6409   0.6635   0.6655   0.6683   0.6752
  0.6871   0.6931   0.7064   0.7090   0.7131   0.7145   0.7438   0.7486
  0.7565   0.7594   0.7658   0.7665   0.7684   0.7779   0.7855   0.7940
  0.7951   0.7982   0.8022   0.8104   0.8164   0.8293   0.8389   0.8441
  0.8480   0.8512   0.8559   0.8608   0.8791   0.8828   0.9401   0.9473
  0.9500   0.9665   0.9737   0.9950   1.0261   1.0518   1.1284   1.1705
  1.1984   1.2011   1.2034   1.2099   1.2129   1.2174   1.4944   1.4972
  1.4994   1.5066   1.7875   1.7929   1.8773   1.8925   1.8939   1.8950
  1.9372   1.9447   2.0214   2.0238   2.0249   2.0370   2.0960   2.0963
  2.0978   2.1031   2.1570   2.1637   2.2244   2.2264   2.2281   2.2295
  2.2337   2.2365   2.2398   2.2473   2.5056   2.5111   2.5223   2.5229
  2.5254   2.5310   2.7365   2.7368   2.7398   2.7457   3.5861   3.5887
  3.5959   3.5974   3.6706   3.6719   3.6732   3.6733   3.8854   3.8901
 --------------------------------------------------------------
 
          Ground-State Mulliken Net Atomic Charges

     Atom                 Charge (a.u.)
  ----------------------------------------
      1 C                    -0.255443
      2 C                    -0.323253
      3 C                    -0.255444
      4 C                    -0.238961
      5 Br                   -0.121696
      6 H                     0.121278
      7 H                     0.130262
      8 H                     0.151462
      9 H                     0.130262
     10 H                     0.121278
     11 H                     0.151462
     12 H                     0.133396
     13 H                     0.121998
     14 H                     0.133397
     15 C                    -0.255442
     16 C                    -0.323254
     17 C                    -0.255442
     18 C                    -0.238961
     19 Br                   -0.121696
     20 H                     0.121278
     21 H                     0.130262
     22 H                     0.151461
     23 H                     0.130262
     24 H                     0.121278
     25 H                     0.151462
     26 H                     0.121999
     27 H                     0.133397
     28 H                     0.133397
  ----------------------------------------
  Sum of atomic charges =     0.000000

 -----------------------------------------------------------------
                    Cartesian Multipole Moments
 -----------------------------------------------------------------
    Charge (ESU x 10^10)
                 0.0000
    Dipole Moment (Debye)
         X       0.0000      Y       0.0000      Z       0.0000
       Tot       0.0000
    Quadrupole Moments (Debye-Ang)
        XX     -86.8942     XY      10.5105     YY     -88.9190
        XZ      -0.0000     YZ       0.0000     ZZ     -89.9834
    Octopole Moments (Debye-Ang^2)
       XXX       0.0001    XXY       0.0000    XYY      -0.0001
       YYY       0.0001    XXZ       0.0000    XYZ       0.0000
       YYZ      -0.0001    XZZ      -0.0000    YZZ       0.0000
       ZZZ      -0.0003
    Hexadecapole Moments (Debye-Ang^3)
      XXXX   -3395.3346   XXXY     -99.0635   XXYY    -722.9654
      XYYY    -147.6035   YYYY    -867.5934   XXXZ       0.0000
      XXYZ       0.0000   XYYZ       0.0000   YYYZ       0.0000
      XXZZ    -633.1452   XYZZ     -51.7023   YYZZ    -234.6490
      XZZZ      -0.0000   YZZZ      -0.0000   ZZZZ    -446.9673
 -----------------------------------------------------------------
Archival summary:
1\1\c101.cluster\SP\ProcedureUnspecified\BasisUnspecified\r2818\petercha\TueJul1116:35:502023TueJul1116:35:502023\0\\#,ProcedureUnspecified,BasisUnspecified,\\0,1\Br\C,1,1.9991\C,2,1.52437,1,107.337\H,3,1.1023,2,111.371,1,62.1025,0\H,3,1.10255,2,111.379,1,-59.819,0\H,3,1.10597,2,108.843,1,-179.061,0\C,2,1.52437,1,107.337,3,120.092,0\H,7,1.1023,2,111.371,1,-62.1032,0\H,7,1.10255,2,111.379,1,59.8183,0\H,7,1.10597,2,108.843,1,179.06,0\C,2,1.52486,1,106.865,3,-119.954,0\H,11,1.10247,2,111.401,1,-60.6765,0\H,11,1.10247,2,111.401,1,60.6762,0\H,11,1.10585,2,108.945,1,180,0\H,4,2.61774,3,131.178,2,-62.3481,0\C,15,1.1023,4,131.178,3,179.551,0\H,16,1.10255,15,109.007,4,60.9369,0\H,16,1.10597,15,107.902,4,178.253,0\C,16,1.52437,15,111.371,4,-62.3491,0\C,19,1.52437,16,111.597,15,-55.2401,0\H,20,1.1023,19,111.371,16,55.2398,0\H,20,1.10255,19,111.379,16,177.161,0\H,20,1.10597,19,108.843,16,-63.5971,0\C,19,1.52486,16,111.695,15,178.93,0\H,24,1.10247,19,111.401,16,-177.788,0\H,24,1.10247,19,111.401,16,-56.4358,0\H,24,1.10585,19,108.945,16,62.8879,0\Br,19,1.9991,16,107.337,15,62.1032,0\\\@

 Total job time:  949.43s(wall), 563.93s(cpu) 
 Tue Jul 11 16:35:50 2023

        *************************************************************
        *                                                           *
        *  Thank you very much for using Q-Chem.  Have a nice day.  *
        *                                                           *
        *************************************************************


remove work dirs /scratch/user/peterchao1/peterchao1/8628956_1689110386000000096281615/qchem179299.0 -- /scratch/user/peterchao1/peterchao1/8628956_1689110386000000096281615/qchem179299.-1
rm -rf /scratch/user/peterchao1/peterchao1/8628956_1689110386000000096281615/qchem179299
real 964.80
user 857.52
sys 61.09
