 Entering Gaussian System, Link 0=g16
 Input=gaussian_test.inp
 Output=gaussian_test.log
 Initial command:
 /sw/restricted/lms/sw/Gaussian/g16_B01/g16/l1.exe "/scratch/user/peterchao1/peterchao1/6113318_1660079103000000485671477/Gau-229088.inp" -scrdir="/scratch/user/peterchao1/peterchao1/6113318_1660079103000000485671477/"
 Entering Link 1 = /sw/restricted/lms/sw/Gaussian/g16_B01/g16/l1.exe PID=    229089.
  
 Copyright (c) 1988-2017, Gaussian, Inc.  All Rights Reserved.
  
 This is part of the Gaussian(R) 16 program.  It is based on
 the Gaussian(R) 09 system (copyright 2009, Gaussian, Inc.),
 the Gaussian(R) 03 system (copyright 2003, Gaussian, Inc.),
 the Gaussian(R) 98 system (copyright 1998, Gaussian, Inc.),
 the Gaussian(R) 94 system (copyright 1995, Gaussian, Inc.),
 the Gaussian 92(TM) system (copyright 1992, Gaussian, Inc.),
 the Gaussian 90(TM) system (copyright 1990, Gaussian, Inc.),
 the Gaussian 88(TM) system (copyright 1988, Gaussian, Inc.),
 the Gaussian 86(TM) system (copyright 1986, Carnegie Mellon
 University), and the Gaussian 82(TM) system (copyright 1983,
 Carnegie Mellon University). Gaussian is a federally registered
 trademark of Gaussian, Inc.
  
 This software contains proprietary and confidential information,
 including trade secrets, belonging to Gaussian, Inc.
  
 This software is provided under written license and may be
 used, copied, transmitted, or stored only in accord with that
 written license.
  
 The following legend is applicable only to US Government
 contracts under FAR:
  
                    RESTRICTED RIGHTS LEGEND
  
 Use, reproduction and disclosure by the US Government is
 subject to restrictions as set forth in subparagraphs (a)
 and (c) of the Commercial Computer Software - Restricted
 Rights clause in FAR 52.227-19.
  
 Gaussian, Inc.
 340 Quinnipiac St., Bldg. 40, Wallingford CT 06492
  
  
 ---------------------------------------------------------------
 Warning -- This program may not be used in any manner that
 competes with the business of Gaussian, Inc. or will provide
 assistance to any competitor of Gaussian, Inc.  The licensee
 of this program is prohibited from giving any competitor of
 Gaussian, Inc. access to this program.  By using this program,
 the user acknowledges that Gaussian, Inc. is engaged in the
 business of creating and licensing software in the field of
 computational chemistry and represents and warrants to the
 licensee that it is not a competitor of Gaussian, Inc. and that
 it will not use this program in any manner prohibited above.
 ---------------------------------------------------------------
  

 Cite this work as:
 Gaussian 16, Revision B.01,
 M. J. Frisch, G. W. Trucks, H. B. Schlegel, G. E. Scuseria, 
 M. A. Robb, J. R. Cheeseman, G. Scalmani, V. Barone, 
 G. A. Petersson, H. Nakatsuji, X. Li, M. Caricato, A. V. Marenich, 
 J. Bloino, B. G. Janesko, R. Gomperts, B. Mennucci, H. P. Hratchian, 
 J. V. Ortiz, A. F. Izmaylov, J. L. Sonnenberg, D. Williams-Young, 
 F. Ding, F. Lipparini, F. Egidi, J. Goings, B. Peng, A. Petrone, 
 T. Henderson, D. Ranasinghe, V. G. Zakrzewski, J. Gao, N. Rega, 
 G. Zheng, W. Liang, M. Hada, M. Ehara, K. Toyota, R. Fukuda, 
 J. Hasegawa, M. Ishida, T. Nakajima, Y. Honda, O. Kitao, H. Nakai, 
 T. Vreven, K. Throssell, J. A. Montgomery, Jr., J. E. Peralta, 
 F. Ogliaro, M. J. Bearpark, J. J. Heyd, E. N. Brothers, K. N. Kudin, 
 V. N. Staroverov, T. A. Keith, R. Kobayashi, J. Normand, 
 K. Raghavachari, A. P. Rendell, J. C. Burant, S. S. Iyengar, 
 J. Tomasi, M. Cossi, J. M. Millam, M. Klene, C. Adamo, R. Cammi, 
 J. W. Ochterski, R. L. Martin, K. Morokuma, O. Farkas, 
 J. B. Foresman, and D. J. Fox, Gaussian, Inc., Wallingford CT, 2016.
 
 ******************************************
 Gaussian 16:  ES64L-G16RevB.01 20-Dec-2017
                 9-Aug-2022 
 ******************************************
 %nprocshared=4
 Will use up to    4 processors via shared memory.
 %mem=8000mb
 ----------------------------------------------------------------------
 #T wB97XD/def2svpp opt=tight freq int(grid=ultrafine) scf=(verytight,q
 c)
 ----------------------------------------------------------------------
 -----
 dimer
 -----
 Symbolic Z-matrix:
 Charge =  0 Multiplicity = 1
 N                    -1.5447   -0.26666   1.13026 
 C                    -2.24442   0.588     0.16318 
 C                    -3.73659   0.70133   0.54556 
 O                    -4.30305  -0.5691    0.72375 
 C                    -1.57459   1.97009   0.14324 
 O                    -0.22499   1.91067  -0.21443 
 C                    -2.1272   -0.05133  -1.24176 
 O                    -2.49538  -1.41041  -1.26575 
 H                    -2.16077  -1.04919   1.34772 
 H                    -1.40224   0.24603   1.99569 
 H                    -4.27533   1.27519  -0.22153 
 H                    -3.8447    1.22259   1.50265 
 H                    -4.09528  -1.09326  -0.06786 
 H                    -1.6914    2.43702   1.13475 
 H                    -2.06819   2.6088   -0.59351 
 H                     0.22519   1.24283   0.35765 
 H                    -1.10604   0.08291  -1.60854 
 H                    -2.80678   0.47136  -1.92131 
 H                    -1.73194  -1.93355  -0.98637 
 N                     1.54438   0.26593   1.13031 
 C                     2.24472  -0.58815   0.16315 
 C                     3.73709  -0.69966   0.54535 
 O                     4.30161   0.57157   0.72422 
 C                     1.57596  -1.97073   0.1434 
 O                     0.226    -1.91223  -0.21322 
 C                     2.12673   0.05077  -1.24193 
 O                     2.49468   1.40989  -1.26647 
 H                     2.16031   1.04833   1.34868 
 H                     1.40131  -0.2473    1.99533 
 H                     4.2766   -1.27215  -0.22218 
 H                     3.8461   -1.22133   1.5021 
 H                     4.09336   1.09557  -0.0674 
 H                     1.69391  -2.43778   1.13472 
 H                     2.06944  -2.60894  -0.59386 
 H                    -0.22409  -1.24408   0.35849 
 H                     1.10545  -0.08379  -1.60824 
 H                     2.80612  -0.47206  -1.92154 
 H                     1.73104   1.93304  -0.98761 
 
 Add virtual bond connecting atoms N20        and H16        Dist= 3.43D+00.
 Add virtual bond connecting atoms H35        and N1         Dist= 3.43D+00.

 GradGradGradGradGradGradGradGradGradGradGradGradGradGradGradGradGradGrad
 Initialization pass.
                           ----------------------------
                           !    Initial Parameters    !
                           ! (Angstroms and Degrees)  !
 --------------------------                            --------------------------
 ! Name  Definition              Value          Derivative Info.                !
 --------------------------------------------------------------------------------
 ! R1    R(1,2)                  1.4681         estimate D2E/DX2                !
 ! R2    R(1,9)                  1.0194         estimate D2E/DX2                !
 ! R3    R(1,10)                 1.0159         estimate D2E/DX2                !
 ! R4    R(1,35)                 1.8152         estimate D2E/DX2                !
 ! R5    R(2,3)                  1.5446         estimate D2E/DX2                !
 ! R6    R(2,5)                  1.536          estimate D2E/DX2                !
 ! R7    R(2,7)                  1.548          estimate D2E/DX2                !
 ! R8    R(3,4)                  1.4024         estimate D2E/DX2                !
 ! R9    R(3,11)                 1.0991         estimate D2E/DX2                !
 ! R10   R(3,12)                 1.0952         estimate D2E/DX2                !
 ! R11   R(4,13)                 0.9719         estimate D2E/DX2                !
 ! R12   R(5,6)                  1.3975         estimate D2E/DX2                !
 ! R13   R(5,14)                 1.1022         estimate D2E/DX2                !
 ! R14   R(5,15)                 1.0929         estimate D2E/DX2                !
 ! R15   R(6,16)                 0.9879         estimate D2E/DX2                !
 ! R16   R(7,8)                  1.4083         estimate D2E/DX2                !
 ! R17   R(7,17)                 1.0933         estimate D2E/DX2                !
 ! R18   R(7,18)                 1.094          estimate D2E/DX2                !
 ! R19   R(8,19)                 0.9667         estimate D2E/DX2                !
 ! R20   R(16,20)                1.8143         estimate D2E/DX2                !
 ! R21   R(20,21)                1.4681         estimate D2E/DX2                !
 ! R22   R(20,28)                1.0194         estimate D2E/DX2                !
 ! R23   R(20,29)                1.0159         estimate D2E/DX2                !
 ! R24   R(21,22)                1.5446         estimate D2E/DX2                !
 ! R25   R(21,24)                1.536          estimate D2E/DX2                !
 ! R26   R(21,26)                1.548          estimate D2E/DX2                !
 ! R27   R(22,23)                1.4024         estimate D2E/DX2                !
 ! R28   R(22,30)                1.0991         estimate D2E/DX2                !
 ! R29   R(22,31)                1.0952         estimate D2E/DX2                !
 ! R30   R(23,32)                0.9719         estimate D2E/DX2                !
 ! R31   R(24,25)                1.3975         estimate D2E/DX2                !
 ! R32   R(24,33)                1.1022         estimate D2E/DX2                !
 ! R33   R(24,34)                1.0929         estimate D2E/DX2                !
 ! R34   R(25,35)                0.9879         estimate D2E/DX2                !
 ! R35   R(26,27)                1.4083         estimate D2E/DX2                !
 ! R36   R(26,36)                1.0933         estimate D2E/DX2                !
 ! R37   R(26,37)                1.094          estimate D2E/DX2                !
 ! R38   R(27,38)                0.9667         estimate D2E/DX2                !
 ! A1    A(2,1,9)              107.4196         estimate D2E/DX2                !
 ! A2    A(2,1,10)             109.5232         estimate D2E/DX2                !
 ! A3    A(2,1,35)             112.3429         estimate D2E/DX2                !
 ! A4    A(9,1,10)             106.8822         estimate D2E/DX2                !
 ! A5    A(9,1,35)              96.7209         estimate D2E/DX2                !
 ! A6    A(10,1,35)            122.1344         estimate D2E/DX2                !
 ! A7    A(1,2,3)              109.8823         estimate D2E/DX2                !
 ! A8    A(1,2,5)              108.9374         estimate D2E/DX2                !
 ! A9    A(1,2,7)              108.7431         estimate D2E/DX2                !
 ! A10   A(3,2,5)              111.0078         estimate D2E/DX2                !
 ! A11   A(3,2,7)              109.1559         estimate D2E/DX2                !
 ! A12   A(5,2,7)              109.076          estimate D2E/DX2                !
 ! A13   A(2,3,4)              110.807          estimate D2E/DX2                !
 ! A14   A(2,3,11)             109.8204         estimate D2E/DX2                !
 ! A15   A(2,3,12)             110.2816         estimate D2E/DX2                !
 ! A16   A(4,3,11)             111.3272         estimate D2E/DX2                !
 ! A17   A(4,3,12)             106.2761         estimate D2E/DX2                !
 ! A18   A(11,3,12)            108.2425         estimate D2E/DX2                !
 ! A19   A(3,4,13)             107.3813         estimate D2E/DX2                !
 ! A20   A(2,5,6)              112.7199         estimate D2E/DX2                !
 ! A21   A(2,5,14)             108.8636         estimate D2E/DX2                !
 ! A22   A(2,5,15)             109.7349         estimate D2E/DX2                !
 ! A23   A(6,5,14)             110.5245         estimate D2E/DX2                !
 ! A24   A(6,5,15)             106.7674         estimate D2E/DX2                !
 ! A25   A(14,5,15)            108.1187         estimate D2E/DX2                !
 ! A26   A(5,6,16)             108.7003         estimate D2E/DX2                !
 ! A27   A(2,7,8)              113.2184         estimate D2E/DX2                !
 ! A28   A(2,7,17)             108.9343         estimate D2E/DX2                !
 ! A29   A(2,7,18)             108.6262         estimate D2E/DX2                !
 ! A30   A(8,7,17)             110.9139         estimate D2E/DX2                !
 ! A31   A(8,7,18)             106.745          estimate D2E/DX2                !
 ! A32   A(17,7,18)            108.2493         estimate D2E/DX2                !
 ! A33   A(7,8,19)             108.111          estimate D2E/DX2                !
 ! A34   A(6,16,20)            160.3844         estimate D2E/DX2                !
 ! A35   A(16,20,21)           112.306          estimate D2E/DX2                !
 ! A36   A(16,20,28)            96.7358         estimate D2E/DX2                !
 ! A37   A(16,20,29)           122.1566         estimate D2E/DX2                !
 ! A38   A(21,20,28)           107.4209         estimate D2E/DX2                !
 ! A39   A(21,20,29)           109.524          estimate D2E/DX2                !
 ! A40   A(28,20,29)           106.8829         estimate D2E/DX2                !
 ! A41   A(20,21,22)           109.8708         estimate D2E/DX2                !
 ! A42   A(20,21,24)           108.931          estimate D2E/DX2                !
 ! A43   A(20,21,26)           108.7521         estimate D2E/DX2                !
 ! A44   A(22,21,24)           111.0319         estimate D2E/DX2                !
 ! A45   A(22,21,26)           109.1499         estimate D2E/DX2                !
 ! A46   A(24,21,26)           109.0667         estimate D2E/DX2                !
 ! A47   A(21,22,23)           110.7974         estimate D2E/DX2                !
 ! A48   A(21,22,30)           109.8214         estimate D2E/DX2                !
 ! A49   A(21,22,31)           110.2878         estimate D2E/DX2                !
 ! A50   A(23,22,30)           111.3242         estimate D2E/DX2                !
 ! A51   A(23,22,31)           106.278          estimate D2E/DX2                !
 ! A52   A(30,22,31)           108.2466         estimate D2E/DX2                !
 ! A53   A(22,23,32)           107.3727         estimate D2E/DX2                !
 ! A54   A(21,24,25)           112.7176         estimate D2E/DX2                !
 ! A55   A(21,24,33)           108.8619         estimate D2E/DX2                !
 ! A56   A(21,24,34)           109.7385         estimate D2E/DX2                !
 ! A57   A(25,24,33)           110.5261         estimate D2E/DX2                !
 ! A58   A(25,24,34)           106.767          estimate D2E/DX2                !
 ! A59   A(33,24,34)           108.1181         estimate D2E/DX2                !
 ! A60   A(24,25,35)           108.7088         estimate D2E/DX2                !
 ! A61   A(21,26,27)           113.2181         estimate D2E/DX2                !
 ! A62   A(21,26,36)           108.9362         estimate D2E/DX2                !
 ! A63   A(21,26,37)           108.6191         estimate D2E/DX2                !
 ! A64   A(27,26,36)           110.9168         estimate D2E/DX2                !
 ! A65   A(27,26,37)           106.7474         estimate D2E/DX2                !
 ! A66   A(36,26,37)           108.2491         estimate D2E/DX2                !
 ! A67   A(26,27,38)           108.1104         estimate D2E/DX2                !
 ! A68   A(1,35,25)            160.345          estimate D2E/DX2                !
 ! D1    D(9,1,2,3)             40.5133         estimate D2E/DX2                !
 ! D2    D(9,1,2,5)            162.3242         estimate D2E/DX2                !
 ! D3    D(9,1,2,7)            -78.9058         estimate D2E/DX2                !
 ! D4    D(10,1,2,3)           -75.2198         estimate D2E/DX2                !
 ! D5    D(10,1,2,5)            46.591          estimate D2E/DX2                !
 ! D6    D(10,1,2,7)           165.3611         estimate D2E/DX2                !
 ! D7    D(35,1,2,3)           145.6766         estimate D2E/DX2                !
 ! D8    D(35,1,2,5)           -92.5125         estimate D2E/DX2                !
 ! D9    D(35,1,2,7)            26.2575         estimate D2E/DX2                !
 ! D10   D(2,1,35,25)          -65.6417         estimate D2E/DX2                !
 ! D11   D(9,1,35,25)           46.3419         estimate D2E/DX2                !
 ! D12   D(10,1,35,25)         161.1347         estimate D2E/DX2                !
 ! D13   D(1,2,3,4)            -52.1507         estimate D2E/DX2                !
 ! D14   D(1,2,3,11)          -175.5542         estimate D2E/DX2                !
 ! D15   D(1,2,3,12)            65.2406         estimate D2E/DX2                !
 ! D16   D(5,2,3,4)           -172.7185         estimate D2E/DX2                !
 ! D17   D(5,2,3,11)            63.878          estimate D2E/DX2                !
 ! D18   D(5,2,3,12)           -55.3271         estimate D2E/DX2                !
 ! D19   D(7,2,3,4)             67.0157         estimate D2E/DX2                !
 ! D20   D(7,2,3,11)           -56.3878         estimate D2E/DX2                !
 ! D21   D(7,2,3,12)          -175.5929         estimate D2E/DX2                !
 ! D22   D(1,2,5,6)             59.5779         estimate D2E/DX2                !
 ! D23   D(1,2,5,14)           -63.4289         estimate D2E/DX2                !
 ! D24   D(1,2,5,15)           178.4255         estimate D2E/DX2                !
 ! D25   D(3,2,5,6)           -179.2968         estimate D2E/DX2                !
 ! D26   D(3,2,5,14)            57.6964         estimate D2E/DX2                !
 ! D27   D(3,2,5,15)           -60.4492         estimate D2E/DX2                !
 ! D28   D(7,2,5,6)            -58.9836         estimate D2E/DX2                !
 ! D29   D(7,2,5,14)           178.0096         estimate D2E/DX2                !
 ! D30   D(7,2,5,15)            59.8641         estimate D2E/DX2                !
 ! D31   D(1,2,7,8)             50.5751         estimate D2E/DX2                !
 ! D32   D(1,2,7,17)           -73.3289         estimate D2E/DX2                !
 ! D33   D(1,2,7,18)           168.9617         estimate D2E/DX2                !
 ! D34   D(3,2,7,8)            -69.2964         estimate D2E/DX2                !
 ! D35   D(3,2,7,17)           166.7996         estimate D2E/DX2                !
 ! D36   D(3,2,7,18)            49.0902         estimate D2E/DX2                !
 ! D37   D(5,2,7,8)            169.2581         estimate D2E/DX2                !
 ! D38   D(5,2,7,17)            45.3541         estimate D2E/DX2                !
 ! D39   D(5,2,7,18)           -72.3553         estimate D2E/DX2                !
 ! D40   D(2,3,4,13)           -51.6214         estimate D2E/DX2                !
 ! D41   D(11,3,4,13)           70.91           estimate D2E/DX2                !
 ! D42   D(12,3,4,13)         -171.4395         estimate D2E/DX2                !
 ! D43   D(2,5,6,16)           -51.7493         estimate D2E/DX2                !
 ! D44   D(14,5,6,16)           70.3256         estimate D2E/DX2                !
 ! D45   D(15,5,6,16)         -172.3126         estimate D2E/DX2                !
 ! D46   D(5,6,16,20)         -171.0313         estimate D2E/DX2                !
 ! D47   D(2,7,8,19)           -83.3242         estimate D2E/DX2                !
 ! D48   D(17,7,8,19)           39.4898         estimate D2E/DX2                !
 ! D49   D(18,7,8,19)          157.2039         estimate D2E/DX2                !
 ! D50   D(6,16,20,21)         -65.5916         estimate D2E/DX2                !
 ! D51   D(6,16,20,28)          46.3899         estimate D2E/DX2                !
 ! D52   D(6,16,20,29)         161.2039         estimate D2E/DX2                !
 ! D53   D(16,20,21,22)        145.5848         estimate D2E/DX2                !
 ! D54   D(16,20,21,24)        -92.586          estimate D2E/DX2                !
 ! D55   D(16,20,21,26)         26.1744         estimate D2E/DX2                !
 ! D56   D(28,20,21,22)         40.4197         estimate D2E/DX2                !
 ! D57   D(28,20,21,24)        162.2489         estimate D2E/DX2                !
 ! D58   D(28,20,21,26)        -78.9907         estimate D2E/DX2                !
 ! D59   D(29,20,21,22)        -75.3154         estimate D2E/DX2                !
 ! D60   D(29,20,21,24)         46.5138         estimate D2E/DX2                !
 ! D61   D(29,20,21,26)        165.2742         estimate D2E/DX2                !
 ! D62   D(20,21,22,23)        -52.1034         estimate D2E/DX2                !
 ! D63   D(20,21,22,30)       -175.497          estimate D2E/DX2                !
 ! D64   D(20,21,22,31)         65.2882         estimate D2E/DX2                !
 ! D65   D(24,21,22,23)       -172.6712         estimate D2E/DX2                !
 ! D66   D(24,21,22,30)         63.9352         estimate D2E/DX2                !
 ! D67   D(24,21,22,31)        -55.2795         estimate D2E/DX2                !
 ! D68   D(26,21,22,23)         67.0634         estimate D2E/DX2                !
 ! D69   D(26,21,22,30)        -56.3302         estimate D2E/DX2                !
 ! D70   D(26,21,22,31)       -175.5449         estimate D2E/DX2                !
 ! D71   D(20,21,24,25)         59.5374         estimate D2E/DX2                !
 ! D72   D(20,21,24,33)        -63.4685         estimate D2E/DX2                !
 ! D73   D(20,21,24,34)        178.3855         estimate D2E/DX2                !
 ! D74   D(22,21,24,25)       -179.3406         estimate D2E/DX2                !
 ! D75   D(22,21,24,33)         57.6534         estimate D2E/DX2                !
 ! D76   D(22,21,24,34)        -60.4925         estimate D2E/DX2                !
 ! D77   D(26,21,24,25)        -59.0258         estimate D2E/DX2                !
 ! D78   D(26,21,24,33)        177.9682         estimate D2E/DX2                !
 ! D79   D(26,21,24,34)         59.8222         estimate D2E/DX2                !
 ! D80   D(20,21,26,27)         50.6243         estimate D2E/DX2                !
 ! D81   D(20,21,26,36)        -73.2847         estimate D2E/DX2                !
 ! D82   D(20,21,26,37)        169.009          estimate D2E/DX2                !
 ! D83   D(22,21,26,27)        -69.235          estimate D2E/DX2                !
 ! D84   D(22,21,26,36)        166.856          estimate D2E/DX2                !
 ! D85   D(22,21,26,37)         49.1497         estimate D2E/DX2                !
 ! D86   D(24,21,26,27)        169.2995         estimate D2E/DX2                !
 ! D87   D(24,21,26,36)         45.3905         estimate D2E/DX2                !
 ! D88   D(24,21,26,37)        -72.3158         estimate D2E/DX2                !
 ! D89   D(21,22,23,32)        -51.6549         estimate D2E/DX2                !
 ! D90   D(30,22,23,32)         70.8688         estimate D2E/DX2                !
 ! D91   D(31,22,23,32)       -171.4763         estimate D2E/DX2                !
 ! D92   D(21,24,25,35)        -51.6771         estimate D2E/DX2                !
 ! D93   D(33,24,25,35)         70.3953         estimate D2E/DX2                !
 ! D94   D(34,24,25,35)       -172.243          estimate D2E/DX2                !
 ! D95   D(24,25,35,1)        -171.1074         estimate D2E/DX2                !
 ! D96   D(21,26,27,38)        -83.3733         estimate D2E/DX2                !
 ! D97   D(36,26,27,38)         39.4452         estimate D2E/DX2                !
 ! D98   D(37,26,27,38)        157.162          estimate D2E/DX2                !
 --------------------------------------------------------------------------------
 Number of steps in this run=    214 maximum allowed number of steps=    228.
 GradGradGradGradGradGradGradGradGradGradGradGradGradGradGradGradGradGrad

                    Distance matrix (angstroms):
                    1          2          3          4          5
     1  N    0.000000
     2  C    1.468096   0.000000
     3  C    2.466434   1.544554   0.000000
     4  O    2.804504   2.427162   1.402364   0.000000
     5  C    2.445024   1.535973   2.538867   3.772129   0.000000
     6  O    2.879340   2.443384   3.790969   4.864160   1.397455
     7  C    2.451970   1.548013   2.520149   2.977526   2.511917
     8  O    2.820069   2.469510   3.046459   2.816666   3.776356
     9  H    1.019403   2.022510   2.488177   2.282370   3.303090
    10  H    1.015935   2.045558   2.785565   3.270619   2.536465
    11  H    3.414825   2.178268   1.099085   2.072619   2.812461
    12  H    2.765242   2.181233   1.095180   2.006722   2.749565
    13  H    2.936705   2.511119   1.930153   0.971887   3.972721
    14  H    2.707669   2.160706   2.746377   4.003303   1.102162
    15  H    3.393188   2.165009   2.778399   4.102301   1.092886
    16  H    2.451119   2.562339   4.003032   4.891023   1.952971
    17  H    2.795644   2.165641   3.455775   4.010683   2.617195
    18  H    3.383720   2.162159   2.646293   3.212122   2.833163
    19  H    2.700683   2.818215   3.648021   3.375927   4.066836
    20  N    3.134649   3.923522   5.331054   5.920725   3.688687
    21  C    3.924072   4.640658   6.130671   6.571756   4.596971
    22  C    5.331685   6.130461   7.603862   8.043181   5.958455
    23  O    5.920037   6.570051   8.041240   8.679943   6.068212
    24  C    3.690020   4.598134   5.960278   6.071590   5.045399
    25  O    2.765532   3.534940   4.807139   4.816038   4.294364
    26  C    4.382625   4.622757   6.164164   6.752056   4.393434
    27  O    4.987152   5.017812   6.527961   7.354357   4.342819
    28  H    3.937506   4.584636   5.961445   6.691906   4.031399
    29  H    3.070455   4.164835   5.422159   5.853225   4.147654
    30  H    6.060327   6.792078   8.288263   8.660224   6.699407
    31  H    5.487288   6.493135   7.880916   8.212180   6.435491
    32  H    5.922650   6.362253   7.863801   8.596329   5.738891
    33  H    3.899018   5.060602   6.300119   6.294793   5.576328
    34  H    4.639056   5.422450   6.779841   6.819513   5.898289
    35  H    1.815205   2.734299   4.019613   4.150536   3.492997
    36  H    3.815247   3.848489   5.357302   5.909793   3.803780
    37  H    5.318391   5.565766   7.090174   7.585998   5.423843
    38  H    4.478228   4.351749   5.810573   6.752761   3.493913
                    6          7          8          9         10
     6  O    0.000000
     7  C    2.919467   0.000000
     8  O    4.158071   1.408275   0.000000
     9  H    3.866308   2.775297   2.659445   0.000000
    10  H    3.006926   3.330931   3.817817   1.634877   0.000000
    11  H    4.099898   2.723048   3.386902   3.512365   3.772254
    12  H    4.064982   3.479145   4.051839   2.832072   2.676255
    13  H    4.901453   2.517338   2.023663   2.397533   3.647519
    14  H    2.060988   3.468375   4.605598   3.524112   2.371771
    15  H    2.007105   2.738616   4.097377   4.142207   3.567934
    16  H    0.987905   3.125175   4.132384   3.453460   2.515022
    17  H    2.461814   1.093304   2.068277   3.336699   3.620060
    18  H    3.413311   1.093985   2.016877   3.662776   4.167297
    19  H    4.200577   1.940158   0.966727   2.532581   3.708365
    20  N    2.764806   4.382677   4.987064   3.937625   3.071133
    21  C    3.533580   4.623383   5.018603   4.585202   4.165866
    22  C    4.805120   6.164742   6.529081   5.962438   5.423151
    23  O    4.812943   6.751502   7.354407   6.691634   5.852916
    24  C    4.293810   4.395025   4.344592   4.032711   4.149063
    25  O    3.849414   3.171503   2.960665   2.979596   3.491207
    26  C    3.169479   4.255159   4.847629   5.128237   4.793118
    27  O    2.958747   4.847431   5.731911   5.878286   5.213663
    28  H    2.979358   5.128581   5.878435   4.803255   3.708650
    29  H    3.490663   4.792450   5.212641   3.708212   2.846631
    30  H    5.513142   6.598380   6.853305   6.629779   6.282762
    31  H    5.415691   6.676678   6.921781   6.011314   5.471918
    32  H    4.397067   6.433503   7.150350   6.761413   5.931254
    33  H    4.940796   5.093501   4.936382   4.102690   4.186916
    34  H    5.082848   4.957118   4.767126   4.908891   5.187412
    35  H    3.206351   2.757768   2.797239   2.183409   2.507769
    36  H    2.773209   3.253524   3.852688   4.509756   4.402917
    37  H    4.216553   4.997681   5.423695   5.974205   5.794026
    38  H    2.103422   4.346074   5.396169   5.430805   4.643663
                   11         12         13         14         15
    11  H    0.000000
    12  H    1.777924   0.000000
    13  H    2.380249   2.809352   0.000000
    14  H    3.141029   2.499376   4.437094   0.000000
    15  H    2.605450   3.077570   4.253312   1.777175   0.000000
    16  H    4.537755   4.227933   4.929994   2.388160   2.833760
    17  H    3.659198   4.298674   3.562668   3.661984   2.887240
    18  H    2.385798   3.655830   2.746546   3.800970   2.622447
    19  H    4.165317   4.540948   2.671170   4.858262   4.571694
    20  N    6.059298   5.485977   5.923575   3.896654   4.638020
    21  C    6.791991   6.492617   6.364286   5.058533   5.421648
    22  C    8.287766   7.880035   7.866194   6.297195   6.778215
    23  O    8.657573   8.209273   8.596913   6.290046   6.816241
    24  C    6.701260   6.436492   5.742615   5.575549   5.898733
    25  O    5.515589   5.416813   4.400605   4.940590   5.084061
    26  C    6.597488   6.675614   6.434336   5.091260   4.955940
    27  O    6.851505   6.920317   7.150526   4.933975   4.765507
    28  H    6.628309   6.009504   6.762052   4.099986   4.907886
    29  H    6.281461   5.470277   5.931691   4.184622   5.186217
    30  H    8.923255   8.669153   8.375214   7.156552   7.446880
    31  H    8.669556   8.069765   8.096093   6.646985   7.351213
    32  H    8.372043   8.092835   8.476137   6.058724   6.366428
    33  H    7.159432   6.649050   6.063720   5.934985   6.527496
    34  H    7.448579   7.352078   6.370072   6.526393   6.659197
    35  H    4.805800   4.527953   3.897519   4.038080   4.376265
    36  H    5.720371   5.990681   5.517195   4.658421   4.283894
    37  H    7.489322   7.670093   7.172963   6.166960   5.917290
    38  H    6.090664   6.147764   6.629514   4.058514   3.878936
                   16         17         18         19         20
    16  H    0.000000
    17  H    2.642631   0.000000
    18  H    3.870612   1.772347   0.000000
    19  H    3.965618   2.201123   2.795168   0.000000
    20  N    1.814270   3.815691   5.318560   4.477977   0.000000
    21  C    2.732915   3.849262   5.566431   4.352620   1.468108
    22  C    4.017700   5.357947   7.090690   5.811965   2.466278
    23  O    4.147552   5.909595   7.585386   6.753183   2.803691
    24  C    3.492486   3.805249   5.425428   3.495711   2.444920
    25  O    3.206286   2.775221   4.218627   2.105172   2.878809
    26  C    2.755994   3.253654   4.997795   4.346511   2.452128
    27  O    2.795755   3.852676   5.423571   5.396421   2.820682
    28  H    2.182804   4.510675   5.974746   5.430802   1.019412
    29  H    2.507135   4.402695   5.793488   4.642331   1.015939
    30  H    4.803667   5.721101   7.490064   6.092942   3.414668
    31  H    4.526900   5.991731   7.671094   6.149329   2.765521
    32  H    3.894240   5.516741   7.172069   6.629799   2.936008
    33  H    4.038299   4.660377   6.169166   4.060755   2.707847
    34  H    4.375245   4.284784   5.918439   3.880815   3.393130
    35  H    2.527162   2.531389   3.848435   2.134860   2.450163
    36  H    2.529725   2.217769   3.963804   3.443707   2.795464
    37  H    3.846657   3.963710   5.691633   4.858444   3.383847
    38  H    2.133943   3.443483   4.857993   5.190638   2.701792
                   21         22         23         24         25
    21  C    0.000000
    22  C    1.544564   0.000000
    23  O    2.427049   1.402388   0.000000
    24  C    1.535952   2.539225   3.772241   0.000000
    25  O    2.443370   3.791241   4.864017   1.397498   0.000000
    26  C    1.548026   2.520073   2.977765   2.511766   2.919657
    27  O    2.469506   3.045728   2.816136   3.776294   4.158454
    28  H    2.022542   2.487373   2.280887   3.302856   3.865998
    29  H    2.045581   2.786200   3.270780   2.535811   3.005163
    30  H    2.178269   1.099057   2.072581   2.813379   4.100870
    31  H    2.181312   1.095169   2.006758   2.749758   4.065066
    32  H    2.511089   1.930089   0.971910   3.972905   4.901494
    33  H    2.160666   2.746457   4.003101   1.102162   2.061044
    34  H    2.165033   2.779247   4.103116   1.092881   2.007133
    35  H    2.561917   4.002781   4.890022   1.953069   0.987851
    36  H    2.165674   3.455834   4.010652   2.617291   2.462263
    37  H    2.162078   2.646521   3.213365   2.832546   3.413137
    38  H    2.818603   3.647642   3.375176   4.067269   4.201300
                   26         27         28         29         30
    26  C    0.000000
    27  O    1.408261   0.000000
    28  H    2.776235   2.661109   0.000000
    29  H    3.330901   3.818511   1.634894   0.000000
    30  H    2.722485   3.385128   3.511539   3.772921   0.000000
    31  H    3.479104   4.051496   2.831393   2.677497   1.777939
    32  H    2.517694   2.022955   2.396708   3.647640   2.379840
    33  H    3.468242   4.605598   3.523671   2.371594   3.141685
    34  H    2.738130   4.096860   4.142139   3.567580   2.607047
    35  H    3.124790   4.132279   3.452671   2.512916   4.538079
    36  H    1.093299   2.068297   3.337331   3.619391   3.659171
    37  H    1.093984   2.016895   3.663740   4.167238   2.385427
    38  H    1.940148   0.966739   2.534804   3.709519   4.164007
                   31         32         33         34         35
    31  H    0.000000
    32  H    2.809361   0.000000
    33  H    2.499328   4.437012   0.000000
    34  H    3.078150   4.254040   1.777165   0.000000
    35  H    4.227861   4.929071   2.388764   2.833745   0.000000
    36  H    4.298766   3.562684   3.662163   2.886982   2.642343
    37  H    3.655720   2.748149   3.800243   2.621395   3.869977
    38  H    4.541166   2.669964   4.858987   4.571559   3.965928
                   36         37         38
    36  H    0.000000
    37  H    1.772340   0.000000
    38  H    2.200939   2.795088   0.000000
 Framework group  C1[X(C8H22N2O6)]
 Deg. of freedom   108
                         Standard orientation:                         
 ---------------------------------------------------------------------
 Center     Atomic      Atomic             Coordinates (Angstroms)
 Number     Number       Type             X           Y           Z
 ---------------------------------------------------------------------
      1          7           0       -1.540324    0.290902   -1.123227
      2          6           0       -2.253387   -0.552666   -0.156149
      3          6           0       -3.747159   -0.642534   -0.538530
      4          8           0       -4.293587    0.636641   -0.716724
      5          6           0       -1.605360   -1.945101   -0.136212
      6          8           0       -0.254991   -1.906903    0.221456
      7          6           0       -2.126142    0.084746    1.248792
      8          8           0       -2.472916    1.449447    1.272777
      9          1           0       -2.144022    1.083014   -1.340689
     10          1           0       -1.405945   -0.223964   -1.988663
     11          1           0       -4.294849   -1.207860    0.228561
     12          1           0       -3.863439   -1.162033   -1.495620
     13          1           0       -4.077607    1.157468    0.074892
     14          1           0       -1.729490   -2.410147   -1.127719
     15          1           0       -2.108932   -2.575986    0.600538
     16          1           0        0.205628   -1.246211   -0.350621
     17          1           0       -1.107217   -0.065521    1.615569
     18          1           0       -2.813845   -0.427200    1.928335
     19          1           0       -1.701352    1.960524    0.993403
     20          7           0        1.539999   -0.290161   -1.123278
     21          6           0        2.253677    0.552814   -0.156118
     22          6           0        3.747614    0.640855   -0.538323
     23          8           0        4.292095   -0.639082   -0.717190
     24          6           0        1.606725    1.945729   -0.136376
     25          8           0        0.256009    1.908444    0.220244
     26          6           0        2.125663   -0.084178    1.248958
     27          8           0        2.472213   -1.448913    1.273495
     28          1           0        2.143560   -1.082139   -1.341647
     29          1           0        1.405018    0.225253   -1.988298
     30          1           0        4.296051    1.204799    0.229213
     31          1           0        3.864806    1.160752   -1.495071
     32          1           0        4.075637   -1.159751    0.074427
     33          1           0        1.731995    2.410867   -1.127695
     34          1           0        2.110172    2.576108    0.600886
     35          1           0       -0.204523    1.247445   -0.351457
     36          1           0        1.106624    0.066411    1.615273
     37          1           0        2.813185    0.427914    1.928572
     38          1           0        1.700449   -1.959996    0.994643
 ---------------------------------------------------------------------
 Rotational constants (GHZ):           0.9373625           0.2774206           0.2538771
   268 basis functions,   488 primitive gaussians,   284 cartesian basis functions
    66 alpha electrons       66 beta electrons
       nuclear repulsion energy      1363.7526489027 Hartrees.
 NAtoms=   38 NActive=   38 NUniq=   38 SFac= 1.00D+00 NAtFMM=   60 NAOKFM=F Big=F
 Nuclear repulsion after empirical dispersion term =     1363.7167625353 Hartrees.
   1 Symmetry operations used in ECPInt.
 ECPInt:  NShTT=    9870 NPrTT=   39614 LenC2=    9407 LenP2D=   26899.
 LDataN:  DoStor=T MaxTD1= 4 Len=   56
 ExpMin= 1.22D-01 ExpMax= 2.27D+03 ExpMxC= 3.41D+02 IAcc=3 IRadAn=         5 AccDes= 0.00D+00
 Harris functional with IExCor= 4639 and IRadAn=       5 diagonalized for initial guess.
 HarFok:  IExCor= 4639 AccDes= 0.00D+00 IRadAn=         5 IDoV= 1 UseB2=F ITyADJ=14
 ICtDFT=  3500011 ScaDFX=  1.000000  1.000000  1.000000  1.000000
 FoFCou: FMM=F IPFlag=           0 FMFlag=      100000 FMFlg1=           0
         NFxFlg=           0 DoJE=T BraDBF=F KetDBF=T FulRan=T
         wScrn=  0.000000 ICntrl=       500 IOpCl=  0 I1Cent=   200000004 NGrid=           0
         NMat0=    1 NMatS0=      1 NMatT0=    0 NMatD0=    1 NMtDS0=    0 NMtDT0=    0
 Petite list used in FoFCou.
     Minimum is close to point  3 DX=  5.38D-03 DF= -8.51D-06 DXR=  8.88D-03 DFR=  7.83D-05 which will be used.
     Accept linear search using points  2 and  3.
     Accept linear search using points  1 and  2.
     Accept linear search using points  2 and  3.
     Accept linear search using points  1 and  2.
     Minimum is close to point  2 DX= -1.17D-04 DF= -2.27D-13 DXR=  1.17D-04 DFR=  1.19D-08 which will be used.
 SCF Done:  E(RwB97XD) =  -877.940640812     a.u. after    8 cycles
            Convg  =    0.3279D-09                    35 Fock formations.
              S**2 =  0.0000                  -V/T =  2.0080

 **********************************************************************

            Population analysis using the SCF Density.

 **********************************************************************

 Orbital symmetries:
       Occupied  (A) (A) (A) (A) (A) (A) (A) (A) (A) (A) (A) (A)
                 (A) (A) (A) (A) (A) (A) (A) (A) (A) (A) (A) (A)
                 (A) (A) (A) (A) (A) (A) (A) (A) (A) (A) (A) (A)
                 (A) (A) (A) (A) (A) (A) (A) (A) (A) (A) (A) (A)
                 (A) (A) (A) (A) (A) (A) (A) (A) (A) (A) (A) (A)
                 (A) (A) (A) (A) (A) (A)
       Virtual   (A) (A) (A) (A) (A) (A) (A) (A) (A) (A) (A) (A)
                 (A) (A) (A) (A) (A) (A) (A) (A) (A) (A) (A) (A)
                 (A) (A) (A) (A) (A) (A) (A) (A) (A) (A) (A) (A)
                 (A) (A) (A) (A) (A) (A) (A) (A) (A) (A) (A) (A)
                 (A) (A) (A) (A) (A) (A) (A) (A) (A) (A) (A) (A)
                 (A) (A) (A) (A) (A) (A) (A) (A) (A) (A) (A) (A)
                 (A) (A) (A) (A) (A) (A) (A) (A) (A) (A) (A) (A)
                 (A) (A) (A) (A) (A) (A) (A) (A) (A) (A) (A) (A)
                 (A) (A) (A) (A) (A) (A) (A) (A) (A) (A) (A) (A)
                 (A) (A) (A) (A) (A) (A) (A) (A) (A) (A) (A) (A)
                 (A) (A) (A) (A) (A) (A) (A) (A) (A) (A) (A) (A)
                 (A) (A) (A) (A) (A) (A) (A) (A) (A) (A) (A) (A)
                 (A) (A) (A) (A) (A) (A) (A) (A) (A) (A) (A) (A)
                 (A) (A) (A) (A) (A) (A) (A) (A) (A) (A) (A) (A)
                 (A) (A) (A) (A) (A) (A) (A) (A) (A) (A) (A) (A)
                 (A) (A) (A) (A) (A) (A) (A) (A) (A) (A) (A) (A)
                 (A) (A) (A) (A) (A) (A) (A) (A) (A) (A)
 The electronic state is 1-A.
 Alpha  occ. eigenvalues --  -19.26062 -19.26059 -19.24710 -19.24710 -19.24641
 Alpha  occ. eigenvalues --  -19.24639 -14.44940 -14.44939 -10.34848 -10.34847
 Alpha  occ. eigenvalues --  -10.34087 -10.34087 -10.34013 -10.34011 -10.33909
 Alpha  occ. eigenvalues --  -10.33908  -1.13426  -1.13082  -1.11512  -1.11395
 Alpha  occ. eigenvalues --   -1.10931  -1.10862  -1.00534  -1.00343  -0.86665
 Alpha  occ. eigenvalues --   -0.85900  -0.77793  -0.77605  -0.76506  -0.76334
 Alpha  occ. eigenvalues --   -0.68261  -0.68054  -0.64086  -0.63593  -0.62847
 Alpha  occ. eigenvalues --   -0.62438  -0.60758  -0.59936  -0.58252  -0.56691
 Alpha  occ. eigenvalues --   -0.55206  -0.54925  -0.54164  -0.53429  -0.52830
 Alpha  occ. eigenvalues --   -0.52704  -0.51898  -0.51396  -0.49572  -0.49464
 Alpha  occ. eigenvalues --   -0.48705  -0.48256  -0.45678  -0.44620  -0.43367
 Alpha  occ. eigenvalues --   -0.42810  -0.40984  -0.40478  -0.38190  -0.37679
 Alpha  occ. eigenvalues --   -0.37172  -0.37083  -0.35348  -0.35128  -0.34260
 Alpha  occ. eigenvalues --   -0.33316
 Alpha virt. eigenvalues --    0.10918   0.12890   0.14231   0.15012   0.15308
 Alpha virt. eigenvalues --    0.16240   0.17638   0.18082   0.18616   0.19555
 Alpha virt. eigenvalues --    0.19715   0.21120   0.21610   0.21923   0.22634
 Alpha virt. eigenvalues --    0.23014   0.23786   0.23906   0.23964   0.24495
 Alpha virt. eigenvalues --    0.27088   0.27729   0.28563   0.29023   0.29084
 Alpha virt. eigenvalues --    0.29580   0.31038   0.32464   0.32870   0.34824
 Alpha virt. eigenvalues --    0.35242   0.35975   0.36463   0.37590   0.39272
 Alpha virt. eigenvalues --    0.39883   0.50521   0.53064   0.54364   0.56023
 Alpha virt. eigenvalues --    0.56174   0.57180   0.57926   0.58734   0.60656
 Alpha virt. eigenvalues --    0.60778   0.60983   0.63076   0.63139   0.64275
 Alpha virt. eigenvalues --    0.65733   0.66936   0.67529   0.67895   0.69331
 Alpha virt. eigenvalues --    0.70351   0.70691   0.72029   0.72273   0.72611
 Alpha virt. eigenvalues --    0.73415   0.74489   0.74827   0.76110   0.77001
 Alpha virt. eigenvalues --    0.77190   0.77911   0.78678   0.79020   0.79875
 Alpha virt. eigenvalues --    0.80531   0.80831   0.81983   0.82644   0.83397
 Alpha virt. eigenvalues --    0.83646   0.84401   0.85531   0.85854   0.86890
 Alpha virt. eigenvalues --    0.88483   0.92764   0.94197   0.96527   0.97545
 Alpha virt. eigenvalues --    0.98178   1.01417   1.01824   1.03919   1.06494
 Alpha virt. eigenvalues --    1.06917   1.08387   1.12248   1.12698   1.14404
 Alpha virt. eigenvalues --    1.15104   1.16686   1.18794   1.19614   1.21696
 Alpha virt. eigenvalues --    1.22499   1.27290   1.28421   1.29101   1.30745
 Alpha virt. eigenvalues --    1.30921   1.32650   1.34635   1.37561   1.38371
 Alpha virt. eigenvalues --    1.39444   1.43627   1.46139   1.46665   1.47918
 Alpha virt. eigenvalues --    1.48301   1.54649   1.55431   1.59169   1.60098
 Alpha virt. eigenvalues --    1.61246   1.64212   1.69214   1.72432   1.77159
 Alpha virt. eigenvalues --    1.77465   1.81042   1.82727   1.83460   1.85746
 Alpha virt. eigenvalues --    1.86204   1.87912   1.91912   1.92182   1.93385
 Alpha virt. eigenvalues --    1.94792   1.95299   1.96774   2.02163   2.03647
 Alpha virt. eigenvalues --    2.05176   2.05308   2.10789   2.11307   2.15555
 Alpha virt. eigenvalues --    2.15680   2.17578   2.18058   2.21231   2.21513
 Alpha virt. eigenvalues --    2.22041   2.22984   2.29258   2.29941   2.33559
 Alpha virt. eigenvalues --    2.35056   2.38960   2.39603   2.41031   2.42660
 Alpha virt. eigenvalues --    2.55573   2.56981   2.60365   2.61937   2.68636
 Alpha virt. eigenvalues --    2.68886   2.71288   2.71714   2.71906   2.72320
 Alpha virt. eigenvalues --    2.74309   2.76550   2.77378   2.79414   2.79464
 Alpha virt. eigenvalues --    2.83970   2.90791   2.90914   2.93406   2.93419
 Alpha virt. eigenvalues --    2.94344   2.95455   3.01391   3.01950   3.04880
 Alpha virt. eigenvalues --    3.05000   3.07958   3.08106   3.10012   3.10644
 Alpha virt. eigenvalues --    3.11740   3.11976   3.14673   3.15411   3.17308
 Alpha virt. eigenvalues --    3.17536   3.45673   3.47626   3.48274   3.48365
 Alpha virt. eigenvalues --    3.51801   3.52573
          Condensed to atoms (all electrons):
 Mulliken charges:
               1
     1  N   -0.524567
     2  C   -0.265667
     3  C    0.110233
     4  O   -0.503505
     5  C    0.091855
     6  O   -0.549477
     7  C    0.035936
     8  O   -0.518824
     9  H    0.246340
    10  H    0.230835
    11  H    0.089796
    12  H    0.090670
    13  H    0.332335
    14  H    0.085129
    15  H    0.103146
    16  H    0.359209
    17  H    0.143157
    18  H    0.102895
    19  H    0.340518
    20  N   -0.524602
    21  C   -0.265804
    22  C    0.110289
    23  O   -0.503558
    24  C    0.091873
    25  O   -0.549478
    26  C    0.036058
    27  O   -0.518865
    28  H    0.246387
    29  H    0.230860
    30  H    0.089819
    31  H    0.090701
    32  H    0.332339
    33  H    0.085137
    34  H    0.103150
    35  H    0.359195
    36  H    0.143094
    37  H    0.102864
    38  H    0.340526
 Sum of Mulliken charges =   0.00000
 Mulliken charges with hydrogens summed into heavy atoms:
               1
     1  N   -0.047392
     2  C   -0.265667
     3  C    0.290699
     4  O   -0.171170
     5  C    0.280131
     6  O   -0.190268
     7  C    0.281988
     8  O   -0.178305
    20  N   -0.047354
    21  C   -0.265804
    22  C    0.290809
    23  O   -0.171219
    24  C    0.280161
    25  O   -0.190282
    26  C    0.282016
    27  O   -0.178340
 Electronic spatial extent (au):  <R**2>=           4531.0517
 Charge=              0.0000 electrons
 Dipole moment (field-independent basis, Debye):
    X=              0.0012    Y=              0.0002    Z=             -1.9314  Tot=              1.9314
   1 Symmetry operations used in ECPInt.
 ECPInt:  NShTT=    9870 NPrTT=   39614 LenC2=    9407 LenP2D=   26899.
 LDataN:  DoStor=T MaxTD1= 5 Len=  102
 Calling FoFJK, ICntrl=      2127 FMM=F ISym2X=0 I1Cent= 0 IOpClX= 0 NMat=1 NMatS=1 NMatT=0.

 GradGradGradGradGradGradGradGradGradGradGradGradGradGradGradGradGradGrad
 FormGI is forming the generalized inverse of G from B-inverse, IUseBI=4.
 Internal  Forces:  Max     0.007591756 RMS     0.002447060
 Step number   1 out of a maximum of  214
 All quantities printed in internal units (Hartrees-Bohrs-Radians)
 Mixed Optimization -- RFO/linear search
 Second derivative matrix not updated -- first step.
 ITU=  0
     Eigenvalues ---    0.00230   0.00230   0.00230   0.00230   0.00315
     Eigenvalues ---    0.00456   0.00610   0.00765   0.01027   0.01493
     Eigenvalues ---    0.01582   0.01582   0.01660   0.01661   0.02905
     Eigenvalues ---    0.03769   0.04506   0.04543   0.04588   0.04725
     Eigenvalues ---    0.04725   0.04755   0.04831   0.04848   0.04890
     Eigenvalues ---    0.04956   0.04957   0.05406   0.05593   0.05734
     Eigenvalues ---    0.05735   0.05736   0.05833   0.05862   0.05862
     Eigenvalues ---    0.06108   0.06287   0.07554   0.07851   0.08463
     Eigenvalues ---    0.09867   0.11171   0.11261   0.11577   0.11578
     Eigenvalues ---    0.11708   0.11708   0.11741   0.11757   0.12428
     Eigenvalues ---    0.13874   0.13874   0.14024   0.14024   0.14032
     Eigenvalues ---    0.14186   0.14266   0.14336   0.14733   0.15552
     Eigenvalues ---    0.15901   0.16000   0.16000   0.16000   0.16000
     Eigenvalues ---    0.18181   0.21717   0.22034   0.22034   0.22096
     Eigenvalues ---    0.22096   0.23569   0.27820   0.27821   0.28118
     Eigenvalues ---    0.28119   0.28196   0.28879   0.33444   0.33444
     Eigenvalues ---    0.33784   0.33787   0.34221   0.34222   0.34356
     Eigenvalues ---    0.34356   0.34434   0.34434   0.34481   0.34482
     Eigenvalues ---    0.34917   0.35219   0.44276   0.44278   0.44432
     Eigenvalues ---    0.44433   0.44650   0.44992   0.44993   0.45227
     Eigenvalues ---    0.45231   0.45871   0.48465   0.49128   0.52989
     Eigenvalues ---    0.52993   0.54049   0.54051
 Linear search not attempted -- first point.
 Iteration  1 RMS(Cart)=  0.17122031 RMS(Int)=  0.00593797
 Iteration  2 RMS(Cart)=  0.01474781 RMS(Int)=  0.00103955
 Iteration  3 RMS(Cart)=  0.00006848 RMS(Int)=  0.00103931
 Iteration  4 RMS(Cart)=  0.00000037 RMS(Int)=  0.00103931
 Variable       Old X    -DE/DX   Delta X   Delta X   Delta X     New X
                                 (Linear)    (Quad)   (Total)
    R1        2.77430   0.00079   0.00000   0.00163   0.00330   2.77760
    R2        1.92639   0.00406   0.00000   0.00897   0.00897   1.93536
    R3        1.91984   0.00466   0.00000   0.01016   0.01016   1.93000
    R4        3.43024  -0.00282   0.00000  -0.04003  -0.04090   3.38934
    R5        2.91878  -0.00203   0.00000  -0.00703  -0.00703   2.91176
    R6        2.90257  -0.00010   0.00000  -0.00036  -0.00051   2.90205
    R7        2.92532  -0.00166   0.00000  -0.00580  -0.00580   2.91952
    R8        2.65008   0.00268   0.00000   0.00582   0.00582   2.65591
    R9        2.07697   0.00685   0.00000   0.01980   0.01980   2.09677
   R10        2.06959   0.00640   0.00000   0.01827   0.01827   2.08786
   R11        1.83660   0.00253   0.00000   0.00470   0.00470   1.84130
   R12        2.64081   0.00428   0.00000   0.00900   0.00945   2.65025
   R13        2.08278   0.00649   0.00000   0.01894   0.01894   2.10173
   R14        2.06526   0.00695   0.00000   0.01969   0.01969   2.08495
   R15        1.86687   0.00261   0.00000   0.00548   0.00417   1.87104
   R16        2.66125   0.00149   0.00000   0.00331   0.00331   2.66456
   R17        2.06605   0.00589   0.00000   0.01672   0.01672   2.08277
   R18        2.06733   0.00628   0.00000   0.01786   0.01786   2.08519
   R19        1.82685   0.00662   0.00000   0.01207   0.01207   1.83892
   R20        3.42847  -0.00280   0.00000  -0.03952  -0.04039   3.38809
   R21        2.77432   0.00081   0.00000   0.00173   0.00340   2.77772
   R22        1.92641   0.00406   0.00000   0.00896   0.00896   1.93537
   R23        1.91985   0.00465   0.00000   0.01015   0.01015   1.93000
   R24        2.91880  -0.00202   0.00000  -0.00700  -0.00700   2.91181
   R25        2.90253  -0.00011   0.00000  -0.00036  -0.00050   2.90203
   R26        2.92534  -0.00166   0.00000  -0.00580  -0.00580   2.91955
   R27        2.65013   0.00267   0.00000   0.00580   0.00580   2.65593
   R28        2.07692   0.00686   0.00000   0.01983   0.01983   2.09675
   R29        2.06957   0.00641   0.00000   0.01828   0.01828   2.08785
   R30        1.83664   0.00253   0.00000   0.00471   0.00471   1.84135
   R31        2.64089   0.00427   0.00000   0.00895   0.00939   2.65028
   R32        2.08278   0.00649   0.00000   0.01895   0.01895   2.10173
   R33        2.06525   0.00695   0.00000   0.01970   0.01970   2.08494
   R34        1.86677   0.00260   0.00000   0.00543   0.00412   1.87089
   R35        2.66123   0.00150   0.00000   0.00334   0.00334   2.66456
   R36        2.06604   0.00589   0.00000   0.01672   0.01672   2.08275
   R37        2.06733   0.00628   0.00000   0.01787   0.01787   2.08520
   R38        1.82687   0.00662   0.00000   0.01207   0.01207   1.83895
    A1        1.87483   0.00065   0.00000  -0.00003  -0.00085   1.87397
    A2        1.91154   0.00308   0.00000   0.01928   0.01887   1.93041
    A3        1.96075  -0.00551   0.00000  -0.03014  -0.02751   1.93324
    A4        1.86545  -0.00161   0.00000  -0.00912  -0.00898   1.85647
    A5        1.68810   0.00312   0.00000   0.01667   0.01718   1.70528
    A6        2.13165   0.00053   0.00000   0.00346   0.00149   2.13314
    A7        1.91781  -0.00150   0.00000  -0.01374  -0.01475   1.90306
    A8        1.90132   0.00030   0.00000   0.01073   0.01035   1.91167
    A9        1.89792   0.00051   0.00000  -0.00257  -0.00128   1.89664
   A10        1.93745   0.00133   0.00000   0.00515   0.00624   1.94369
   A11        1.90513   0.00082   0.00000   0.00677   0.00662   1.91175
   A12        1.90373  -0.00148   0.00000  -0.00647  -0.00727   1.89647
   A13        1.93395   0.00011   0.00000   0.00304   0.00304   1.93698
   A14        1.91673  -0.00078   0.00000  -0.00591  -0.00596   1.91077
   A15        1.92478  -0.00017   0.00000  -0.00357  -0.00360   1.92117
   A16        1.94303   0.00108   0.00000   0.01221   0.01222   1.95524
   A17        1.85487   0.00031   0.00000   0.00438   0.00439   1.85926
   A18        1.88919  -0.00053   0.00000  -0.01023  -0.01030   1.87889
   A19        1.87416   0.00239   0.00000   0.01424   0.01424   1.88840
   A20        1.96733  -0.00098   0.00000   0.01782   0.01531   1.98264
   A21        1.90003  -0.00078   0.00000  -0.00540  -0.00668   1.89335
   A22        1.91524  -0.00024   0.00000  -0.01559  -0.01348   1.90176
   A23        1.92902   0.00231   0.00000   0.01971   0.02179   1.95080
   A24        1.86344   0.00068   0.00000   0.00036  -0.00017   1.86327
   A25        1.88703  -0.00098   0.00000  -0.01863  -0.01903   1.86800
   A26        1.89718   0.00759   0.00000   0.06706   0.06612   1.96330
   A27        1.97603  -0.00059   0.00000  -0.00151  -0.00151   1.97452
   A28        1.90126   0.00077   0.00000   0.00354   0.00354   1.90480
   A29        1.89588  -0.00035   0.00000  -0.00213  -0.00213   1.89375
   A30        1.93581  -0.00023   0.00000  -0.00221  -0.00220   1.93361
   A31        1.86305   0.00092   0.00000   0.00830   0.00830   1.87136
   A32        1.88931  -0.00055   0.00000  -0.00629  -0.00628   1.88303
   A33        1.88689   0.00085   0.00000   0.00503   0.00503   1.89192
   A34        2.79924  -0.00296   0.00000  -0.02846  -0.02548   2.77376
   A35        1.96011  -0.00550   0.00000  -0.02993  -0.02733   1.93278
   A36        1.68836   0.00313   0.00000   0.01672   0.01724   1.70559
   A37        2.13204   0.00051   0.00000   0.00331   0.00134   2.13338
   A38        1.87485   0.00064   0.00000  -0.00009  -0.00092   1.87393
   A39        1.91155   0.00308   0.00000   0.01923   0.01883   1.93038
   A40        1.86546  -0.00161   0.00000  -0.00911  -0.00897   1.85649
   A41        1.91761  -0.00148   0.00000  -0.01361  -0.01462   1.90299
   A42        1.90121   0.00029   0.00000   0.01075   0.01039   1.91159
   A43        1.89808   0.00051   0.00000  -0.00252  -0.00123   1.89685
   A44        1.93787   0.00131   0.00000   0.00485   0.00593   1.94380
   A45        1.90503   0.00082   0.00000   0.00676   0.00661   1.91164
   A46        1.90357  -0.00146   0.00000  -0.00637  -0.00717   1.89641
   A47        1.93378   0.00013   0.00000   0.00315   0.00315   1.93692
   A48        1.91674  -0.00078   0.00000  -0.00590  -0.00595   1.91080
   A49        1.92489  -0.00018   0.00000  -0.00365  -0.00368   1.92121
   A50        1.94297   0.00107   0.00000   0.01217   0.01218   1.95515
   A51        1.85490   0.00031   0.00000   0.00442   0.00443   1.85933
   A52        1.88926  -0.00053   0.00000  -0.01028  -0.01035   1.87891
   A53        1.87401   0.00239   0.00000   0.01420   0.01420   1.88821
   A54        1.96729  -0.00098   0.00000   0.01784   0.01533   1.98262
   A55        1.90000  -0.00077   0.00000  -0.00532  -0.00659   1.89341
   A56        1.91530  -0.00025   0.00000  -0.01563  -0.01353   1.90177
   A57        1.92904   0.00230   0.00000   0.01967   0.02174   1.95079
   A58        1.86344   0.00068   0.00000   0.00033  -0.00021   1.86323
   A59        1.88702  -0.00098   0.00000  -0.01862  -0.01901   1.86800
   A60        1.89733   0.00758   0.00000   0.06688   0.06593   1.96326
   A61        1.97603  -0.00059   0.00000  -0.00151  -0.00151   1.97452
   A62        1.90130   0.00077   0.00000   0.00352   0.00352   1.90482
   A63        1.89576  -0.00034   0.00000  -0.00208  -0.00209   1.89368
   A64        1.93586  -0.00023   0.00000  -0.00226  -0.00225   1.93361
   A65        1.86309   0.00092   0.00000   0.00831   0.00831   1.87140
   A66        1.88930  -0.00054   0.00000  -0.00628  -0.00627   1.88303
   A67        1.88688   0.00085   0.00000   0.00504   0.00504   1.89192
   A68        2.79855  -0.00298   0.00000  -0.02850  -0.02551   2.77303
    D1        0.70709  -0.00056   0.00000  -0.02875  -0.02858   0.67851
    D2        2.83309   0.00033   0.00000  -0.02417  -0.02363   2.80946
    D3       -1.37717  -0.00098   0.00000  -0.02728  -0.02717  -1.40434
    D4       -1.31283  -0.00061   0.00000  -0.02797  -0.02732  -1.34016
    D5        0.81317   0.00028   0.00000  -0.02339  -0.02238   0.79078
    D6        2.88610  -0.00103   0.00000  -0.02650  -0.02592   2.86017
    D7        2.54254   0.00100   0.00000  -0.02249  -0.02101   2.52153
    D8       -1.61465   0.00189   0.00000  -0.01791  -0.01607  -1.63072
    D9        0.45828   0.00058   0.00000  -0.02102  -0.01961   0.43867
   D10       -1.14566  -0.00173   0.00000  -0.04502  -0.04361  -1.18927
   D11        0.80882  -0.00109   0.00000  -0.04570  -0.04450   0.76432
   D12        2.81233  -0.00056   0.00000  -0.04324  -0.04223   2.77010
   D13       -0.91020   0.00040   0.00000   0.02812   0.02766  -0.88254
   D14       -3.06400  -0.00050   0.00000   0.01465   0.01421  -3.04978
   D15        1.13866   0.00075   0.00000   0.03317   0.03270   1.17136
   D16       -3.01451   0.00016   0.00000   0.02043   0.02048  -2.99403
   D17        1.11488  -0.00074   0.00000   0.00696   0.00703   1.12191
   D18       -0.96564   0.00051   0.00000   0.02548   0.02551  -0.94013
   D19        1.16964   0.00063   0.00000   0.02086   0.02126   1.19090
   D20       -0.98415  -0.00027   0.00000   0.00738   0.00781  -0.97634
   D21       -3.06467   0.00097   0.00000   0.02591   0.02629  -3.03838
   D22        1.03983   0.00157   0.00000   0.06932   0.07142   1.11125
   D23       -1.10704  -0.00015   0.00000   0.03589   0.03761  -1.06944
   D24        3.11411   0.00164   0.00000   0.07065   0.07176  -3.09731
   D25       -3.12932   0.00074   0.00000   0.06252   0.06383  -3.06549
   D26        1.00699  -0.00098   0.00000   0.02909   0.03001   1.03700
   D27       -1.05504   0.00081   0.00000   0.06385   0.06417  -0.99087
   D28       -1.02946   0.00164   0.00000   0.06995   0.07121  -0.95824
   D29        3.10685  -0.00009   0.00000   0.03652   0.03740  -3.13894
   D30        1.04482   0.00171   0.00000   0.07128   0.07155   1.11637
   D31        0.88270  -0.00075   0.00000  -0.03317  -0.03330   0.84940
   D32       -1.27983  -0.00061   0.00000  -0.03189  -0.03202  -1.31185
   D33        2.94894  -0.00019   0.00000  -0.02515  -0.02528   2.92366
   D34       -1.20945   0.00028   0.00000  -0.01898  -0.01855  -1.22800
   D35        2.91120   0.00042   0.00000  -0.01770  -0.01728   2.89393
   D36        0.85679   0.00084   0.00000  -0.01096  -0.01053   0.84625
   D37        2.95411  -0.00094   0.00000  -0.02547  -0.02577   2.92835
   D38        0.79158  -0.00080   0.00000  -0.02419  -0.02449   0.76709
   D39       -1.26284  -0.00039   0.00000  -0.01745  -0.01775  -1.28058
   D40       -0.90096   0.00077   0.00000   0.02738   0.02736  -0.87360
   D41        1.23761   0.00060   0.00000   0.03049   0.03051   1.26813
   D42       -2.99218   0.00073   0.00000   0.02735   0.02735  -2.96484
   D43       -0.90320   0.00066   0.00000  -0.01069  -0.00701  -0.91020
   D44        1.22741   0.00064   0.00000   0.00925   0.01191   1.23933
   D45       -3.00742   0.00109   0.00000  -0.00227   0.00068  -3.00675
   D46       -2.98506  -0.00581   0.00000  -0.13770  -0.13617  -3.12123
   D47       -1.45428  -0.00148   0.00000  -0.05378  -0.05378  -1.50806
   D48        0.68923  -0.00108   0.00000  -0.05193  -0.05192   0.63731
   D49        2.74373  -0.00131   0.00000  -0.05576  -0.05577   2.68796
   D50       -1.14479  -0.00174   0.00000  -0.04522  -0.04379  -1.18858
   D51        0.80966  -0.00109   0.00000  -0.04590  -0.04469   0.76497
   D52        2.81354  -0.00056   0.00000  -0.04343  -0.04241   2.77112
   D53        2.54093   0.00103   0.00000  -0.02185  -0.02038   2.52056
   D54       -1.61593   0.00190   0.00000  -0.01755  -0.01571  -1.63164
   D55        0.45683   0.00061   0.00000  -0.02048  -0.01907   0.43776
   D56        0.70546  -0.00054   0.00000  -0.02823  -0.02806   0.67740
   D57        2.83178   0.00033   0.00000  -0.02392  -0.02338   2.80839
   D58       -1.37865  -0.00097   0.00000  -0.02686  -0.02675  -1.40540
   D59       -1.31450  -0.00060   0.00000  -0.02740  -0.02676  -1.34126
   D60        0.81182   0.00027   0.00000  -0.02310  -0.02209   0.78973
   D61        2.88458  -0.00102   0.00000  -0.02604  -0.02546   2.85912
   D62       -0.90938   0.00039   0.00000   0.02736   0.02691  -0.88247
   D63       -3.06300  -0.00051   0.00000   0.01386   0.01343  -3.04957
   D64        1.13949   0.00074   0.00000   0.03248   0.03201   1.17151
   D65       -3.01368   0.00016   0.00000   0.01975   0.01979  -2.99389
   D66        1.11588  -0.00075   0.00000   0.00625   0.00631   1.12219
   D67       -0.96481   0.00051   0.00000   0.02487   0.02490  -0.93991
   D68        1.17048   0.00062   0.00000   0.02024   0.02064   1.19112
   D69       -0.98315  -0.00028   0.00000   0.00674   0.00716  -0.97598
   D70       -3.06384   0.00097   0.00000   0.02536   0.02575  -3.03809
   D71        1.03912   0.00157   0.00000   0.06953   0.07163   1.11076
   D72       -1.10773  -0.00015   0.00000   0.03608   0.03779  -1.06994
   D73        3.11341   0.00164   0.00000   0.07081   0.07191  -3.09786
   D74       -3.13008   0.00075   0.00000   0.06272   0.06404  -3.06605
   D75        1.00624  -0.00097   0.00000   0.02927   0.03019   1.03644
   D76       -1.05579   0.00082   0.00000   0.06400   0.06431  -0.99148
   D77       -1.03019   0.00164   0.00000   0.07002   0.07128  -0.95891
   D78        3.10613  -0.00009   0.00000   0.03656   0.03744  -3.13961
   D79        1.04409   0.00170   0.00000   0.07129   0.07156   1.11565
   D80        0.88356  -0.00074   0.00000  -0.03324  -0.03337   0.85019
   D81       -1.27906  -0.00060   0.00000  -0.03189  -0.03202  -1.31108
   D82        2.94976  -0.00018   0.00000  -0.02518  -0.02531   2.92445
   D83       -1.20838   0.00027   0.00000  -0.01924  -0.01881  -1.22719
   D84        2.91219   0.00041   0.00000  -0.01789  -0.01747   2.89472
   D85        0.85782   0.00082   0.00000  -0.01118  -0.01075   0.84707
   D86        2.95483  -0.00094   0.00000  -0.02541  -0.02571   2.92913
   D87        0.79221  -0.00080   0.00000  -0.02407  -0.02436   0.76785
   D88       -1.26215  -0.00038   0.00000  -0.01736  -0.01765  -1.27980
   D89       -0.90155   0.00077   0.00000   0.02720   0.02718  -0.87437
   D90        1.23689   0.00060   0.00000   0.03037   0.03039   1.26728
   D91       -2.99283   0.00073   0.00000   0.02717   0.02717  -2.96566
   D92       -0.90194   0.00065   0.00000  -0.01098  -0.00733  -0.90926
   D93        1.22863   0.00064   0.00000   0.00904   0.01169   1.24032
   D94       -3.00621   0.00109   0.00000  -0.00251   0.00043  -3.00578
   D95       -2.98639  -0.00579   0.00000  -0.13714  -0.13563  -3.12202
   D96       -1.45514  -0.00147   0.00000  -0.05363  -0.05363  -1.50877
   D97        0.68845  -0.00107   0.00000  -0.05183  -0.05182   0.63663
   D98        2.74299  -0.00131   0.00000  -0.05567  -0.05568   2.68732
         Item               Value     Threshold  Converged?
 Maximum Force            0.007592     0.000015     NO 
 RMS     Force            0.002447     0.000010     NO 
 Maximum Displacement     0.555146     0.000060     NO 
 RMS     Displacement     0.177053     0.000040     NO 
 GradGradGradGradGradGradGradGradGradGradGradGradGradGradGradGradGradGrad

                    Distance matrix (angstroms):
                    1          2          3          4          5
     1  N    0.000000
     2  C    1.469842   0.000000
     3  C    2.451953   1.540836   0.000000
     4  O    2.775673   2.429043   1.405447   0.000000
     5  C    2.455206   1.535701   2.540995   3.776047   0.000000
     6  O    2.948156   2.459581   3.802074   4.883401   1.402453
     7  C    2.449718   1.544942   2.520522   2.997001   2.502681
     8  O    2.799491   2.467099   3.059049   2.851886   3.767659
     9  H    1.024148   2.026862   2.459763   2.231576   3.311264
    10  H    1.021313   2.063992   2.799348   3.261904   2.559397
    11  H    3.410694   2.178420   1.109562   2.091919   2.818434
    12  H    2.764709   2.182557   1.104847   2.019761   2.742275
    13  H    2.890171   2.516074   1.944223   0.974376   3.986757
    14  H    2.699947   2.162907   2.762604   4.008688   1.112186
    15  H    3.403948   2.162597   2.745309   4.083927   1.103307
    16  H    2.601368   2.641565   4.095182   4.988569   2.002363
    17  H    2.815981   2.172098   3.462415   4.039267   2.601587
    18  H    3.387563   2.164832   2.645622   3.232832   2.834762
    19  H    2.726457   2.847465   3.697506   3.453592   4.072279
    20  N    3.390588   4.034236   5.493648   6.107105   3.741949
    21  C    4.034534   4.594918   6.106189   6.557124   4.554263
    22  C    5.494017   6.106100   7.619670   8.077373   5.925643
    23  O    6.106981   6.556422   8.076570   8.736332   6.041555
    24  C    3.742748   4.554941   5.926627   6.043190   5.005596
    25  O    2.740420   3.483868   4.733610   4.724340   4.274540
    26  C    4.335720   4.399411   5.915638   6.494185   4.241970
    27  O    4.950709   4.775938   6.262436   7.091591   4.153685
    28  H    4.230400   4.722699   6.166153   6.917202   4.122401
    29  H    3.403498   4.360524   5.701497   6.175737   4.240124
    30  H    6.165475   6.703063   8.214725   8.593094   6.630141
    31  H    5.719332   6.553582   8.010849   8.371717   6.461011
    32  H    6.038381   6.269052   7.793548   8.543607   5.647456
    33  H    4.028225   5.103281   6.387712   6.414769   5.572550
    34  H    4.667218   5.354571   6.697624   6.724824   5.862182
    35  H    1.793561   2.691973   3.964030   4.083838   3.472461
    36  H    3.664501   3.550296   5.012076   5.540781   3.627693
    37  H    5.256237   5.314110   6.790381   7.264752   5.262652
    38  H    4.438071   4.109758   5.546365   6.497937   3.293116
                    6          7          8          9         10
     6  O    0.000000
     7  C    2.889012   0.000000
     8  O    4.131812   1.410027   0.000000
     9  H    3.934270   2.788765   2.662652   0.000000
    10  H    3.092048   3.338354   3.809109   1.637520   0.000000
    11  H    4.091718   2.720414   3.401873   3.494893   3.798132
    12  H    4.083475   3.484255   4.075954   2.819823   2.699789
    13  H    4.917340   2.548698   2.058529   2.325322   3.621178
    14  H    2.088293   3.466944   4.601449   3.513357   2.370964
    15  H    2.019015   2.755992   4.113464   4.141059   3.585129
    16  H    0.990110   3.111903   4.121597   3.606620   2.693401
    17  H    2.409033   1.102153   2.075091   3.379946   3.636735
    18  H    3.376801   1.103437   2.031502   3.670752   4.186193
    19  H    4.185516   1.949694   0.973115   2.607653   3.735502
    20  N    2.740008   4.335665   4.950229   4.230298   3.404090
    21  C    3.483037   4.399591   4.775814   4.722751   4.361308
    22  C    4.732466   5.915801   6.262475   6.166424   5.702329
    23  O    4.722747   6.493883   7.091235   6.917046   6.176157
    24  C    4.274220   4.242677   4.154033   4.122901   4.241126
    25  O    3.891317   3.088501   2.810635   2.963507   3.476554
    26  C    3.087437   3.829023   4.392799   5.069793   4.846176
    27  O    2.810065   4.393049   5.279607   5.829754   5.292423
    28  H    2.963622   5.070164   5.829645   5.131109   4.115878
    29  H    3.476210   4.845529   5.291191   4.115243   3.246094
    30  H    5.437552   6.273225   6.487978   6.762735   6.508506
    31  H    5.372505   6.519393   6.753829   6.308904   5.816670
    32  H    4.268228   6.104928   6.819901   6.900130   6.177359
    33  H    4.915370   5.041717   4.881903   4.311650   4.335928
    34  H    5.089092   4.770273   4.509389   4.952693   5.263622
    35  H    3.250394   2.696673   2.694984   2.181355   2.492639
    36  H    2.738082   2.777338   3.340106   4.328429   4.337379
    37  H    4.141896   4.520281   4.884543   5.890083   5.841557
    38  H    1.940579   3.919445   4.992560   5.375599   4.711772
                   11         12         13         14         15
    11  H    0.000000
    12  H    1.787541   0.000000
    13  H    2.422089   2.829446   0.000000
    14  H    3.174915   2.500094   4.450049   0.000000
    15  H    2.566879   3.015764   4.268597   1.781276   0.000000
    16  H    4.602060   4.346084   4.999444   2.470029   2.876686
    17  H    3.658342   4.305820   3.601313   3.650943   2.914748
    18  H    2.373486   3.656765   2.794029   3.818223   2.640678
    19  H    4.206830   4.606725   2.730512   4.868819   4.601750
    20  N    6.164952   5.718666   6.038330   4.026677   4.666687
    21  C    6.703002   6.553383   6.269599   5.101996   5.354225
    22  C    8.214485   8.010499   7.794249   6.386036   6.696884
    23  O    8.591958   8.370526   8.543611   6.412375   6.723346
    24  C    6.631081   6.461698   5.648827   5.571997   5.862539
    25  O    5.438865   5.373267   4.269621   4.915113   5.089902
    26  C    6.272921   6.519038   6.105176   5.040598   4.769976
    27  O    6.487650   6.753665   6.820230   4.881194   4.509298
    28  H    6.762339   6.308238   6.900221   4.310209   4.952489
    29  H    6.507574   5.815587   6.176634   4.334209   5.262832
    30  H    8.752199   8.716764   8.197005   7.210636   7.324064
    31  H    8.716874   8.316496   8.141012   6.788206   7.335414
    32  H    8.195930   8.140021   8.327595   6.115047   6.202005
    33  H    7.212205   6.789616   6.117025   5.958946   6.530300
    34  H    7.324744   7.335909   6.203245   6.529503   6.623682
    35  H    4.751897   4.496491   3.799555   4.007448   4.378501
    36  H    5.323661   5.722945   5.094638   4.551521   4.100557
    37  H    7.096989   7.475146   6.766573   6.111306   5.708614
    38  H    5.734449   5.971225   6.322534   3.999257   3.607416
                   16         17         18         19         20
    16  H    0.000000
    17  H    2.569322   0.000000
    18  H    3.854878   1.783108   0.000000
    19  H    3.957131   2.197742   2.808979   0.000000
    20  N    1.792898   3.664758   5.256435   4.437279   0.000000
    21  C    2.691032   3.550682   5.314451   4.109517   1.469906
    22  C    3.962807   5.012374   6.790666   5.546409   2.451965
    23  O    4.082164   5.540645   7.264627   6.497608   2.775549
    24  C    3.472151   3.628568   5.263382   3.293331   2.455180
    25  O    3.250396   2.739428   4.142966   1.940867   2.947823
    26  C    2.695668   2.777448   4.520513   3.919222   2.449966
    27  O    2.694484   3.340337   4.885086   4.992518   2.800166
    28  H    2.181035   4.329138   5.890834   5.375135   1.024155
    29  H    2.492166   4.337164   5.841151   4.710142   1.021312
    30  H    4.750612   5.324008   7.097354   5.734938   3.410719
    31  H    4.495643   5.723438   7.475594   5.971309   2.764797
    32  H    3.798168   5.094492   6.766518   6.322251   2.890529
    33  H    4.007707   4.552719   6.112412   3.999698   2.700186
    34  H    4.377807   4.100934   5.708872   3.607623   3.403964
    35  H    2.599070   2.508793   3.798424   2.051113   2.600599
    36  H    2.507682   1.723898   3.467649   2.968494   2.815873
    37  H    3.797414   3.467522   5.134092   4.351811   3.387804
    38  H    2.051198   2.968621   4.352235   4.843801   2.727531
                   21         22         23         24         25
    21  C    0.000000
    22  C    1.540861   0.000000
    23  O    2.429025   1.405459   0.000000
    24  C    1.535686   2.541102   3.776086   0.000000
    25  O    2.459569   3.802183   4.883369   1.402470   0.000000
    26  C    1.544959   2.520457   2.996989   2.502627   2.889280
    27  O    2.467114   3.058488   2.851253   3.767699   4.132325
    28  H    2.026892   2.459310   2.231078   3.311086   3.934089
    29  H    2.064033   2.799868   3.262530   2.558932   3.090778
    30  H    2.178452   1.109551   2.091859   2.818717   4.092149
    31  H    2.182601   1.104843   2.019822   2.742352   4.083458
    32  H    2.516199   1.944126   0.974400   3.986838   4.917499
    33  H    2.162940   2.762516   4.008621   1.112190   2.088299
    34  H    2.162592   2.745728   4.084269   1.103305   2.018996
    35  H    2.641130   4.094823   4.987941   2.002293   0.990032
    36  H    2.172123   3.462465   4.039104   2.601845   2.409637
    37  H    2.164791   2.645800   3.233460   2.834237   3.376634
    38  H    2.847808   3.697257   3.452982   4.072794   4.186409
                   26         27         28         29         30
    26  C    0.000000
    27  O    1.410027   0.000000
    28  H    2.789536   2.664052   0.000000
    29  H    3.338419   3.809801   1.637540   0.000000
    30  H    2.720172   3.400828   3.494534   3.798576   0.000000
    31  H    3.484214   4.075593   2.819135   2.700511   1.787544
    32  H    2.548729   2.057897   2.325900   3.622114   2.421581
    33  H    3.466940   4.601590   3.513071   2.370919   3.174896
    34  H    2.755573   4.113006   4.140989   3.584928   2.567527
    35  H    3.111710   4.121788   3.606016   2.691737   4.601983
    36  H    1.102146   2.075088   3.380367   3.636273   3.658474
    37  H    1.103440   2.031537   3.671614   4.186224   2.373422
    38  H    1.949701   0.973129   2.609446   3.736605   4.206126
                   31         32         33         34         35
    31  H    0.000000
    32  H    2.829477   0.000000
    33  H    2.499962   4.450105   0.000000
    34  H    3.016243   4.268679   1.781279   0.000000
    35  H    4.345762   4.999074   2.470322   2.876542   0.000000
    36  H    4.305910   3.601163   3.651280   2.914682   2.569313
    37  H    3.656760   2.794635   3.817645   2.639681   3.854353
    38  H    4.606797   2.729874   4.869632   4.601680   3.957790
                   36         37         38
    36  H    0.000000
    37  H    1.783110   0.000000
    38  H    2.197566   2.808918   0.000000
 Framework group  C1[X(C8H22N2O6)]
 Deg. of freedom   108
                         Standard orientation:                         
 ---------------------------------------------------------------------
 Center     Atomic      Atomic             Coordinates (Angstroms)
 Number     Number       Type             X           Y           Z
 ---------------------------------------------------------------------
      1          7           0       -1.662111    0.334745   -1.202399
      2          6           0       -2.232529   -0.542299   -0.169997
      3          6           0       -3.759700   -0.616146   -0.360970
      4          8           0       -4.316723    0.670070   -0.464187
      5          6           0       -1.588885   -1.933357   -0.265176
      6          8           0       -0.211336   -1.933743   -0.002050
      7          6           0       -1.913835    0.055865    1.218340
      8          8           0       -2.219652    1.429048    1.313311
      9          1           0       -2.309224    1.118287   -1.329627
     10          1           0       -1.616546   -0.149619   -2.100395
     11          1           0       -4.208729   -1.198652    0.469804
     12          1           0       -3.999077   -1.138960   -1.304396
     13          1           0       -3.985646    1.205617    0.279442
     14          1           0       -1.817744   -2.359951   -1.266475
     15          1           0       -2.055821   -2.596395    0.482913
     16          1           0        0.278751   -1.269097   -0.548290
     17          1           0       -0.852886   -0.125889    1.455179
     18          1           0       -2.524301   -0.467781    1.973788
     19          1           0       -1.453743    1.937122    0.993629
     20          7           0        1.661793   -0.334399   -1.202521
     21          6           0        2.232549    0.542301   -0.169923
     22          6           0        3.759803    0.615299   -0.360762
     23          8           0        4.316024   -0.671267   -0.464112
     24          6           0        1.589539    1.933634   -0.265122
     25          8           0        0.211823    1.934498   -0.002788
     26          6           0        1.913565   -0.055610    1.218475
     27          8           0        2.219664   -1.428701    1.313868
     28          1           0        2.309072   -1.117697   -1.330458
     29          1           0        1.615650    0.150430   -2.100235
     30          1           0        4.209134    1.197295    0.470193
     31          1           0        3.999597    1.138173   -1.304043
     32          1           0        3.984997   -1.206370    0.279891
     33          1           0        1.819133    2.360448   -1.266163
     34          1           0        2.056264    2.596284    0.483439
     35          1           0       -0.278024    1.269636   -0.548840
     36          1           0        0.852516    0.125965    1.454974
     37          1           0        2.523713    0.468408    1.973925
     38          1           0        1.453709   -1.937040    0.994674
 ---------------------------------------------------------------------
 Rotational constants (GHZ):           0.9466708           0.2857477           0.2598039
   268 basis functions,   488 primitive gaussians,   284 cartesian basis functions
    66 alpha electrons       66 beta electrons
       nuclear repulsion energy      1370.8742984114 Hartrees.
 NAtoms=   38 NActive=   38 NUniq=   38 SFac= 1.00D+00 NAtFMM=   60 NAOKFM=F Big=F
 Nuclear repulsion after empirical dispersion term =     1370.8381064936 Hartrees.
   1 Symmetry operations used in ECPInt.
 ECPInt:  NShTT=    9870 NPrTT=   39614 LenC2=    9431 LenP2D=   27039.
 LDataN:  DoStor=T MaxTD1= 4 Len=   56
 Initial guess from the checkpoint file:  "/scratch/user/peterchao1/peterchao1/6113318_1660079103000000485671477/Gau-229089.chk"
 B after Tr=     0.000000    0.000000    0.000000
         Rot=    0.999993   -0.000015    0.000004    0.003778 Ang=  -0.43 deg.
 ExpMin= 1.22D-01 ExpMax= 2.27D+03 ExpMxC= 3.41D+02 IAcc=3 IRadAn=         5 AccDes= 0.00D+00
 Harris functional with IExCor= 4639 and IRadAn=       5 diagonalized for initial guess.
 HarFok:  IExCor= 4639 AccDes= 0.00D+00 IRadAn=         5 IDoV= 1 UseB2=F ITyADJ=14
 ICtDFT=  3500011 ScaDFX=  1.000000  1.000000  1.000000  1.000000
 FoFCou: FMM=F IPFlag=           0 FMFlag=      100000 FMFlg1=           0
         NFxFlg=           0 DoJE=T BraDBF=F KetDBF=T FulRan=T
         wScrn=  0.000000 ICntrl=       500 IOpCl=  0 I1Cent=   200000004 NGrid=           0
         NMat0=    1 NMatS0=      1 NMatT0=    0 NMatD0=    1 NMtDS0=    0 NMtDT0=    0
 Petite list used in FoFCou.
[...]
 2614599,0.00005596,0.00013176,0.00022435,0.00000704,0.00002430,-0.0000
 9035,0.00042857,-0.00082397,-0.00046085,-0.00037448,0.00011036,0.00045
 254,-0.00040015,-0.00031757,0.00021772,-0.00004260,0.00011155,-0.00000
 427,0.00008190,-0.00000921,-0.00000122,0.00384668,-0.00313397,-0.00235
 396,0.10509018,0.00026160,-0.00014964,-0.00005275,-0.00004645,0.000043
 06,-0.00009124,-0.00002312,-0.00000128,0.00003039,0.00004939,0.0000103
 1,0.00001369,-0.00012238,-0.00001966,0.00004587,0.00022941,-0.00020811
 ,0.00031284,0.00003086,0.00004676,-0.00005525,0.00004159,-0.00002680,0
 .00012824,-0.00001127,-0.00000965,0.00001968,-0.00002806,-0.00002321,0
 .00002878,0.00001897,-0.00000485,0.00000734,-0.00000911,-0.00000002,0.
 00000129,-0.00002068,-0.00000526,-0.00001491,0.00000250,0.00000614,-0.
 00000433,0.00003709,-0.00001326,0.00000815,-0.00047999,0.00037607,-0.0
 0036049,-0.00000039,-0.00003637,-0.00001970,0.00000769,-0.00000966,0.0
 0001117,-0.00011148,0.00003715,-0.00018961,-0.00381898,-0.00598940,0.0
 0035353,0.01227058,-0.01463313,-0.02236698,0.00102550,-0.00011286,-0.0
 0067177,-0.00029282,0.00055997,0.00068302,0.05576142,-0.14302851,-0.10
 916645,0.00304570,0.00180373,0.00044250,0.00084346,0.00022381,-0.00116
 598,-0.00032647,0.00081144,0.00032743,0.00106825,-0.00101033,-0.001200
 25,-0.00013150,-0.00006391,0.00044848,-0.00082984,0.00028546,0.0002760
 7,-0.00015873,-0.00002024,0.00009620,0.00016015,-0.00008525,-0.0001896
 6,-0.00552933,0.00980570,0.01079538,-0.06236722,0.15047519,0.00000543,
 0.00011516,0.00011861,-0.00003884,0.00003192,-0.00003141,-0.00003547,-
 0.00000003,0.00000318,0.00006608,0.00000963,0.00000213,-0.00008643,0.0
 0000700,0.00002449,0.00018449,-0.00016160,0.00010538,0.00002170,0.0000
 5113,0.00001393,0.00020528,-0.00006219,0.00006640,-0.00003851,-0.00000
 628,-0.00000030,-0.00008979,0.00005180,0.00002263,0.00000902,-0.000003
 92,0.00000579,0.00000118,-0.00000065,-0.00000546,-0.00005047,-0.000008
 48,0.00000273,0.00000878,-0.00000144,-0.00001311,0.00001996,-0.0000081
 5,0.00001015,-0.00021764,0.00018438,-0.00013391,-0.00000267,0.00001528
 ,-0.00002944,0.00001681,-0.00001461,0.00000759,-0.00033605,-0.00001974
 ,-0.00010077,-0.00022778,-0.00025545,0.00050928,-0.00074257,0.00220067
 ,0.00117938,0.00035418,-0.00070802,-0.00032034,-0.00040894,0.00040319,
 0.00022126,0.07204896,-0.11314896,-0.19384793,-0.00264357,0.00570695,0
 .01060096,-0.00010211,0.00090765,0.00013844,-0.00026627,-0.00029697,0.
 00015552,0.00033723,-0.00001100,0.00029392,-0.00004363,0.00044142,0.00
 066212,-0.00040124,0.00002662,0.00037419,0.00006608,-0.00008706,-0.000
 00116,0.00015843,-0.00001786,-0.00000715,0.00921187,-0.01650254,-0.017
 99233,-0.07516211,0.12037129,0.19698131,-0.00260471,-0.01184551,-0.005
 95899,-0.00272526,0.00465119,-0.00665678,-0.00026290,-0.00124146,0.001
 65312,0.00136700,0.00011187,0.00075253,0.00349231,0.00066318,0.0002658
 7,-0.00471025,0.00108220,-0.00058655,0.00117049,-0.00073874,-0.0022432
 3,-0.00186216,0.00167519,0.00267314,-0.00589923,0.00170200,0.00221280,
 0.00609043,-0.00242787,0.00013622,0.00119222,-0.00019586,0.00033864,-0
 .00031494,0.00007014,0.00000194,-0.00052678,-0.00034910,-0.00077844,-0
 .00034560,0.00014525,0.00022440,-0.00050076,-0.00047996,0.00021768,0.0
 0407173,-0.00236337,0.00103332,-0.00024905,-0.00018222,0.00018566,0.00
 000909,0.00028321,0.00082721,0.00425083,-0.00349433,-0.00399110,-0.000
 52676,0.00278717,-0.00021879,0.00067454,-0.00062451,0.00067674,-0.0012
 7029,0.00085332,-0.00016672,0.00165275,0.00115318,-0.00012118,-0.03043
 368,0.02328042,0.01910961,-0.09493770,0.07056818,0.05485526,-0.0001187
 4,-0.00170537,0.00121686,-0.00029708,0.00220244,-0.00046702,0.00069881
 ,-0.00060601,0.00033976,-0.00071162,-0.00085541,-0.00131550,0.00014786
 ,-0.00008187,-0.00002664,-0.00001847,-0.00002032,0.00003332,-0.0002046
 2,-0.00038398,0.00031102,0.00194222,0.00027753,0.00072468,-0.00238276,
 -0.00037798,-0.00189847,0.12276298,-0.00660031,-0.00385339,0.00352438,
 0.00323042,-0.00495814,0.00433803,0.00045828,0.00121979,-0.00115478,-0
 .00126226,-0.00069753,-0.00079164,-0.00021143,-0.00097089,-0.00054228,
 0.00160172,0.00100100,-0.00007492,0.00022435,0.00386083,0.00097535,0.0
 0162630,-0.00337873,0.00007879,-0.00345643,0.00432965,0.00162743,-0.00
 109023,-0.00029351,-0.00062445,-0.00093427,0.00006111,-0.00018587,0.00
 020741,-0.00012063,-0.00000440,-0.00003840,0.00064974,0.00066064,0.000
 01423,-0.00014001,0.00002369,0.00008935,0.00037607,-0.00018440,-0.0023
 6375,-0.00213343,-0.00034127,0.00009119,-0.00038566,0.00074118,-0.0002
 3386,-0.00064250,-0.00061284,-0.00396657,0.00175559,-0.00319698,0.0024
 7671,-0.00003879,-0.00058554,-0.00349250,0.00361671,0.00222910,0.00069
 328,-0.00037899,-0.00011006,-0.00054551,-0.00137131,-0.00023582,0.0073
 7609,0.00433474,0.00720240,0.09623211,-0.17935165,-0.14779374,-0.00044
 144,0.00049146,-0.00079493,0.00057902,-0.00157842,0.00010317,0.0004532
 8,-0.00049709,0.00022534,-0.00149541,0.00081891,-0.00042764,0.00038310
 ,-0.00010658,-0.00013723,0.00014881,0.00001183,0.00015120,-0.00020795,
 0.00028086,-0.00009533,-0.00174806,-0.00013166,-0.00191858,-0.00451992
 ,0.00123396,0.00077990,-0.08236627,0.17611631,-0.00648383,0.00642627,-
 0.01259866,-0.00399503,-0.00033010,0.00726871,-0.00023399,0.00178034,-
 0.00221287,-0.00046262,-0.00034094,-0.00077396,-0.00189316,-0.00009458
 ,-0.00029825,0.00193924,-0.00064508,-0.00066497,-0.00267447,0.00283337
 ,0.00086766,0.00219204,-0.00169197,-0.00010048,0.00255015,-0.00027249,
 0.00001835,0.00209296,-0.00098565,-0.00114462,-0.00114638,0.00013477,-
 0.00013415,0.00035946,-0.00010240,-0.00009149,-0.00036608,0.00036920,0
 .00087796,0.00015583,-0.00028607,-0.00023564,0.00025686,0.00036051,-0.
 00013395,-0.00103349,0.00034163,0.00089053,0.00042116,0.00076561,-0.00
 129205,0.00067112,-0.00030128,-0.00049792,-0.00467619,-0.00270067,-0.0
 0343379,0.00129984,-0.00047876,-0.00041389,-0.00171519,0.00029171,0.00
 164806,0.00108580,-0.00045906,0.00000398,-0.00083984,-0.00094645,-0.00
 026913,0.00104125,0.00946020,0.00921986,0.08229566,-0.15213014,-0.1584
 7019,0.00070446,0.00135863,-0.00047491,-0.00015570,-0.00169040,-0.0001
 0557,0.00004330,-0.00002456,-0.00042320,-0.00213327,0.00003824,-0.0009
 6423,0.00015283,0.00000275,-0.00010030,-0.00011928,0.00010801,-0.00010
 432,0.00015313,0.00021691,-0.00000394,-0.00211339,0.00096604,-0.000626
 54,-0.00321033,0.00038900,0.00081538,-0.06350741,0.13680272,0.16465974
 ,-0.00001071,0.00001038,-0.00002854,0.00019772,0.00009491,0.00011543,-
 0.00006959,-0.00003191,-0.00005886,0.00000607,-0.00000385,-0.00000989,
 0.00017763,0.00014844,0.00001082,-0.00021003,0.00112493,0.00079120,-0.
 00296109,-0.00015180,0.00035419,0.00021993,0.00021353,-0.00007755,-0.0
 0000397,0.00000522,0.00001221,-0.00000254,0.00000831,-0.00001342,0.000
 00262,-0.00000716,0.00000451,0.00001850,-0.00000262,0.00000029,-0.0000
 1772,0.00000381,0.00000870,-0.00010505,0.00001407,0.00004332,-0.000016
 06,-0.00000038,0.00000266,-0.00024932,0.00009126,-0.00042140,-0.001380
 59,0.00015615,-0.00038473,0.00015737,0.00000867,-0.00005262,0.00006019
 ,-0.00012142,-0.00000663,0.00091701,-0.00021266,-0.00001876,-0.0043744
 6,0.00196988,-0.00067962,0.00060377,0.00068244,-0.00141403,0.00007807,
 -0.00002928,0.00005595,-0.00132724,-0.00080746,-0.00074675,-0.00000837
 ,-0.00214699,0.00245093,-0.30155243,-0.02743428,-0.06997436,-0.0007489
 2,-0.00783627,-0.00142712,-0.00008445,0.00002751,0.00015563,0.00002425
 ,0.00000655,-0.00001795,0.00029582,-0.00015403,0.00000509,-0.00031309,
 -0.00018679,-0.00019988,0.00037983,-0.00002384,0.00034030,0.00002459,0
 .00015905,0.00006507,-0.00006921,0.00010539,-0.00010368,0.00011497,-0.
 00022147,0.00014918,0.32307882,0.00025557,-0.00034191,-0.00001959,-0.0
 0006991,0.00004341,-0.00006313,0.00003513,0.00003894,0.00008705,-0.000
 02397,-0.00010601,0.00000926,0.00031767,-0.00007848,-0.00025970,0.0000
 9564,0.00062891,0.00069949,0.00050873,0.00075991,-0.00041096,0.0000001
 8,-0.00079925,0.00016856,-0.00008002,0.00003862,0.00003680,0.00004087,
 -0.00001297,0.00000411,0.00002396,-0.00000786,-0.00000073,-0.00003355,
 0.00000484,0.00000683,-0.00002687,0.00003366,0.00001507,-0.00007533,0.
 00000203,0.00007589,-0.00001438,-0.00003637,-0.00001528,-0.00018218,-0
 .00038575,-0.00076560,0.00015656,0.00132280,0.00040372,-0.00005389,-0.
 00004918,-0.00004182,-0.00053705,0.00004154,-0.00007896,-0.00074822,0.
 00029161,-0.00042296,0.01250869,0.00207374,0.00291353,-0.00006393,-0.0
 0184118,0.00288838,-0.00041626,0.00089315,-0.00042550,0.00180832,-0.00
 037494,0.00117740,-0.00057431,-0.00102555,-0.00031186,-0.01955034,-0.0
 5330859,-0.00947750,-0.03963740,-0.02084109,-0.00990479,0.00009265,-0.
 00019059,0.00017031,0.00004602,0.00005724,0.00008436,-0.00035604,0.000
 22360,0.00009549,0.00088689,0.00016434,0.00055963,0.00115022,-0.001234
 75,0.00070721,-0.00015878,0.00013199,-0.00035845,-0.00005747,-0.000039
 18,-0.00016943,-0.00068232,0.00066325,0.00049446,0.03566351,0.06718695
 ,-0.00030320,0.00003043,0.00027172,0.00032934,-0.00006713,-0.00005762,
 0.00004202,-0.00002217,0.00001794,-0.00012231,-0.00004315,0.00002513,0
 .00029496,-0.00022445,-0.00018337,0.00001984,0.00052872,0.00057194,0.0
 0017065,0.00030762,-0.00043900,-0.00019054,-0.00014888,-0.00013634,0.0
 0003838,0.00003490,-0.00000142,-0.00008020,0.00003126,-0.00000615,-0.0
 0001711,0.00001209,-0.00000738,-0.00001190,-0.00000425,0.00002177,0.00
 007378,0.00002283,-0.00000017,-0.00008466,0.00002729,0.00006027,-0.000
 03461,0.00001970,-0.00002943,-0.00018568,-0.00074121,-0.00129203,0.000
 38464,-0.00040319,0.00201660,-0.00036111,0.00002891,0.00000295,0.00022
 119,0.00008718,0.00024654,0.00055331,-0.00005602,0.00193924,-0.0307568
 2,0.00001414,-0.00829100,0.00133275,0.00338483,-0.00540171,0.00038421,
 -0.00079005,0.00045966,-0.00285551,-0.00035406,0.00027819,0.00143523,-
 0.00081489,0.00090449,-0.06635453,-0.00929724,-0.07178703,0.00217594,-
 0.00157802,0.00314418,-0.00005719,0.00006098,0.00023290,0.00003465,0.0
 0004902,0.00008466,-0.00005436,0.00018776,0.00023530,-0.00185219,0.000
 28004,-0.00027216,-0.00001789,0.00020320,-0.00038037,0.00023774,-0.000
 14363,0.00024246,0.00019570,0.00013504,-0.00002259,0.00053470,0.000078
 95,-0.00095641,0.07532960,0.00683370,0.06948789,-0.00001189,-0.0001186
 4,0.00004190,-0.00003028,0.00000488,-0.00008241,0.00009988,0.00002697,
 0.00006591,-0.00010508,-0.00007587,-0.00000712,0.00051996,-0.00009870,
 -0.00010499,-0.00030056,0.00077677,0.00052977,0.00033304,0.00041122,-0
 .00023487,-0.00012633,-0.00043608,-0.00003295,-0.00001929,0.00003996,0
 .00000974,0.00000811,0.00001371,-0.00001342,-0.00000022,-0.00000080,-0
 .00000535,-0.00002701,0.00000167,0.00001691,0.00005638,0.00003213,0.00
 000580,-0.00010068,0.00002168,0.00007284,-0.00005051,0.00000769,-0.000
 01681,0.00000894,-0.00023379,-0.00067117,0.00015743,-0.00005393,0.0003
 6107,-0.00016817,-0.00001134,0.00003818,-0.00006354,0.00016004,0.00006
 046,0.00085846,0.00031597,-0.00104028,0.00232726,-0.00079925,-0.005803
 07,0.00002261,-0.00029128,-0.00188558,0.00016622,0.00024208,-0.0000173
 2,-0.00057502,0.00026608,0.00039858,0.00022793,-0.00118829,0.00015707,
 -0.14899929,0.06974159,0.10733825,0.01003616,-0.00561348,-0.00747399,-
 0.00001882,-0.00004971,0.00010748,0.00028182,-0.00022695,-0.00025858,-
 0.00007825,0.00020737,-0.00062320,0.00008627,-0.00016471,-0.00000902,-
 0.00016560,0.00001097,-0.00006226,0.00004932,-0.00012419,-0.00001596,0
 .00009467,-0.00045453,0.00018262,0.00003289,0.00039020,-0.00025260,-0.
 01298928,0.01309979,0.02041210,0.14803883,-0.00005095,0.00005072,-0.00
 000424,0.00011429,-0.00009090,0.00001925,-0.00005184,0.00002916,0.0000
 0285,0.00005047,0.00005678,-0.00000310,-0.00035529,0.00016257,-0.00007
 377,0.00092200,0.00034210,-0.00041275,-0.00004288,-0.00005535,-0.00002
 936,-0.00000881,0.00007625,0.00002430,-0.00000082,0.00000366,-0.000004
 05,0.00002275,-0.00002503,0.00000808,-0.00000549,-0.00000015,-0.000001
 52,-0.00000365,-0.00000130,0.00000318,-0.00000212,-0.00001491,-0.00001
 075,0.00008695,-0.00000421,-0.00004492,-0.00000415,-0.00000966,0.00001
 461,0.00028319,-0.00064245,0.00030126,0.00000868,-0.00004919,-0.000028
 92,-0.00001134,-0.00000335,-0.00000172,0.00002984,-0.00000895,0.000006
 20,-0.00026635,-0.00024139,0.00320356,-0.00594840,0.00647560,0.0061654
 7,0.00008539,0.00029759,0.00068083,-0.00020569,0.00028656,-0.00012427,
 -0.00015014,0.00081593,-0.00018450,-0.00011348,-0.00025783,-0.00014683
 ,0.06255945,-0.09436485,-0.07363370,0.02154095,-0.03299268,-0.02002401
 ,0.00011638,-0.00016142,0.00038254,0.00003881,0.00058935,0.00069786,0.
 00016203,0.00003508,0.00025020,-0.00014488,0.00011175,0.00004521,0.000
 75308,-0.00059608,0.00001437,0.00016425,0.00015577,-0.00013893,-0.0000
 3715,-0.00032585,0.00010489,0.00010206,0.00005474,-0.00003953,-0.00127
 007,0.00381406,0.00297428,-0.07369160,0.12125095,0.00013144,0.00007931
 ,0.00008589,-0.00003113,0.00002515,-0.00007664,-0.00002327,-0.00000377
 ,0.00003243,0.00003742,0.00002431,0.00001971,-0.00012821,-0.00006547,0
 .00002486,0.00039601,-0.00010519,0.00047160,0.00000233,-0.00001564,-0.
 00008909,-0.00004488,-0.00000356,0.00006616,0.00001031,-0.00002349,-0.
 00000529,-0.00011694,0.00002122,0.00003365,0.00001377,-0.00000281,0.00
 000377,-0.00001260,0.00000287,0.00000769,0.00000306,-0.00001281,-0.000
 02328,0.00000857,0.00001582,-0.00000347,0.00004327,-0.00001117,0.00000
 759,-0.00082726,0.00061288,-0.00049783,0.00005262,0.00004180,0.0000029
 0,-0.00003816,0.00000173,0.00002055,0.00001727,-0.00000126,-0.00005268
 ,0.00034788,0.00319728,-0.00601931,0.01775627,-0.01327831,-0.01829462,
 0.00217988,-0.00187486,-0.00002088,-0.00085385,0.00035212,0.00046500,-
 0.00006815,-0.00121913,-0.00016555,-0.00015723,0.00019376,0.00012382,0
 .10287204,-0.07757483,-0.17179521,-0.00313498,0.00006427,0.00617244,0.
 00024720,0.00003005,-0.00005778,-0.00010040,-0.00114541,-0.00151676,-0
 .00143519,0.00079131,0.00018521,0.00005566,0.00030193,0.00069356,0.000
 36216,-0.00053528,-0.00057242,-0.00011972,0.00029014,0.00024681,0.0000
 5518,0.00081601,0.00023814,-0.00015814,-0.00023147,-0.00010124,-0.0053
 8303,0.00490867,0.00792041,-0.11098803,0.08301987,0.18241805,-0.000419
 11,0.00102262,0.00003850,0.00092992,-0.00102631,0.00029812,-0.00070846
 ,0.00030235,0.00005642,0.00073404,0.00071817,-0.00002014,-0.00782057,0
 .00127720,-0.00242346,0.00509213,0.00043950,-0.00096898,-0.00017766,-0
 .00075859,-0.00053808,-0.00006946,0.00132772,0.00019938,0.00012229,-0.
 00010403,-0.00008460,0.00000405,-0.00025224,0.00019227,-0.00003383,-0.
 00000470,-0.00001055,-0.00004329,0.00000407,0.00001925,-0.00008250,-0.
 00020879,-0.00013022,0.00215817,-0.00002980,-0.00095326,0.00025728,-0.
 00011145,0.00033602,0.00425170,-0.00396628,0.00467542,0.00006018,-0.00
 053708,-0.00022118,-0.00006355,0.00002984,-0.00001727,0.00063597,-0.00
 029442,0.00010270,-0.00249276,0.00162690,0.00036043,-0.00084106,-0.001
 98424,-0.00157009,-0.00030495,0.00058671,0.00005824,0.00036173,-0.0007
 7098,0.00011766,0.00157043,0.00018430,0.00072625,-0.00202030,0.0005520
 1,0.00047590,0.01238765,-0.00516647,-0.00339084,-0.32799397,0.18999580
 ,0.10267766,0.00002400,0.00037457,-0.00104512,0.00008217,-0.00025963,0
 .00007659,-0.00021721,-0.00003912,-0.00002530,0.00015207,-0.00009501,0
 .00021438,-0.00144513,0.00097613,0.00029785,-0.00031076,-0.00038315,0.
 00014232,-0.00008629,0.00018078,-0.00000185,0.00123224,-0.00107980,-0.
 00055204,0.00013697,-0.00334817,-0.00086094,0.00042365,-0.00467547,-0.
 00097118,0.31451421,0.00031105,-0.00031707,-0.00008524,-0.00044272,0.0
 0029598,0.00001572,0.00007180,-0.00009552,-0.00009962,-0.00003850,-0.0
 0018635,0.00000615,0.00072273,-0.00133904,-0.00045407,0.00063588,-0.00
 363531,0.00019563,-0.00045149,0.00001456,0.00026989,0.00032534,-0.0001
 0201,-0.00010586,-0.00004486,-0.00000441,0.00003512,-0.00004659,0.0000
 6541,-0.00001378,0.00002859,-0.00000771,0.00003358,0.00003753,-0.00000
 596,-0.00003527,-0.00010926,0.00005362,0.00005737,0.00029285,-0.000074
 10,-0.00010447,0.00025791,0.00003716,0.00001972,-0.00349391,0.00175575
 ,0.00270079,-0.00012141,0.00004154,-0.00008717,0.00016004,-0.00000895,
 0.00000125,-0.00029443,-0.00002846,-0.00002018,0.00118222,0.00018181,-
 0.00062057,0.00059197,-0.00147466,-0.00016475,0.00012155,-0.00059305,-
 0.00036540,-0.00094099,0.00073768,-0.00137512,-0.00016812,-0.00036492,
 -0.00004255,0.00059044,0.00034497,-0.00047913,0.03356376,-0.03245598,-
 0.01243816,0.14254011,-0.14743473,-0.05222565,0.00012869,0.00030698,0.
 00073642,-0.00049611,0.00026005,-0.00014421,-0.00001743,0.00007631,0.0
 0012377,-0.00012982,0.00015174,-0.00009105,0.00225134,-0.00028607,0.00
 245631,0.00004363,0.00017389,0.00000968,0.00001654,0.00009769,0.000075
 54,-0.00058603,0.00015236,0.00037976,0.00014827,0.00225905,-0.00064453
 ,-0.00213763,-0.00476304,0.00131397,-0.17450293,0.18617082,-0.00012790
 ,-0.00040276,-0.00021426,-0.00084325,0.00044915,0.00021589,0.00036795,
 -0.00036075,-0.00013479,-0.00044638,-0.00034403,-0.00006086,0.00388286
 ,-0.00161184,0.00070179,-0.00493480,0.00162608,-0.00512786,-0.00042053
 ,0.00003285,0.00052847,0.00021774,-0.00016804,-0.00044454,-0.00004450,
 0.00006722,0.00005409,0.00019901,0.00009129,-0.00015109,-0.00004469,0.
 00003378,-0.00002521,0.00008221,-0.00000313,-0.00004516,-0.00000811,0.
 00010967,0.00015369,-0.00071419,0.00000768,0.00031699,-0.00044933,0.00
 018961,-0.00010077,0.00399010,0.00319721,-0.00343423,0.00000666,0.0000
 7903,0.00024657,-0.00006047,-0.00000620,-0.00005267,-0.00010272,0.0000
 2021,0.00016538,0.00044812,-0.00178368,0.00060188,-0.00096199,0.003684
 78,0.00204808,-0.00008100,-0.00071767,-0.00011180,-0.00085476,0.000542
 62,-0.00222416,0.00006458,-0.00019154,-0.00064564,0.00035268,-0.000043
 39,-0.00051128,-0.00018580,-0.00186576,-0.00182451,0.09673865,-0.06276
 373,-0.04092914,-0.00161787,0.00109629,-0.00157413,0.00044376,-0.00059
 431,-0.00005611,0.00017414,-0.00004170,-0.00008653,-0.00008246,0.00013
 196,-0.00016755,0.00159510,0.00041900,0.00251898,0.00005699,0.00026974
 ,-0.00018843,-0.00005405,-0.00019204,-0.00004702,-0.00022954,0.0005019
 0,0.00035644,0.00112375,0.00038633,0.00109996,-0.00019971,-0.00301191,
 0.00005181,-0.09728027,0.06116611,0.04909773\\-0.00000002,-0.00000015,
 0.00000052,0.00000027,0.00000154,-0.00000046,-0.00000025,0.00000182,0.
 00000029,0.00000044,0.00000217,-0.00000022,0.00000168,0.00000104,-0.00
 000003,0.00000069,-0.00000014,-0.00000008,-0.00000043,0.00000039,0.000
 00009,0.00000023,0.00000125,0.00000011,-0.00000074,0.00000161,-0.00000
 007,0.00000003,0.00000087,-0.00000008,0.00000096,0.00000217,-0.0000001
 0,0.00000055,0.00000196,-0.00000014,-0.00000112,0.00000253,0.00000030,
 0.00000119,0.00000087,0.00000002,0.00000134,0.00000109,0.00000007,0.00
 000043,-0.00000029,-0.00000005,0.00000024,0.00000055,-0.00000005,0.000
 00028,0.00000151,0.,-0.00000181,0.00000118,-0.00000012,-0.00000006,0.0
 0000014,0.00000063,-0.00000027,-0.00000157,-0.00000046,0.00000026,-0.0
 0000181,0.00000028,-0.00000040,-0.00000221,-0.00000019,-0.00000172,-0.
 00000101,-0.00000002,-0.00000069,0.00000012,-0.00000013,0.00000043,-0.
 00000041,0.00000009,-0.00000017,-0.00000125,0.00000006,0.00000073,-0.0
 0000159,-0.00000007,0.00000003,-0.00000091,-0.00000009,-0.00000096,-0.
 00000218,-0.00000010,-0.00000056,-0.00000198,-0.00000015,0.00000111,-0
 .00000248,0.00000036,-0.00000119,-0.00000088,0.00000001,-0.00000134,-0
 .00000108,0.00000006,-0.00000046,0.00000032,-0.00000005,-0.00000022,-0
 .00000055,-0.00000005,-0.00000027,-0.00000148,0.,0.00000179,-0.0000011
 5,-0.00000018\\\@


 THEREFORE SHALL EVIL COME UPON THEE...
 THOU SHALT NOT KNOW FROM WHENCE IT RISETH...
 AND MISCHIEF SHALL FALL UPON THEE...
 THOU SHALT NOT BE ABLE TO PUT IT OFF...
 AND DESOLATION SHALL COME UPON THEE SUDDENLY...
 WHICH THOU SHALT NOT KNOW...

                                         ISAIAH 47.11
 File lengths (MBytes):  RWF=    343 Int=      0 D2E=      0 Chk=      7 Scr=      1
 Normal termination of Gaussian 16 at Tue Aug  9 17:32:35 2022.
real 5251.70
user 20784.69
sys 21.74
