 Entering Gaussian System, Link 0=g16
 Input=gaussian_test.inp
 Output=gaussian_test.log
 Initial command:
 /sw/restricted/lms/sw/Gaussian/g16_B01/g16/l1.exe "/scratch/user/peterchao1/peterchao1/6097796_1659647584000000562887262/Gau-202452.inp" -scrdir="/scratch/user/peterchao1/peterchao1/6097796_1659647584000000562887262/"
 Entering Link 1 = /sw/restricted/lms/sw/Gaussian/g16_B01/g16/l1.exe PID=    202453.
  
 Copyright (c) 1988-2017, Gaussian, Inc.  All Rights Reserved.
  
 This is part of the Gaussian(R) 16 program.  It is based on
 the Gaussian(R) 09 system (copyright 2009, Gaussian, Inc.),
 the Gaussian(R) 03 system (copyright 2003, Gaussian, Inc.),
 the Gaussian(R) 98 system (copyright 1998, Gaussian, Inc.),
 the Gaussian(R) 94 system (copyright 1995, Gaussian, Inc.),
 the Gaussian 92(TM) system (copyright 1992, Gaussian, Inc.),
 the Gaussian 90(TM) system (copyright 1990, Gaussian, Inc.),
 the Gaussian 88(TM) system (copyright 1988, Gaussian, Inc.),
 the Gaussian 86(TM) system (copyright 1986, Carnegie Mellon
 University), and the Gaussian 82(TM) system (copyright 1983,
 Carnegie Mellon University). Gaussian is a federally registered
 trademark of Gaussian, Inc.
  
 This software contains proprietary and confidential information,
 including trade secrets, belonging to Gaussian, Inc.
  
 This software is provided under written license and may be
 used, copied, transmitted, or stored only in accord with that
 written license.
  
 The following legend is applicable only to US Government
 contracts under FAR:
  
                    RESTRICTED RIGHTS LEGEND
  
 Use, reproduction and disclosure by the US Government is
 subject to restrictions as set forth in subparagraphs (a)
 and (c) of the Commercial Computer Software - Restricted
 Rights clause in FAR 52.227-19.
  
 Gaussian, Inc.
 340 Quinnipiac St., Bldg. 40, Wallingford CT 06492
  
  
 ---------------------------------------------------------------
 Warning -- This program may not be used in any manner that
 competes with the business of Gaussian, Inc. or will provide
 assistance to any competitor of Gaussian, Inc.  The licensee
 of this program is prohibited from giving any competitor of
 Gaussian, Inc. access to this program.  By using this program,
 the user acknowledges that Gaussian, Inc. is engaged in the
 business of creating and licensing software in the field of
 computational chemistry and represents and warrants to the
 licensee that it is not a competitor of Gaussian, Inc. and that
 it will not use this program in any manner prohibited above.
 ---------------------------------------------------------------
  

 Cite this work as:
 Gaussian 16, Revision B.01,
 M. J. Frisch, G. W. Trucks, H. B. Schlegel, G. E. Scuseria, 
 M. A. Robb, J. R. Cheeseman, G. Scalmani, V. Barone, 
 G. A. Petersson, H. Nakatsuji, X. Li, M. Caricato, A. V. Marenich, 
 J. Bloino, B. G. Janesko, R. Gomperts, B. Mennucci, H. P. Hratchian, 
 J. V. Ortiz, A. F. Izmaylov, J. L. Sonnenberg, D. Williams-Young, 
 F. Ding, F. Lipparini, F. Egidi, J. Goings, B. Peng, A. Petrone, 
 T. Henderson, D. Ranasinghe, V. G. Zakrzewski, J. Gao, N. Rega, 
 G. Zheng, W. Liang, M. Hada, M. Ehara, K. Toyota, R. Fukuda, 
 J. Hasegawa, M. Ishida, T. Nakajima, Y. Honda, O. Kitao, H. Nakai, 
 T. Vreven, K. Throssell, J. A. Montgomery, Jr., J. E. Peralta, 
 F. Ogliaro, M. J. Bearpark, J. J. Heyd, E. N. Brothers, K. N. Kudin, 
 V. N. Staroverov, T. A. Keith, R. Kobayashi, J. Normand, 
 K. Raghavachari, A. P. Rendell, J. C. Burant, S. S. Iyengar, 
 J. Tomasi, M. Cossi, J. M. Millam, M. Klene, C. Adamo, R. Cammi, 
 J. W. Ochterski, R. L. Martin, K. Morokuma, O. Farkas, 
 J. B. Foresman, and D. J. Fox, Gaussian, Inc., Wallingford CT, 2016.
 
 ******************************************
 Gaussian 16:  ES64L-G16RevB.01 20-Dec-2017
                 4-Aug-2022 
 ******************************************
 %nprocshared=4
 Will use up to    4 processors via shared memory.
 %mem=8000mb
 ----------------------------------------------------------------------
 #T wB97XD/def2svpp opt=tight freq int(grid=ultrafine) scf=(verytight,q
 c)
 ----------------------------------------------------------------------
 --------------
 Comment gs min
 --------------
 Symbolic Z-matrix:
 Charge =  0 Multiplicity = 1
 C                     0.98778   0.08328  -0.07952 
 C                     2.52243   0.09069  -0.06894 
 C                     3.0512   -0.48758   1.25081 
 C                     3.02393  -0.78931  -1.22839 
 C                     3.04817   1.51712  -0.26697 
 O                     2.673     2.392     0.69481 
 O                     3.75      1.87411  -1.20153 
 H                     0.59847  -0.93699   0.01605 
 H                     0.59755   0.50666  -1.01189 
 H                     0.56927   0.67061   0.74452 
 H                     2.72469  -1.52501   1.38609 
 H                     2.69793   0.08091   2.11775 
 H                     4.14668  -0.47214   1.27735 
 H                     2.66726  -1.82071  -1.13039 
 H                     4.11944  -0.81566  -1.26189 
 H                     2.67737  -0.40615  -2.19545 
 H                     2.11482   2.01506   1.39847 
 

 GradGradGradGradGradGradGradGradGradGradGradGradGradGradGradGradGradGrad
 Initialization pass.
                           ----------------------------
                           !    Initial Parameters    !
                           ! (Angstroms and Degrees)  !
 --------------------------                            --------------------------
 ! Name  Definition              Value          Derivative Info.                !
 --------------------------------------------------------------------------------
 ! R1    R(1,2)                  1.5347         estimate D2E/DX2                !
 ! R2    R(1,8)                  1.0962         estimate D2E/DX2                !
 ! R3    R(1,9)                  1.0958         estimate D2E/DX2                !
 ! R4    R(1,10)                 1.0951         estimate D2E/DX2                !
 ! R5    R(2,3)                  1.5348         estimate D2E/DX2                !
 ! R6    R(2,4)                  1.5396         estimate D2E/DX2                !
 ! R7    R(2,5)                  1.5331         estimate D2E/DX2                !
 ! R8    R(3,11)                 1.096          estimate D2E/DX2                !
 ! R9    R(3,12)                 1.0952         estimate D2E/DX2                !
 ! R10   R(3,13)                 1.0959         estimate D2E/DX2                !
 ! R11   R(4,14)                 1.0957         estimate D2E/DX2                !
 ! R12   R(4,15)                 1.0963         estimate D2E/DX2                !
 ! R13   R(4,16)                 1.0964         estimate D2E/DX2                !
 ! R14   R(5,6)                  1.3532         estimate D2E/DX2                !
 ! R15   R(5,7)                  1.2221         estimate D2E/DX2                !
 ! R16   R(6,17)                 0.9741         estimate D2E/DX2                !
 ! A1    A(2,1,8)              111.0404         estimate D2E/DX2                !
 ! A2    A(2,1,9)              111.1058         estimate D2E/DX2                !
 ! A3    A(2,1,10)             111.9866         estimate D2E/DX2                !
 ! A4    A(8,1,9)              107.8969         estimate D2E/DX2                !
 ! A5    A(8,1,10)             107.3292         estimate D2E/DX2                !
 ! A6    A(9,1,10)             107.2741         estimate D2E/DX2                !
 ! A7    A(1,2,3)              110.4022         estimate D2E/DX2                !
 ! A8    A(1,2,4)              108.5288         estimate D2E/DX2                !
 ! A9    A(1,2,5)              110.2747         estimate D2E/DX2                !
 ! A10   A(3,2,4)              108.6624         estimate D2E/DX2                !
 ! A11   A(3,2,5)              110.089          estimate D2E/DX2                !
 ! A12   A(4,2,5)              108.835          estimate D2E/DX2                !
 ! A13   A(2,3,11)             111.1085         estimate D2E/DX2                !
 ! A14   A(2,3,12)             111.9588         estimate D2E/DX2                !
 ! A15   A(2,3,13)             111.0935         estimate D2E/DX2                !
 ! A16   A(11,3,12)            107.3092         estimate D2E/DX2                !
 ! A17   A(11,3,13)            107.9475         estimate D2E/DX2                !
 ! A18   A(12,3,13)            107.2139         estimate D2E/DX2                !
 ! A19   A(2,4,14)             111.3861         estimate D2E/DX2                !
 ! A20   A(2,4,15)             111.2383         estimate D2E/DX2                !
 ! A21   A(2,4,16)             111.1949         estimate D2E/DX2                !
 ! A22   A(14,4,15)            107.7807         estimate D2E/DX2                !
 ! A23   A(14,4,16)            107.7552         estimate D2E/DX2                !
 ! A24   A(15,4,16)            107.2952         estimate D2E/DX2                !
 ! A25   A(2,5,6)              114.4981         estimate D2E/DX2                !
 ! A26   A(2,5,7)              124.5784         estimate D2E/DX2                !
 ! A27   A(6,5,7)              120.9235         estimate D2E/DX2                !
 ! A28   A(5,6,17)             114.9686         estimate D2E/DX2                !
 ! D1    D(8,1,2,3)            -60.6746         estimate D2E/DX2                !
 ! D2    D(8,1,2,4)             58.3202         estimate D2E/DX2                !
 ! D3    D(8,1,2,5)            177.4501         estimate D2E/DX2                !
 ! D4    D(9,1,2,3)            179.232          estimate D2E/DX2                !
 ! D5    D(9,1,2,4)            -61.7732         estimate D2E/DX2                !
 ! D6    D(9,1,2,5)             57.3567         estimate D2E/DX2                !
 ! D7    D(10,1,2,3)            59.2913         estimate D2E/DX2                !
 ! D8    D(10,1,2,4)           178.286          estimate D2E/DX2                !
 ! D9    D(10,1,2,5)           -62.584          estimate D2E/DX2                !
 ! D10   D(1,2,3,11)            60.7552         estimate D2E/DX2                !
 ! D11   D(1,2,3,12)           -59.2132         estimate D2E/DX2                !
 ! D12   D(1,2,3,13)          -179.05           estimate D2E/DX2                !
 ! D13   D(4,2,3,11)           -58.1583         estimate D2E/DX2                !
 ! D14   D(4,2,3,12)          -178.1267         estimate D2E/DX2                !
 ! D15   D(4,2,3,13)            62.0365         estimate D2E/DX2                !
 ! D16   D(5,2,3,11)          -177.26           estimate D2E/DX2                !
 ! D17   D(5,2,3,12)            62.7716         estimate D2E/DX2                !
 ! D18   D(5,2,3,13)           -57.0652         estimate D2E/DX2                !
 ! D19   D(1,2,4,14)           -59.7097         estimate D2E/DX2                !
 ! D20   D(1,2,4,15)          -179.9782         estimate D2E/DX2                !
 ! D21   D(1,2,4,16)            60.4968         estimate D2E/DX2                !
 ! D22   D(3,2,4,14)            60.3743         estimate D2E/DX2                !
 ! D23   D(3,2,4,15)           -59.8942         estimate D2E/DX2                !
 ! D24   D(3,2,4,16)          -179.4192         estimate D2E/DX2                !
 ! D25   D(5,2,4,14)          -179.7406         estimate D2E/DX2                !
 ! D26   D(5,2,4,15)            59.9909         estimate D2E/DX2                !
 ! D27   D(5,2,4,16)           -59.5341         estimate D2E/DX2                !
 ! D28   D(1,2,5,6)             61.0713         estimate D2E/DX2                !
 ! D29   D(1,2,5,7)           -118.9427         estimate D2E/DX2                !
 ! D30   D(3,2,5,6)            -60.9891         estimate D2E/DX2                !
 ! D31   D(3,2,5,7)            118.997          estimate D2E/DX2                !
 ! D32   D(4,2,5,6)           -179.9853         estimate D2E/DX2                !
 ! D33   D(4,2,5,7)              0.0008         estimate D2E/DX2                !
 ! D34   D(2,5,6,17)             0.0115         estimate D2E/DX2                !
 ! D35   D(7,5,6,17)          -179.9751         estimate D2E/DX2                !
 --------------------------------------------------------------------------------
 Number of steps in this run=     89 maximum allowed number of steps=    102.
 GradGradGradGradGradGradGradGradGradGradGradGradGradGradGradGradGradGrad

                    Distance matrix (angstroms):
                    1          2          3          4          5
     1  C    0.000000
     2  C    1.534704   0.000000
     3  C    2.520587   1.534840   0.000000
     4  C    2.495440   1.539554   2.497642   0.000000
     5  C    2.517189   1.533076   2.514456   2.498907   0.000000
     6  O    2.961375   2.429406   2.957051   3.733977   1.353214
     7  O    3.477907   2.443415   3.475611   2.760744   1.222051
     8  H    1.096197   2.182881   2.782532   2.730073   3.479050
     9  H    1.095830   2.183426   3.482632   2.759299   2.753448
    10  H    1.095057   2.193823   2.785267   3.471181   2.807959
    11  H    2.784145   2.183691   1.095979   2.732454   3.477327
    12  H    2.784352   2.193743   1.095247   3.472782   2.805754
    13  H    3.482562   2.183452   1.095910   2.764036   2.747509
    14  H    2.747755   2.191142   2.755859   1.095721   3.468673
    15  H    3.466033   2.189758   2.749988   1.096339   2.753062
    16  H    2.751621   2.189270   3.467432   1.096413   2.748726
    17  H    2.680755   2.454106   2.676157   3.948590   1.973012
                    6          7          8          9         10
     6  O    0.000000
     7  O    2.241483   0.000000
     8  H    3.980774   4.395102   0.000000
     9  H    3.282503   3.441486   1.772227   0.000000
    10  H    2.718701   3.918235   1.765191   1.764272   0.000000
    11  H    3.977877   4.393297   2.596842   3.795091   3.142960
    12  H    2.714133   3.916636   3.140222   3.793087   2.600904
    13  H    3.273283   3.436145   3.794306   4.335319   3.793105
    14  H    4.591112   3.850855   2.524911   3.116792   3.758128
    15  H    4.026158   2.715694   3.747677   3.770244   4.340321
    16  H    4.022843   2.708874   3.081290   2.561189   3.774509
    17  H    0.974057   3.074684   3.595136   3.222920   2.150330
                   11         12         13         14         15
    11  H    0.000000
    12  H    1.764942   0.000000
    13  H    1.772686   1.763806   0.000000
    14  H    2.534444   3.763976   3.131220   0.000000
    15  H    3.075761   3.774453   2.562516   1.770945   0.000000
    16  H    3.752535   4.340662   3.771414   1.770716   1.766012
    17  H    3.592240   2.144369   3.213921   4.627467   4.371383
                   16         17
    16  H    0.000000
    17  H    4.369780   0.000000
 Framework group  C1[X(C5H10O2)]
 Deg. of freedom    45
                         Standard orientation:                         
 ---------------------------------------------------------------------
 Center     Atomic      Atomic             Coordinates (Angstroms)
 Number     Number       Type             X           Y           Z
 ---------------------------------------------------------------------
      1          6           0        0.977154   -0.771490   -1.259995
      2          6           0        0.538791   -0.013491    0.000399
      3          6           0        0.969319   -0.776601    1.260575
      4          6           0        1.220768    1.366772    0.003219
      5          6           0       -0.981312    0.185518   -0.001112
      6          8           0       -1.697538   -0.962612   -0.003318
      7          8           0       -1.538387    1.273211   -0.000200
      8          1           0        2.067306   -0.881304   -1.294018
      9          1           0        0.663438   -0.243136   -2.167336
     10          1           0        0.546474   -1.777333   -1.304078
     11          1           0        2.059012   -0.885943    1.302807
     12          1           0        0.539165   -1.783189    1.296809
     13          1           0        0.647013   -0.253316    2.167940
     14          1           0        2.312467    1.273045   -0.000243
     15          1           0        0.937444    1.947930    0.888624
     16          1           0        0.932726    1.953036   -0.877375
     17          1           0       -1.165965   -1.778832   -0.003511
 ---------------------------------------------------------------------
 Rotational constants (GHZ):           3.2743700           2.3686167           1.9759146
   118 basis functions,   215 primitive gaussians,   125 cartesian basis functions
    28 alpha electrons       28 beta electrons
       nuclear repulsion energy       328.4530877932 Hartrees.
 NAtoms=   17 NActive=   17 NUniq=   17 SFac= 1.00D+00 NAtFMM=   60 NAOKFM=F Big=F
 Nuclear repulsion after empirical dispersion term =      328.4426143784 Hartrees.
   1 Symmetry operations used in ECPInt.
 ECPInt:  NShTT=    1953 NPrTT=    7871 LenC2=    1947 LenP2D=    6422.
 LDataN:  DoStor=T MaxTD1= 4 Len=   56
 ExpMin= 1.22D-01 ExpMax= 2.27D+03 ExpMxC= 3.41D+02 IAcc=3 IRadAn=         5 AccDes= 0.00D+00
 Harris functional with IExCor= 4639 and IRadAn=       5 diagonalized for initial guess.
 HarFok:  IExCor= 4639 AccDes= 0.00D+00 IRadAn=         5 IDoV= 1 UseB2=F ITyADJ=14
 ICtDFT=  3500011 ScaDFX=  1.000000  1.000000  1.000000  1.000000
 FoFCou: FMM=F IPFlag=           0 FMFlag=      100000 FMFlg1=           0
         NFxFlg=           0 DoJE=T BraDBF=F KetDBF=T FulRan=T
         wScrn=  0.000000 ICntrl=       500 IOpCl=  0 I1Cent=   200000004 NGrid=           0
         NMat0=    1 NMatS0=      1 NMatT0=    0 NMatD0=    1 NMtDS0=    0 NMtDT0=    0
 Petite list used in FoFCou.
     Accept linear search using points  2 and  3.
     Accept linear search using points  1 and  2.
     Minimum is close to point  2 DX= -3.83D-02 DF= -8.80D-07 DXR=  6.81D-02 DFR=  8.32D-04 which will be used.
     Minimum is close to point  2 DX=  2.30D-02 DF= -3.17D-07 DXR=  3.70D-02 DFR=  1.37D-03 which will be used.
     Minimum is close to point  2 DX=  5.98D-02 DF= -4.89D-07 DXR=  9.07D-02 DFR=  8.29D-03 which will be used.
     Minimum is close to point  2 DX=  4.84D-04 DF= -5.80D-12 DXR=  4.83D-04 DFR=  2.35D-07 which will be used.
 SCF Done:  E(RwB97XD) =  -346.632746231     a.u. after    8 cycles
            Convg  =    0.1790D-09                    36 Fock formations.
              S**2 =  0.0000                  -V/T =  2.0095

 **********************************************************************

            Population analysis using the SCF Density.

 **********************************************************************

 Orbital symmetries:
       Occupied  (A) (A) (A) (A) (A) (A) (A) (A) (A) (A) (A) (A)
                 (A) (A) (A) (A) (A) (A) (A) (A) (A) (A) (A) (A)
                 (A) (A) (A) (A)
       Virtual   (A) (A) (A) (A) (A) (A) (A) (A) (A) (A) (A) (A)
                 (A) (A) (A) (A) (A) (A) (A) (A) (A) (A) (A) (A)
                 (A) (A) (A) (A) (A) (A) (A) (A) (A) (A) (A) (A)
                 (A) (A) (A) (A) (A) (A) (A) (A) (A) (A) (A) (A)
                 (A) (A) (A) (A) (A) (A) (A) (A) (A) (A) (A) (A)
                 (A) (A) (A) (A) (A) (A) (A) (A) (A) (A) (A) (A)
                 (A) (A) (A) (A) (A) (A) (A) (A) (A) (A) (A) (A)
                 (A) (A) (A) (A) (A) (A)
 The electronic state is 1-A.
 Alpha  occ. eigenvalues --  -19.30410 -19.24085 -10.43123 -10.33446 -10.30546
 Alpha  occ. eigenvalues --  -10.30541 -10.28605  -1.19052  -1.10139  -0.93108
 Alpha  occ. eigenvalues --   -0.80236  -0.78751  -0.74076  -0.69419  -0.59814
 Alpha  occ. eigenvalues --   -0.56024  -0.55718  -0.52667  -0.52325  -0.50421
 Alpha  occ. eigenvalues --   -0.48769  -0.48477  -0.46440  -0.44056  -0.43222
 Alpha  occ. eigenvalues --   -0.42796  -0.40152  -0.35351
 Alpha virt. eigenvalues --    0.08097   0.09672   0.14823   0.17240   0.18294
 Alpha virt. eigenvalues --    0.19483   0.19629   0.22325   0.23478   0.23831
 Alpha virt. eigenvalues --    0.25687   0.26263   0.27727   0.30413   0.30919
 Alpha virt. eigenvalues --    0.39715   0.42940   0.45694   0.46641   0.48585
 Alpha virt. eigenvalues --    0.53102   0.56771   0.63823   0.65044   0.66320
 Alpha virt. eigenvalues --    0.68002   0.69763   0.70261   0.71705   0.74459
 Alpha virt. eigenvalues --    0.74858   0.76823   0.77240   0.78956   0.79396
 Alpha virt. eigenvalues --    0.80703   0.81061   0.82672   0.82726   0.83512
 Alpha virt. eigenvalues --    0.84057   0.87364   0.88483   1.01128   1.03004
 Alpha virt. eigenvalues --    1.05494   1.10474   1.13229   1.18131   1.19040
 Alpha virt. eigenvalues --    1.24270   1.34535   1.42389   1.48311   1.50786
 Alpha virt. eigenvalues --    1.55060   1.67060   1.76436   1.78119   1.82737
 Alpha virt. eigenvalues --    1.85799   1.89104   1.89974   1.92871   2.04893
 Alpha virt. eigenvalues --    2.09520   2.09785   2.10799   2.13914   2.21835
 Alpha virt. eigenvalues --    2.23681   2.24012   2.24180   2.27643   2.33559
 Alpha virt. eigenvalues --    2.54533   2.55824   2.64648   2.65111   2.70171
 Alpha virt. eigenvalues --    2.71186   2.75849   2.80238   3.00051   3.00664
 Alpha virt. eigenvalues --    3.08309   3.25646   3.35450   3.64365   3.69939
          Condensed to atoms (all electrons):
 Mulliken charges:
               1
     1  C   -0.266783
     2  C   -0.386381
     3  C   -0.267335
     4  C   -0.246761
     5  C    0.319452
     6  O   -0.380113
     7  O   -0.229196
     8  H    0.131575
     9  H    0.139528
    10  H    0.098733
    11  H    0.131668
    12  H    0.098661
    13  H    0.139668
    14  H    0.110377
    15  H    0.130211
    16  H    0.130454
    17  H    0.346242
 Sum of Mulliken charges =   0.00000
 Mulliken charges with hydrogens summed into heavy atoms:
               1
     1  C    0.103053
     2  C   -0.386381
     3  C    0.102662
     4  C    0.124282
     5  C    0.319452
     6  O   -0.033870
     7  O   -0.229196
 Electronic spatial extent (au):  <R**2>=            758.5844
 Charge=              0.0000 electrons
 Dipole moment (field-independent basis, Debye):
    X=              3.3024    Y=             -2.9648    Z=              0.0002  Tot=              4.4380
   1 Symmetry operations used in ECPInt.
 ECPInt:  NShTT=    1953 NPrTT=    7871 LenC2=    1947 LenP2D=    6422.
 LDataN:  DoStor=T MaxTD1= 5 Len=  102
 Calling FoFJK, ICntrl=      2127 FMM=F ISym2X=0 I1Cent= 0 IOpClX= 0 NMat=1 NMatS=1 NMatT=0.

 GradGradGradGradGradGradGradGradGradGradGradGradGradGradGradGradGradGrad
 FormGI is forming the generalized inverse of G from B-inverse, IUseBI=4.
 Internal  Forces:  Max     0.045863501 RMS     0.006099212
 Step number   1 out of a maximum of   89
 All quantities printed in internal units (Hartrees-Bohrs-Radians)
 Mixed Optimization -- RFO/linear search
 Second derivative matrix not updated -- first step.
 ITU=  0
     Eigenvalues ---    0.00243   0.00305   0.00307   0.00328   0.00794
     Eigenvalues ---    0.02311   0.04804   0.05122   0.05368   0.05377
     Eigenvalues ---    0.05379   0.05412   0.05443   0.05443   0.05451
     Eigenvalues ---    0.14957   0.15057   0.16000   0.16000   0.16000
     Eigenvalues ---    0.16000   0.16000   0.16000   0.16000   0.16000
     Eigenvalues ---    0.16000   0.16000   0.25000   0.25000   0.28558
     Eigenvalues ---    0.28981   0.28993   0.29141   0.34082   0.34090
     Eigenvalues ---    0.34106   0.34131   0.34138   0.34147   0.34160
     Eigenvalues ---    0.34213   0.34235   0.52557   0.54343   0.94480
 Linear search not attempted -- first point.
 Iteration  1 RMS(Cart)=  0.01932506 RMS(Int)=  0.00028534
 Iteration  2 RMS(Cart)=  0.00028245 RMS(Int)=  0.00007970
 Iteration  3 RMS(Cart)=  0.00000006 RMS(Int)=  0.00007970
 Variable       Old X    -DE/DX   Delta X   Delta X   Delta X     New X
                                 (Linear)    (Quad)   (Total)
    R1        2.90017   0.00284   0.00000   0.00961   0.00961   2.90978
    R2        2.07151   0.00448   0.00000   0.01292   0.01292   2.08443
    R3        2.07082   0.00516   0.00000   0.01487   0.01487   2.08569
    R4        2.06936   0.00707   0.00000   0.02031   0.02031   2.08967
    R5        2.90043   0.00279   0.00000   0.00945   0.00945   2.90988
    R6        2.90934  -0.00335   0.00000  -0.01151  -0.01151   2.89782
    R7        2.89709   0.00062   0.00000   0.00207   0.00207   2.89917
    R8        2.07110   0.00463   0.00000   0.01334   0.01334   2.08444
    R9        2.06972   0.00694   0.00000   0.01995   0.01995   2.08967
   R10        2.07097   0.00512   0.00000   0.01474   0.01474   2.08571
   R11        2.07061   0.00539   0.00000   0.01552   0.01552   2.08613
   R12        2.07178   0.00390   0.00000   0.01125   0.01125   2.08303
   R13        2.07192   0.00383   0.00000   0.01105   0.01105   2.08297
   R14        2.55720  -0.01002   0.00000  -0.01824  -0.01824   2.53896
   R15        2.30934  -0.04586   0.00000  -0.04825  -0.04825   2.26109
   R16        1.84070  -0.00713   0.00000  -0.01342  -0.01342   1.82728
    A1        1.93802  -0.00307   0.00000  -0.02264  -0.02264   1.91538
    A2        1.93916  -0.00027   0.00000   0.00008  -0.00004   1.93913
    A3        1.95454   0.00232   0.00000   0.01637   0.01635   1.97089
    A4        1.88316   0.00122   0.00000   0.00283   0.00274   1.88589
    A5        1.87325   0.00006   0.00000  -0.00278  -0.00269   1.87056
    A6        1.87229  -0.00017   0.00000   0.00659   0.00648   1.87876
    A7        1.92688  -0.00061   0.00000  -0.00212  -0.00259   1.92430
    A8        1.89418   0.00145   0.00000   0.01999   0.01990   1.91409
    A9        1.92466  -0.00073   0.00000  -0.01554  -0.01558   1.90907
   A10        1.89652   0.00105   0.00000   0.01756   0.01746   1.91397
   A11        1.92142  -0.00035   0.00000  -0.01298  -0.01304   1.90837
   A12        1.89953  -0.00076   0.00000  -0.00597  -0.00579   1.89374
   A13        1.93921  -0.00315   0.00000  -0.02344  -0.02344   1.91576
   A14        1.95405   0.00232   0.00000   0.01669   0.01667   1.97072
   A15        1.93895  -0.00023   0.00000   0.00033   0.00021   1.93916
   A16        1.87290   0.00009   0.00000  -0.00265  -0.00255   1.87035
   A17        1.88404   0.00118   0.00000   0.00206   0.00196   1.88600
   A18        1.87124  -0.00012   0.00000   0.00752   0.00739   1.87863
   A19        1.94405  -0.00407   0.00000  -0.02470  -0.02475   1.91930
   A20        1.94147  -0.00028   0.00000  -0.00174  -0.00176   1.93971
   A21        1.94072  -0.00027   0.00000  -0.00148  -0.00151   1.93921
   A22        1.88113   0.00229   0.00000   0.01350   0.01344   1.89457
   A23        1.88068   0.00232   0.00000   0.01403   0.01399   1.89467
   A24        1.87265   0.00033   0.00000   0.00225   0.00225   1.87490
   A25        1.99837   0.00923   0.00000   0.03609   0.03609   2.03446
   A26        2.17430   0.00041   0.00000   0.00161   0.00161   2.17591
   A27        2.11051  -0.00964   0.00000  -0.03770  -0.03770   2.07281
   A28        2.00658  -0.01191   0.00000  -0.07189  -0.07189   1.93469
    D1       -1.05897  -0.00117   0.00000  -0.02656  -0.02649  -1.08546
    D2        1.01788   0.00064   0.00000   0.00580   0.00587   1.02375
    D3        3.09709   0.00017   0.00000   0.00156   0.00156   3.09865
    D4        3.12819  -0.00048   0.00000  -0.01505  -0.01502   3.11317
    D5       -1.07815   0.00133   0.00000   0.01732   0.01734  -1.06080
    D6        1.00106   0.00086   0.00000   0.01307   0.01302   1.01409
    D7        1.03483  -0.00164   0.00000  -0.03459  -0.03462   1.00021
    D8        3.11168   0.00017   0.00000  -0.00223  -0.00226   3.10942
    D9       -1.09230  -0.00030   0.00000  -0.00647  -0.00657  -1.09887
   D10        1.06038   0.00135   0.00000   0.02834   0.02826   1.08864
   D11       -1.03347   0.00183   0.00000   0.03653   0.03656  -0.99691
   D12       -3.12501   0.00058   0.00000   0.01545   0.01542  -3.10960
   D13       -1.01505  -0.00070   0.00000  -0.00553  -0.00558  -1.02064
   D14       -3.10890  -0.00022   0.00000   0.00266   0.00271  -3.10619
   D15        1.08274  -0.00148   0.00000  -0.01842  -0.01843   1.06431
   D16       -3.09377  -0.00021   0.00000  -0.00125  -0.00127  -3.09504
   D17        1.09557   0.00027   0.00000   0.00694   0.00702   1.10259
   D18       -0.99598  -0.00099   0.00000  -0.01414  -0.01412  -1.01009
   D19       -1.04213  -0.00043   0.00000  -0.01215  -0.01226  -1.05439
   D20       -3.14121  -0.00039   0.00000  -0.01136  -0.01149   3.13048
   D21        1.05587  -0.00043   0.00000  -0.01206  -0.01215   1.04371
   D22        1.05373   0.00029   0.00000   0.00721   0.00732   1.06105
   D23       -1.04535   0.00034   0.00000   0.00800   0.00809  -1.03726
   D24       -3.13146   0.00030   0.00000   0.00730   0.00743  -3.12403
   D25       -3.13707   0.00004   0.00000  -0.00165  -0.00166  -3.13872
   D26        1.04704   0.00009   0.00000  -0.00086  -0.00088   1.04616
   D27       -1.03907   0.00005   0.00000  -0.00156  -0.00155  -1.04061
   D28        1.06589  -0.00080   0.00000  -0.01259  -0.01257   1.05332
   D29       -2.07594  -0.00080   0.00000  -0.01262  -0.01260  -2.08854
   D30       -1.06446   0.00069   0.00000   0.00901   0.00899  -1.05547
   D31        2.07689   0.00069   0.00000   0.00898   0.00896   2.08585
   D32       -3.14134   0.00007   0.00000  -0.00107  -0.00106   3.14079
   D33        0.00001   0.00007   0.00000  -0.00110  -0.00109  -0.00108
   D34        0.00020  -0.00001   0.00000  -0.00043  -0.00043  -0.00023
   D35       -3.14116  -0.00001   0.00000  -0.00041  -0.00041  -3.14157
         Item               Value     Threshold  Converged?
 Maximum Force            0.045864     0.000015     NO 
 RMS     Force            0.006099     0.000010     NO 
 Maximum Displacement     0.091260     0.000060     NO 
 RMS     Displacement     0.019398     0.000040     NO 
 GradGradGradGradGradGradGradGradGradGradGradGradGradGradGradGradGradGrad

                    Distance matrix (angstroms):
                    1          2          3          4          5
     1  C    0.000000
     2  C    1.539790   0.000000
     3  C    2.526595   1.539841   0.000000
     4  C    2.512361   1.533463   2.512302   0.000000
     5  C    2.508495   1.534173   2.507917   2.489664   0.000000
     6  O    2.971285   2.450009   2.971616   3.731909   1.343559
     7  O    3.452990   2.423592   3.451458   2.742079   1.196517
     8  H    1.103032   2.176035   2.783124   2.738829   3.469636
     9  H    1.103699   2.193836   3.496157   2.777137   2.750340
    10  H    1.105805   2.218148   2.793336   3.499374   2.817841
    11  H    2.784984   2.176363   1.103039   2.737630   3.469330
    12  H    2.791738   2.218073   1.105806   3.499218   2.818715
    13  H    3.496126   2.193913   1.103712   2.778729   2.747799
    14  H    2.755347   2.174019   2.758419   1.103934   3.458238
    15  H    3.484160   2.187607   2.764281   1.102291   2.742466
    16  H    2.766930   2.187223   3.483843   1.102259   2.739407
    17  H    2.643535   2.419639   2.645031   3.900387   1.914399
                    6          7          8          9         10
     6  O    0.000000
     7  O    2.187219   0.000000
     8  H    3.997908   4.370368   0.000000
     9  H    3.287496   3.423716   1.785892   0.000000
    10  H    2.750010   3.907384   1.777597   1.783496   0.000000
    11  H    3.999037   4.368612   2.586198   3.802170   3.147334
    12  H    2.752059   3.907686   3.142395   3.809835   2.602499
    13  H    3.285301   3.419791   3.801511   4.355602   3.810180
    14  H    4.591532   3.837544   2.519227   3.130706   3.772796
    15  H    4.014350   2.698738   3.760248   3.790345   4.368124
    16  H    4.011423   2.694688   3.092896   2.574370   3.802470
    17  H    0.966953   2.989249   3.570823   3.186941   2.142381
                   11         12         13         14         15
    11  H    0.000000
    12  H    1.777462   0.000000
    13  H    1.785975   1.783421   0.000000
    14  H    2.521454   3.774208   3.137913   0.000000
    15  H    3.086426   3.801228   2.573325   1.791090   0.000000
    16  H    3.760819   4.367697   3.789751   1.791125   1.776983
    17  H    3.573490   2.145332   3.186398   4.578651   4.318070
                   16         17
    16  H    0.000000
    17  H    4.315953   0.000000
 Framework group  C1[X(C5H10O2)]
 Deg. of freedom    45
                         Standard orientation:                         
 ---------------------------------------------------------------------
 Center     Atomic      Atomic             Coordinates (Angstroms)
 Number     Number       Type             X           Y           Z
 ---------------------------------------------------------------------
      1          6           0        0.967598   -0.785788   -1.262192
      2          6           0        0.551424   -0.008092   -0.000075
      3          6           0        0.966548   -0.782612    1.264401
      4          6           0        1.218145    1.372846   -0.001444
      5          6           0       -0.970422    0.186001   -0.000347
      6          8           0       -1.718505   -0.930029   -0.000218
      7          8           0       -1.521103    1.248264   -0.000393
      8          1           0        2.065300   -0.890371   -1.290382
      9          1           0        0.650796   -0.256667   -2.177517
     10          1           0        0.541357   -1.805444   -1.299923
     11          1           0        2.064422   -0.884490    1.295809
     12          1           0        0.542890   -1.803330    1.302575
     13          1           0        0.645784   -0.253010    2.178081
     14          1           0        2.316417    1.261216   -0.004257
     15          1           0        0.927154    1.955611    0.887800
     16          1           0        0.922502    1.955512   -0.889177
     17          1           0       -1.159519   -1.719036   -0.000171
 ---------------------------------------------------------------------
 Rotational constants (GHZ):           3.2986403           2.3679585           1.9884348
   118 basis functions,   215 primitive gaussians,   125 cartesian basis functions
    28 alpha electrons       28 beta electrons
       nuclear repulsion energy       329.3036391869 Hartrees.
 NAtoms=   17 NActive=   17 NUniq=   17 SFac= 1.00D+00 NAtFMM=   60 NAOKFM=F Big=F
 Nuclear repulsion after empirical dispersion term =      329.2931429311 Hartrees.
   1 Symmetry operations used in ECPInt.
 ECPInt:  NShTT=    1953 NPrTT=    7871 LenC2=    1947 LenP2D=    6419.
 LDataN:  DoStor=T MaxTD1= 4 Len=   56
 Initial guess from the checkpoint file:  "/scratch/user/peterchao1/peterchao1/6097796_1659647584000000562887262/Gau-202453.chk"
 B after Tr=    -0.000000    0.000000    0.000000
         Rot=    0.999996    0.001261   -0.000778    0.002290 Ang=   0.31 deg.
 ExpMin= 1.22D-01 ExpMax= 2.27D+03 ExpMxC= 3.41D+02 IAcc=3 IRadAn=         5 AccDes= 0.00D+00
 Harris functional with IExCor= 4639 and IRadAn=       5 diagonalized for initial guess.
 HarFok:  IExCor= 4639 AccDes= 0.00D+00 IRadAn=         5 IDoV= 1 UseB2=F ITyADJ=14
 ICtDFT=  3500011 ScaDFX=  1.000000  1.000000  1.000000  1.000000
 FoFCou: FMM=F IPFlag=           0 FMFlag=      100000 FMFlg1=           0
         NFxFlg=           0 DoJE=T BraDBF=F KetDBF=T FulRan=T
         wScrn=  0.000000 ICntrl=       500 IOpCl=  0 I1Cent=   200000004 NGrid=           0
         NMat0=    1 NMatS0=      1 NMatT0=    0 NMatD0=    1 NMtDS0=    0 NMtDT0=    0
 Petite list used in FoFCou.
     Accept linear search using points  3 and  4.
     Accept linear search using points  2 and  3.
     Accept linear search using points  1 and  2.
     Minimum is close to point  2 DX= -1.02D-03 DF= -4.90D-11 DXR=  1.02D-03 DFR=  1.04D-06 which will be used.
 SCF Done:  E(RwB97XD) =  -346.635283007     a.u. after    6 cycles
            Convg  =    0.9953D-09                    35 Fock formations.
              S**2 =  0.0000                  -V/T =  2.0093
   1 Symmetry operations used in ECPInt.
 ECPInt:  NShTT=    1953 NPrTT=    7871 LenC2=    1947 LenP2D=    6419.
 LDataN:  DoStor=T MaxTD1= 5 Len=  102
 Calling FoFJK, ICntrl=      2127 FMM=F ISym2X=0 I1Cent= 0 IOpClX= 0 NMat=1 NMatS=1 NMatT=0.

 GradGradGradGradGradGradGradGradGradGradGradGradGradGradGradGradGradGrad
 Using GEDIIS/GDIIS optimizer.
 FormGI is forming the generalized inverse of G from B-inverse, IUseBI=4.
 Internal  Forces:  Max     0.005885811 RMS     0.001136384
 Step number   2 out of a maximum of   89
 All quantities printed in internal units (Hartrees-Bohrs-Radians)
 Mixed Optimization -- RFO/linear search
 Trust test= 8.74D-01 RLast= 1.54D-01 DXMaxT set to 4.63D-01
 ITU=  1  0
 Use linear search instead of GDIIS.
     Eigenvalues ---    0.00243   0.00305   0.00307   0.00328   0.00778
     Eigenvalues ---    0.02311   0.04644   0.05250   0.05282   0.05283
     Eigenvalues ---    0.05452   0.05452   0.05526   0.05580   0.05585
     Eigenvalues ---    0.15019   0.15044   0.15850   0.16000   0.16000
     Eigenvalues ---    0.16000   0.16000   0.16000   0.16000   0.16000
     Eigenvalues ---    0.16000   0.16556   0.24919   0.27621   0.28289
     Eigenvalues ---    0.28940   0.28987   0.29249   0.33898   0.34085
     Eigenvalues ---    0.34106   0.34119   0.34142   0.34155   0.34170
     Eigenvalues ---    0.34224   0.34464   0.52616   0.56717   0.93399
 Quartic linear search produced a step of -0.10586.
 Iteration  1 RMS(Cart)=  0.00748797 RMS(Int)=  0.00003664
 Iteration  2 RMS(Cart)=  0.00004298 RMS(Int)=  0.00000781
 Iteration  3 RMS(Cart)=  0.00000000 RMS(Int)=  0.00000781
 Variable       Old X    -DE/DX   Delta X   Delta X   Delta X     New X
                                 (Linear)    (Quad)   (Total)
    R1        2.90978   0.00016  -0.00102   0.00190   0.00088   2.91066
    R2        2.08443   0.00042  -0.00137   0.00298   0.00161   2.08604
    R3        2.08569  -0.00015  -0.00157   0.00176   0.00018   2.08587
    R4        2.08967  -0.00035  -0.00215   0.00203  -0.00012   2.08955
    R5        2.90988   0.00015  -0.00100   0.00185   0.00085   2.91073
    R6        2.89782  -0.00161   0.00122  -0.00670  -0.00548   2.89234
    R7        2.89917   0.00165  -0.00022   0.00535   0.00513   2.90429
    R8        2.08444   0.00042  -0.00141   0.00303   0.00162   2.08606
    R9        2.08967  -0.00034  -0.00211   0.00200  -0.00011   2.08956
   R10        2.08571  -0.00016  -0.00156   0.00171   0.00015   2.08586
   R11        2.08613   0.00005  -0.00164   0.00238   0.00073   2.08687
   R12        2.08303  -0.00035  -0.00119   0.00072  -0.00047   2.08256
   R13        2.08297  -0.00033  -0.00117   0.00074  -0.00043   2.08254
   R14        2.53896   0.00589   0.00193   0.00707   0.00900   2.54796
   R15        2.26109   0.00180   0.00511  -0.00512  -0.00002   2.26107
   R16        1.82728   0.00139   0.00142   0.00044   0.00186   1.82914
    A1        1.91538   0.00029   0.00240  -0.00235   0.00005   1.91543
    A2        1.93913  -0.00014   0.00000  -0.00021  -0.00019   1.93894
    A3        1.97089  -0.00027  -0.00173   0.00091  -0.00082   1.97007
    A4        1.88589  -0.00004  -0.00029   0.00031   0.00003   1.88593
    A5        1.87056  -0.00012   0.00028  -0.00217  -0.00190   1.86866
    A6        1.87876   0.00030  -0.00069   0.00351   0.00284   1.88160
    A7        1.92430  -0.00027   0.00027  -0.00232  -0.00201   1.92229
    A8        1.91409   0.00013  -0.00211   0.00455   0.00246   1.91654
    A9        1.90907   0.00006   0.00165  -0.00291  -0.00126   1.90781
   A10        1.91397   0.00015  -0.00185   0.00437   0.00254   1.91651
   A11        1.90837   0.00006   0.00138  -0.00243  -0.00104   1.90733
   A12        1.89374  -0.00014   0.00061  -0.00128  -0.00069   1.89305
   A13        1.91576   0.00024   0.00248  -0.00282  -0.00033   1.91543
   A14        1.97072  -0.00027  -0.00176   0.00103  -0.00073   1.96999
   A15        1.93916  -0.00014  -0.00002  -0.00017  -0.00018   1.93898
   A16        1.87035  -0.00009   0.00027  -0.00195  -0.00170   1.86865
   A17        1.88600  -0.00003  -0.00021   0.00008  -0.00012   1.88588
   A18        1.87863   0.00031  -0.00078   0.00384   0.00307   1.88170
   A19        1.91930  -0.00012   0.00262  -0.00405  -0.00143   1.91787
   A20        1.93971  -0.00031   0.00019  -0.00223  -0.00205   1.93766
   A21        1.93921  -0.00024   0.00016  -0.00172  -0.00156   1.93766
   A22        1.89457   0.00025  -0.00142   0.00371   0.00229   1.89686
   A23        1.89467   0.00023  -0.00148   0.00380   0.00232   1.89699
   A24        1.87490   0.00021  -0.00024   0.00089   0.00065   1.87555
   A25        2.03446  -0.00373  -0.00382  -0.00802  -0.01184   2.02262
   A26        2.17591  -0.00188  -0.00017  -0.00649  -0.00666   2.16925
   A27        2.07281   0.00561   0.00399   0.01451   0.01850   2.09131
   A28        1.93469   0.00241   0.00761   0.00258   0.01019   1.94488
    D1       -1.08546  -0.00002   0.00280  -0.01696  -0.01417  -1.09962
    D2        1.02375   0.00008  -0.00062  -0.01008  -0.01071   1.01304
    D3        3.09865   0.00003  -0.00016  -0.01068  -0.01084   3.08780
    D4        3.11317  -0.00007   0.00159  -0.01571  -0.01412   3.09905
    D5       -1.06080   0.00003  -0.00184  -0.00883  -0.01067  -1.07147
    D6        1.01409  -0.00002  -0.00138  -0.00942  -0.01079   1.00330
    D7        1.00021  -0.00016   0.00366  -0.02074  -0.01707   0.98314
    D8        3.10942  -0.00006   0.00024  -0.01386  -0.01362   3.09580
    D9       -1.09887  -0.00011   0.00070  -0.01446  -0.01375  -1.11262
   D10        1.08864   0.00002  -0.00299   0.01584   0.01286   1.10150
   D11       -0.99691   0.00015  -0.00387   0.01958   0.01571  -0.98120
   D12       -3.10960   0.00005  -0.00163   0.01401   0.01238  -3.09722
   D13       -1.02064  -0.00007   0.00059   0.00886   0.00946  -1.01118
   D14       -3.10619   0.00006  -0.00029   0.01260   0.01231  -3.09388
   D15        1.06431  -0.00004   0.00195   0.00702   0.00898   1.07329
   D16       -3.09504  -0.00003   0.00013   0.00927   0.00940  -3.08564
   D17        1.10259   0.00011  -0.00074   0.01301   0.01225   1.11485
   D18       -1.01009  -0.00000   0.00149   0.00743   0.00892  -1.00117
   D19       -1.05439   0.00006   0.00130  -0.00626  -0.00495  -1.05935
   D20        3.13048   0.00002   0.00122  -0.00678  -0.00556   3.12493
   D21        1.04371   0.00012   0.00129  -0.00528  -0.00399   1.03972
   D22        1.06105  -0.00009  -0.00077  -0.00347  -0.00426   1.05679
   D23       -1.03726  -0.00013  -0.00086  -0.00400  -0.00486  -1.04212
   D24       -3.12403  -0.00004  -0.00079  -0.00250  -0.00330  -3.12732
   D25       -3.13872  -0.00001   0.00018  -0.00462  -0.00445   3.14002
   D26        1.04616  -0.00005   0.00009  -0.00515  -0.00505   1.04110
   D27       -1.04061   0.00005   0.00016  -0.00365  -0.00348  -1.04410
   D28        1.05332  -0.00012   0.00133  -0.00255  -0.00123   1.05209
   D29       -2.08854  -0.00012   0.00133  -0.00308  -0.00174  -2.09029
   D30       -1.05547   0.00014  -0.00095   0.00361   0.00266  -1.05282
   D31        2.08585   0.00013  -0.00095   0.00308   0.00214   2.08798
   D32        3.14079   0.00000   0.00011   0.00049   0.00060   3.14139
   D33       -0.00108  -0.00000   0.00012  -0.00003   0.00008  -0.00100
   D34       -0.00023   0.00000   0.00005  -0.00021  -0.00017  -0.00040
   D35       -3.14157   0.00001   0.00004   0.00029   0.00033  -3.14124
         Item               Value     Threshold  Converged?
 Maximum Force            0.005886     0.000015     NO 
 RMS     Force            0.001136     0.000010     NO 
 Maximum Displacement     0.024896     0.000060     NO 
 RMS     Displacement     0.007493     0.000040     NO 
 GradGradGradGradGradGradGradGradGradGradGradGradGradGradGradGradGradGrad

                    Distance matrix (angstroms):
                    1          2          3          4          5
     1  C    0.000000
     2  C    1.540255   0.000000
     3  C    2.525578   1.540292   0.000000
     4  C    2.512542   1.530560   2.512544   0.000000
     5  C    2.509965   1.536886   2.509570   2.488898   0.000000
     6  O    2.962896   2.447342   2.962744   3.730263   1.348324
     7  O    3.452086   2.421900   3.450870   2.735208   1.196509
     8  H    1.103886   2.177116   2.788819   2.735593   3.472176
     9  H    1.103795   2.194182   3.495391   2.783312   2.745889
    10  H    1.105740   2.217930   2.783470   3.498081   2.824267
    11  H    2.789731   2.177155   1.103897   2.734733   3.471850
    12  H    2.782560   2.217913   1.105748   3.498023   2.824762
    13  H    3.495365   2.194241   1.103792   2.784195   2.744443
    14  H    2.757050   2.170715   2.755823   1.104323   3.457946
    15  H    3.482971   2.183381   2.765180   1.102042   2.736522
    16  H    2.764065   2.183366   3.482985   1.102030   2.737926
    17  H    2.637749   2.421429   2.638300   3.901116   1.925797
                    6          7          8          9         10
     6  O    0.000000
     7  O    2.203242   0.000000
     8  H    3.992466   4.367162   0.000000
     9  H    3.273673   3.418602   1.786682   0.000000
    10  H    2.744041   3.914633   1.776984   1.785371   0.000000
    11  H    3.992818   4.365755   2.598012   3.808934   3.142600
    12  H    2.744896   3.914551   3.139836   3.799261   2.582578
    13  H    3.272046   3.415867   3.808664   4.355165   3.799480
    14  H    4.587366   3.831225   2.517041   3.142542   3.769459
    15  H    4.010633   2.685310   3.758723   3.792925   4.364742
    16  H    4.011593   2.688340   3.083113   2.578026   3.802181
    17  H    0.967938   3.006076   3.568576   3.176183   2.135322
                   11         12         13         14         15
    11  H    0.000000
    12  H    1.776993   0.000000
    13  H    1.786656   1.785440   0.000000
    14  H    2.514740   3.768011   3.141997   0.000000
    15  H    3.083490   3.803442   2.580219   1.792675   0.000000
    16  H    3.757517   4.364671   3.794191   1.792750   1.777019
    17  H    3.569869   2.136674   3.175587   4.575806   4.317465
                   16         17
    16  H    0.000000
    17  H    4.317626   0.000000
 Framework group  C1[X(C5H10O2)]
 Deg. of freedom    45
                         Standard orientation:                         
 ---------------------------------------------------------------------
 Center     Atomic      Atomic             Coordinates (Angstroms)
 Number     Number       Type             X           Y           Z
 ---------------------------------------------------------------------
      1          6           0        0.965102   -0.785156   -1.262023
      2          6           0        0.550750   -0.005333   -0.000051
      3          6           0        0.963910   -0.783214    1.263554
      4          6           0        1.215280    1.373440   -0.000778
      5          6           0       -0.973785    0.189121   -0.000506
      6          8           0       -1.711217   -0.939671   -0.000200
      7          8           0       -1.517364    1.255026   -0.000313
      8          1           0        2.064266   -0.880917   -1.297146
      9          1           0        0.637821   -0.262324   -2.177391
     10          1           0        0.549068   -1.809250   -1.290435
     11          1           0        2.063162   -0.877247    1.300863
     12          1           0        0.549407   -1.807934    1.292142
     13          1           0        0.634139   -0.259943    2.177772
     14          1           0        2.313856    1.260946    0.001170
     15          1           0        0.918488    1.955765    0.886526
     16          1           0        0.921268    1.953474   -0.890490
     17          1           0       -1.150367   -1.728563   -0.000083
 ---------------------------------------------------------------------
 Rotational constants (GHZ):           3.2864270           2.3773475           1.9897328
   118 basis functions,   215 primitive gaussians,   125 cartesian basis functions
    28 alpha electrons       28 beta electrons
       nuclear repulsion energy       329.2400271665 Hartrees.
 NAtoms=   17 NActive=   17 NUniq=   17 SFac= 1.00D+00 NAtFMM=   60 NAOKFM=F Big=F
 Nuclear repulsion after empirical dispersion term =      329.2295314211 Hartrees.
   1 Symmetry operations used in ECPInt.
 ECPInt:  NShTT=    1953 NPrTT=    7871 LenC2=    1947 LenP2D=    6423.
 LDataN:  DoStor=T MaxTD1= 4 Len=   56
 Initial guess from the checkpoint file:  "/scratch/user/peterchao1/peterchao1/6097796_1659647584000000562887262/Gau-202453.chk"
 B after Tr=     0.000000   -0.000000   -0.000000
         Rot=    1.000000   -0.000147    0.000053   -0.000518 Ang=  -0.06 deg.
 ExpMin= 1.22D-01 ExpMax= 2.27D+03 ExpMxC= 3.41D+02 IAcc=3 IRadAn=         5 AccDes= 0.00D+00
 Harris functional with IExCor= 4639 and IRadAn=       5 diagonalized for initial guess.
 HarFok:  IExCor= 4639 AccDes= 0.00D+00 IRadAn=         5 IDoV= 1 UseB2=F ITyADJ=14
 ICtDFT=  3500011 ScaDFX=  1.000000  1.000000  1.000000  1.000000
 FoFCou: FMM=F IPFlag=           0 FMFlag=      100000 FMFlg1=           0
         NFxFlg=           0 DoJE=T BraDBF=F KetDBF=T FulRan=T
         wScrn=  0.000000 ICntrl=       500 IOpCl=  0 I1Cent=   200000004 NGrid=           0
         NMat0=    1 NMatS0=      1 NMatT0=    0 NMatD0=    1 NMtDS0=    0 NMtDT0=    0
 Petite list used in FoFCou.
     Accept linear search using points  3 and  4.
     Accept linear search using points  1 and  2.
     Minimum is close to point  2 DX= -9.08D-05 DF= -3.41D-13 DXR=  9.08D-05 DFR=  7.92D-09 which will be used.
 SCF Done:  E(RwB97XD) =  -346.635411221     a.u. after    4 cycles
            Convg  =    0.3124D-09                    28 Fock formations.
              S**2 =  0.0000                  -V/T =  2.0094
   1 Symmetry operations used in ECPInt.
 ECPInt:  NShTT=    1953 NPrTT=    7871 LenC2=    1947 LenP2D=    6423.
 LDataN:  DoStor=T MaxTD1= 5 Len=  102
 Calling FoFJK, ICntrl=      2127 FMM=F ISym2X=0 I1Cent= 0 IOpClX= 0 NMat=1 NMatS=1 NMatT=0.

 GradGradGradGradGradGradGradGradGradGradGradGradGradGradGradGradGradGrad
 Using GEDIIS/GDIIS optimizer.
 FormGI is forming the generalized inverse of G from B-inverse, IUseBI=4.
 Internal  Forces:  Max     0.001367571 RMS     0.000240907
 Step number   3 out of a maximum of   89
 All quantities printed in internal units (Hartrees-Bohrs-Radians)
 Mixed Optimization -- En-DIIS/RFO-DIIS
 Trust test= 9.25D-01 RLast= 6.15D-02 DXMaxT set to 4.63D-01
 ITU=  1  1  0
 Use linear search instead of GDIIS.
     Eigenvalues ---    0.00243   0.00303   0.00306   0.00328   0.00789
     Eigenvalues ---    0.02311   0.04708   0.05209   0.05284   0.05298
     Eigenvalues ---    0.05444   0.05471   0.05540   0.05587   0.05590
     Eigenvalues ---    0.15031   0.15067   0.15873   0.16000   0.16000
     Eigenvalues ---    0.16000   0.16000   0.16000   0.16000   0.16000
     Eigenvalues ---    0.16121   0.16679   0.24793   0.26185   0.28422
     Eigenvalues ---    0.28985   0.29004   0.33254   0.34070   0.34086
     Eigenvalues ---    0.34103   0.34121   0.34142   0.34156   0.34169
     Eigenvalues ---    0.34226   0.34642   0.52473   0.55111   0.93934
 Quartic linear search produced a step of -0.06637.
 Iteration  1 RMS(Cart)=  0.00221316 RMS(Int)=  0.00000208
 Iteration  2 RMS(Cart)=  0.00000228 RMS(Int)=  0.00000087
 Iteration  3 RMS(Cart)=  0.00000000 RMS(Int)=  0.00000087
 Variable       Old X    -DE/DX   Delta X   Delta X   Delta X     New X
                                 (Linear)    (Quad)   (Total)
    R1        2.91066   0.00003  -0.00006   0.00021   0.00015   2.91081
    R2        2.08604  -0.00007  -0.00011   0.00001  -0.00009   2.08595
    R3        2.08587  -0.00022  -0.00001  -0.00057  -0.00058   2.08529
    R4        2.08955  -0.00037   0.00001  -0.00102  -0.00101   2.08854
    R5        2.91073   0.00003  -0.00006   0.00021   0.00016   2.91088
    R6        2.89234  -0.00001   0.00036  -0.00072  -0.00035   2.89199
    R7        2.90429   0.00137  -0.00034   0.00499   0.00465   2.90894
    R8        2.08606  -0.00008  -0.00011  -0.00001  -0.00012   2.08595
    R9        2.08956  -0.00038   0.00001  -0.00103  -0.00103   2.08853
   R10        2.08586  -0.00022  -0.00001  -0.00056  -0.00057   2.08529
   R11        2.08687  -0.00021  -0.00005  -0.00048  -0.00053   2.08633
   R12        2.08256  -0.00019   0.00003  -0.00059  -0.00055   2.08200
   R13        2.08254  -0.00018   0.00003  -0.00054  -0.00051   2.08203
   R14        2.54796   0.00039  -0.00060   0.00179   0.00119   2.54916
   R15        2.26107  -0.00039   0.00000  -0.00041  -0.00041   2.26066
   R16        1.82914  -0.00018  -0.00012  -0.00009  -0.00021   1.82892
    A1        1.91543   0.00019  -0.00000   0.00112   0.00112   1.91655
    A2        1.93894   0.00003   0.00001   0.00025   0.00027   1.93920
    A3        1.97007  -0.00014   0.00005  -0.00101  -0.00096   1.96911
    A4        1.88593  -0.00010  -0.00000  -0.00037  -0.00037   1.88556
    A5        1.86866  -0.00006   0.00013  -0.00076  -0.00064   1.86802
    A6        1.88160   0.00006  -0.00019   0.00074   0.00055   1.88215
    A7        1.92229   0.00002   0.00013  -0.00080  -0.00067   1.92162
    A8        1.91654  -0.00010  -0.00016  -0.00120  -0.00137   1.91517
    A9        1.90781   0.00003   0.00008   0.00092   0.00101   1.90882
   A10        1.91651  -0.00010  -0.00017  -0.00113  -0.00130   1.91521
   A11        1.90733   0.00004   0.00007   0.00104   0.00111   1.90844
   A12        1.89305   0.00010   0.00005   0.00122   0.00127   1.89432
   A13        1.91543   0.00019   0.00002   0.00108   0.00110   1.91653
   A14        1.96999  -0.00014   0.00005  -0.00099  -0.00095   1.96904
   A15        1.93898   0.00003   0.00001   0.00022   0.00024   1.93921
   A16        1.86865  -0.00005   0.00011  -0.00071  -0.00060   1.86805
   A17        1.88588  -0.00009   0.00001  -0.00035  -0.00034   1.88553
   A18        1.88170   0.00006  -0.00020   0.00073   0.00052   1.88222
   A19        1.91787   0.00027   0.00009   0.00144   0.00154   1.91941
   A20        1.93766   0.00001   0.00014  -0.00022  -0.00009   1.93758
   A21        1.93766   0.00002   0.00010  -0.00014  -0.00003   1.93762
   A22        1.89686  -0.00013  -0.00015  -0.00036  -0.00051   1.89635
   A23        1.89699  -0.00015  -0.00015  -0.00051  -0.00066   1.89633
   A24        1.87555  -0.00003  -0.00004  -0.00027  -0.00032   1.87523
   A25        2.02262   0.00011   0.00079  -0.00108  -0.00030   2.02232
   A26        2.16925   0.00075   0.00044   0.00194   0.00238   2.17163
   A27        2.09131  -0.00086  -0.00123  -0.00085  -0.00208   2.08923
   A28        1.94488  -0.00038  -0.00068  -0.00090  -0.00157   1.94330
    D1       -1.09962   0.00010   0.00094  -0.00009   0.00085  -1.09877
    D2        1.01304  -0.00007   0.00071  -0.00279  -0.00208   1.01096
    D3        3.08780   0.00002   0.00072  -0.00146  -0.00074   3.08707
    D4        3.09905   0.00007   0.00094  -0.00052   0.00042   3.09948
    D5       -1.07147  -0.00009   0.00071  -0.00321  -0.00251  -1.07398
    D6        1.00330  -0.00001   0.00072  -0.00188  -0.00117   1.00213
    D7        0.98314   0.00007   0.00113  -0.00094   0.00019   0.98333
    D8        3.09580  -0.00010   0.00090  -0.00364  -0.00274   3.09306
    D9       -1.11262  -0.00001   0.00091  -0.00231  -0.00140  -1.11402
   D10        1.10150  -0.00010  -0.00085  -0.00191  -0.00276   1.09873
   D11       -0.98120  -0.00008  -0.00104  -0.00111  -0.00215  -0.98335
   D12       -3.09722  -0.00008  -0.00082  -0.00151  -0.00233  -3.09955
   D13       -1.01118   0.00007  -0.00063   0.00083   0.00020  -1.01098
   D14       -3.09388   0.00009  -0.00082   0.00163   0.00081  -3.09306
   D15        1.07329   0.00009  -0.00060   0.00123   0.00063   1.07392
   D16       -3.08564  -0.00003  -0.00062  -0.00062  -0.00124  -3.08688
   D17        1.11485  -0.00000  -0.00081   0.00018  -0.00063   1.11422
   D18       -1.00117  -0.00000  -0.00059  -0.00021  -0.00081  -1.00198
   D19       -1.05935   0.00006   0.00033   0.00300   0.00333  -1.05601
   D20        3.12493   0.00004   0.00037   0.00265   0.00302   3.12794
   D21        1.03972   0.00006   0.00026   0.00323   0.00349   1.04322
   D22        1.05679  -0.00004   0.00028   0.00051   0.00080   1.05759
   D23       -1.04212  -0.00006   0.00032   0.00016   0.00048  -1.04164
   D24       -3.12732  -0.00004   0.00022   0.00074   0.00096  -3.12637
   D25        3.14002   0.00001   0.00030   0.00185   0.00215  -3.14102
   D26        1.04110  -0.00000   0.00034   0.00149   0.00183   1.04293
   D27       -1.04410   0.00002   0.00023   0.00207   0.00231  -1.04179
   D28        1.05209   0.00002   0.00008  -0.00132  -0.00124   1.05086
   D29       -2.09029   0.00005   0.00012   0.00219   0.00231  -2.08798
   D30       -1.05282  -0.00005  -0.00018  -0.00154  -0.00172  -1.05454
   D31        2.08798  -0.00002  -0.00014   0.00197   0.00183   2.08981
   D32        3.14139  -0.00002  -0.00004  -0.00151  -0.00155   3.13984
   D33       -0.00100   0.00001  -0.00001   0.00200   0.00200   0.00100
   D34       -0.00040   0.00001   0.00001   0.00157   0.00157   0.00118
   D35       -3.14124  -0.00002  -0.00002  -0.00178  -0.00180   3.14015
         Item               Value     Threshold  Converged?
 Maximum Force            0.001368     0.000015     NO 
 RMS     Force            0.000241     0.000010     NO 
 Maximum Displacement     0.011074     0.000060     NO 
 RMS     Displacement     0.002213     0.000040     NO 
 GradGradGradGradGradGradGradGradGradGradGradGradGradGradGradGradGradGrad

                    Distance matrix (angstroms):
                    1          2          3          4          5
     1  C    0.000000
     2  C    1.540336   0.000000
     3  C    2.525119   1.540374   0.000000
     4  C    2.511248   1.530374   2.511309   0.000000
     5  C    2.512937   1.539347   2.512634   2.491887   0.000000
     6  O    2.965693   2.449772   2.967188   3.733139   1.348956
     7  O    3.454999   2.425456   3.455367   2.741761   1.196292
     8  H    1.103836   2.177971   2.788747   2.734038   3.475566
     9  H    1.103489   2.194214   3.494935   2.783041   2.748158
    10  H    1.105205   2.216914   2.781846   3.496115   2.826587
    11  H    2.788720   2.177989   1.103835   2.734101   3.475336
    12  H    2.781809   2.216899   1.105205   3.496135   2.826249
    13  H    3.494934   2.194255   1.103489   2.783096   2.747709
    14  H    2.755067   2.171464   2.755876   1.104040   3.461307
    15  H    3.481741   2.182934   2.763202   1.101749   2.739938
    16  H    2.763918   2.182974   3.481817   1.101761   2.739440
    17  H    2.638904   2.421655   2.640921   3.901391   1.925276
                    6          7          8          9         10
     6  O    0.000000
     7  O    2.202290   0.000000
     8  H    3.995754   4.370870   0.000000
     9  H    3.275040   3.420903   1.786153   0.000000
    10  H    2.746800   3.916511   1.776095   1.785052   0.000000
    11  H    3.996883   4.371171   2.597335   3.808106   3.139738
    12  H    2.748380   3.916784   3.139757   3.798166   2.580902
    13  H    3.277427   3.421563   3.808111   4.354994   3.798228
    14  H    4.590637   3.837527   2.514591   3.140926   3.766675
    15  H    4.014561   2.694071   3.756675   3.793044   4.362902
    16  H    4.013252   2.692539   3.082833   2.579133   3.801668
    17  H    0.967825   3.004676   3.570518   3.175804   2.136859
                   11         12         13         14         15
    11  H    0.000000
    12  H    1.776115   0.000000
    13  H    1.786138   1.785095   0.000000
    14  H    2.515509   3.767273   3.142093   0.000000
    15  H    3.081737   3.801095   2.578364   1.791880   0.000000
    16  H    3.757121   4.362948   3.792727   1.791877   1.776360
    17  H    3.572034   2.139337   3.178748   4.576751   4.318364
                   16         17
    16  H    0.000000
    17  H    4.317276   0.000000
 Framework group  C1[X(C5H10O2)]
 Deg. of freedom    45
                         Standard orientation:                         
 ---------------------------------------------------------------------
 Center     Atomic      Atomic             Coordinates (Angstroms)
 Number     Number       Type             X           Y           Z
 ---------------------------------------------------------------------
      1          6           0        0.966472   -0.783524   -1.262377
      2          6           0        0.551232   -0.004664   -0.000002
      3          6           0        0.967955   -0.782205    1.262742
      4          6           0        1.216366    1.373610   -0.001150
      5          6           0       -0.975894    0.188920    0.001118
      6          8           0       -1.712459   -0.941192    0.000083
      7          8           0       -1.522736    1.252911    0.000078
      8          1           0        2.065659   -0.877835   -1.299095
      9          1           0        0.637605   -0.261722   -2.177394
     10          1           0        0.552619   -1.807959   -1.289510
     11          1           0        2.067182   -0.876504    1.298239
     12          1           0        0.554081   -1.806590    1.291391
     13          1           0        0.640225   -0.259406    2.177598
     14          1           0        2.314779    1.262283   -0.002558
     15          1           0        0.922247    1.954991    0.887299
     16          1           0        0.919953    1.954671   -0.889060
     17          1           0       -1.149587   -1.728505   -0.000190
 ---------------------------------------------------------------------
 Rotational constants (GHZ):           3.2889191           2.3710910           1.9859149
   118 basis functions,   215 primitive gaussians,   125 cartesian basis functions
    28 alpha electrons       28 beta electrons
       nuclear repulsion energy       329.0942448317 Hartrees.
 NAtoms=   17 NActive=   17 NUniq=   17 SFac= 1.00D+00 NAtFMM=   60 NAOKFM=F Big=F
 Nuclear repulsion after empirical dispersion term =      329.0837474636 Hartrees.
   1 Symmetry operations used in ECPInt.
 ECPInt:  NShTT=    1953 NPrTT=    7871 LenC2=    1947 LenP2D=    6420.
 LDataN:  DoStor=T MaxTD1= 4 Len=   56
 Initial guess from the checkpoint file:  "/scratch/user/peterchao1/peterchao1/6097796_1659647584000000562887262/Gau-202453.chk"
 B after Tr=     0.000000   -0.000000   -0.000000
         Rot=    1.000000   -0.000100   -0.000348   -0.000545 Ang=  -0.07 deg.
     Minimum is close to point  2 DX=  3.64D-05 DF=  0.00D+00 DXR=  3.64D-05 DFR=  0.00D+00 which will be used.
 QCLLim is confused:  Bigger=T Turned=T
 NLin=  4 IMin12=  1  3 I12=  0  2 IX=  1 XLMin= 0.000D+00 XLMax= 0.000D+00
 X = 0.000D+00 1.000D+00 2.000D+00 4.000D+00
 DE= 0.000D+00 2.274D-13 0.000D+00 6.821D-12
 QCLLim is confused:  Bigger=T Turned=T
 NLin=  5 IMin12=  1  3 I12=  0  2 IX=  1 XLMin= 0.000D+00 XLMax= 0.000D+00
 X = 0.000D+00 1.000D+00 2.000D+00 4.000D+00 8.000D+00
 DE= 0.000D+00 2.274D-13 0.000D+00 6.821D-12 3.456D-11
 QCLLim is confused:  Bigger=T Turned=T
 NLin=  6 IMin12=  1  3 I12=  0  2 IX=  1 XLMin= 0.000D+00 XLMax= 0.000D+00
 X = 0.000D+00 1.000D+00 2.000D+00 4.000D+00 8.000D+00 1.600D+01
 DE= 0.000D+00 2.274D-13 0.000D+00 6.821D-12 3.456D-11 1.569D-10
 QCLLim is confused:  Bigger=T Turned=T
 NLin=  7 IMin12=  1  3 I12=  0  2 IX=  1 XLMin= 0.000D+00 XLMax= 0.000D+00
 X = 0.000D+00 1.000D+00 2.000D+00 4.000D+00 8.000D+00 1.600D+01 3.200D+01
 DE= 0.000D+00 2.274D-13 0.000D+00 6.821D-12 3.456D-11 1.569D-10 6.696D-10
 Search did not lower the energy significantly.
 No lower point found -- using Newton-Raphson step.
 SCF Done:  E(RwB97XD) =  -346.635418141     a.u. after    3 cycles
            Convg  =    0.5136D-10                    40 Fock formations.
              S**2 =  0.0000                  -V/T =  2.0094
   1 Symmetry operations used in ECPInt.
 ECPInt:  NShTT=    1953 NPrTT=    7871 LenC2=    1947 LenP2D=    6420.
 LDataN:  DoStor=T MaxTD1= 5 Len=  102
 Calling FoFJK, ICntrl=      2127 FMM=F ISym2X=0 I1Cent= 0 IOpClX= 0 NMat=1 NMatS=1 NMatT=0.

 GradGradGradGradGradGradGradGradGradGradGradGradGradGradGradGradGradGrad
 Using GEDIIS/GDIIS optimizer.
 FormGI is forming the generalized inverse of G from B-inverse, IUseBI=4.
 Internal  Forces:  Max     0.000277806 RMS     0.000060563
 Step number   4 out of a maximum of   89
 All quantities printed in internal units (Hartrees-Bohrs-Radians)
 Mixed Optimization -- En-DIIS/RFO-DIIS
 Swapping is turned off.
 Trust test= 8.23D-01 RLast= 1.32D-02 DXMaxT set to 4.63D-01
 ITU=  1  1  1  0
     Eigenvalues ---    0.00243   0.00304   0.00305   0.00328   0.00870
     Eigenvalues ---    0.02311   0.05118   0.05224   0.05288   0.05332
     Eigenvalues ---    0.05430   0.05497   0.05531   0.05581   0.05618
     Eigenvalues ---    0.14863   0.15040   0.15671   0.15950   0.16000
     Eigenvalues ---    0.16000   0.16000   0.16000   0.16000   0.16000
     Eigenvalues ---    0.16180   0.16570   0.23847   0.27356   0.28404
     Eigenvalues ---    0.28923   0.28988   0.33497   0.33831   0.34080
     Eigenvalues ---    0.34087   0.34121   0.34142   0.34147   0.34169
     Eigenvalues ---    0.34226   0.35007   0.52054   0.54701   0.93340
 En-DIIS/RFO-DIIS/Sim-DIIS IScMMF=       -3 using points:     4    3
 RFO step:  Lambda=-5.02899944D-06.
 DidBck=T Rises=F RFO-DIIS coefs:    0.45004    0.54996
 Iteration  1 RMS(Cart)=  0.00272166 RMS(Int)=  0.00001032
 Iteration  2 RMS(Cart)=  0.00001213 RMS(Int)=  0.00000581
 Iteration  3 RMS(Cart)=  0.00000000 RMS(Int)=  0.00000581
 Variable       Old X    -DE/DX   Delta X   Delta X   Delta X     New X
                                 (Linear)    (Quad)   (Total)
    R1        2.91081  -0.00006  -0.00008  -0.00001  -0.00010   2.91071
    R2        2.08595  -0.00006   0.00005  -0.00019  -0.00014   2.08581
    R3        2.08529  -0.00002   0.00032  -0.00053  -0.00022   2.08508
    R4        2.08854  -0.00001   0.00056  -0.00086  -0.00031   2.08823
    R5        2.91088  -0.00005  -0.00009   0.00001  -0.00007   2.91081
    R6        2.89199   0.00008   0.00019  -0.00015   0.00004   2.89203
    R7        2.90894  -0.00021  -0.00256   0.00344   0.00089   2.90983
    R8        2.08595  -0.00005   0.00006  -0.00019  -0.00013   2.08582
    R9        2.08853  -0.00000   0.00057  -0.00087  -0.00031   2.08822
   R10        2.08529  -0.00002   0.00031  -0.00053  -0.00022   2.08507
   R11        2.08633  -0.00007   0.00029  -0.00060  -0.00031   2.08603
   R12        2.08200   0.00005   0.00030  -0.00034  -0.00004   2.08196
   R13        2.08203   0.00004   0.00028  -0.00033  -0.00005   2.08197
   R14        2.54916   0.00006  -0.00066   0.00123   0.00058   2.54973
   R15        2.26066  -0.00028   0.00023  -0.00062  -0.00040   2.26027
   R16        1.82892  -0.00001   0.00012  -0.00017  -0.00006   1.82887
    A1        1.91655  -0.00005  -0.00061   0.00065   0.00003   1.91658
    A2        1.93920   0.00003  -0.00015   0.00038   0.00024   1.93944
    A3        1.96911   0.00001   0.00053  -0.00073  -0.00021   1.96890
    A4        1.88556   0.00000   0.00020  -0.00034  -0.00014   1.88542
    A5        1.86802   0.00002   0.00035  -0.00053  -0.00018   1.86784
    A6        1.88215  -0.00001  -0.00030   0.00055   0.00024   1.88240
    A7        1.92162  -0.00001   0.00037  -0.00014   0.00023   1.92185
    A8        1.91517   0.00006   0.00075  -0.00047   0.00029   1.91546
    A9        1.90882  -0.00003  -0.00055   0.00027  -0.00029   1.90853
   A10        1.91521   0.00004   0.00072  -0.00042   0.00030   1.91551
   A11        1.90844   0.00002  -0.00061   0.00072   0.00011   1.90855
   A12        1.89432  -0.00009  -0.00070   0.00004  -0.00066   1.89367
   A13        1.91653  -0.00002  -0.00061   0.00078   0.00018   1.91671
   A14        1.96904  -0.00000   0.00052  -0.00081  -0.00029   1.96875
   A15        1.93921   0.00002  -0.00013   0.00033   0.00020   1.93941
   A16        1.86805   0.00001   0.00033  -0.00046  -0.00013   1.86793
   A17        1.88553  -0.00000   0.00019  -0.00033  -0.00014   1.88539
   A18        1.88222  -0.00001  -0.00029   0.00046   0.00018   1.88240
   A19        1.91941   0.00002  -0.00084   0.00133   0.00048   1.91989
   A20        1.93758   0.00006   0.00005   0.00024   0.00029   1.93787
   A21        1.93762   0.00005   0.00002   0.00024   0.00026   1.93788
   A22        1.89635  -0.00005   0.00028  -0.00068  -0.00040   1.89595
   A23        1.89633  -0.00004   0.00036  -0.00076  -0.00040   1.89593
   A24        1.87523  -0.00005   0.00017  -0.00045  -0.00028   1.87496
   A25        2.02232  -0.00010   0.00017  -0.00074  -0.00060   2.02172
   A26        2.17163   0.00003  -0.00131   0.00202   0.00068   2.17232
   A27        2.08923   0.00007   0.00115  -0.00126  -0.00014   2.08909
   A28        1.94330  -0.00009   0.00087  -0.00170  -0.00083   1.94247
    D1       -1.09877  -0.00003  -0.00047   0.00067   0.00021  -1.09857
    D2        1.01096   0.00006   0.00114  -0.00023   0.00091   1.01187
    D3        3.08707  -0.00003   0.00041  -0.00030   0.00011   3.08718
    D4        3.09948  -0.00002  -0.00023   0.00044   0.00021   3.09968
    D5       -1.07398   0.00007   0.00138  -0.00046   0.00092  -1.07306
    D6        1.00213  -0.00002   0.00064  -0.00053   0.00011   1.00224
    D7        0.98333  -0.00003  -0.00010  -0.00003  -0.00013   0.98319
    D8        3.09306   0.00005   0.00151  -0.00093   0.00057   3.09363
    D9       -1.11402  -0.00003   0.00077  -0.00100  -0.00023  -1.11425
   D10        1.09873   0.00004   0.00152  -0.00276  -0.00124   1.09749
   D11       -0.98335   0.00004   0.00118  -0.00219  -0.00101  -0.98436
   D12       -3.09955   0.00004   0.00128  -0.00246  -0.00118  -3.10072
   D13       -1.01098  -0.00006  -0.00011  -0.00183  -0.00194  -1.01292
   D14       -3.09306  -0.00006  -0.00045  -0.00126  -0.00171  -3.09477
   D15        1.07392  -0.00007  -0.00035  -0.00153  -0.00187   1.07205
   D16       -3.08688   0.00001   0.00068  -0.00206  -0.00138  -3.08826
   D17        1.11422   0.00001   0.00035  -0.00150  -0.00115   1.11307
   D18       -1.00198   0.00001   0.00044  -0.00176  -0.00132  -1.00329
   D19       -1.05601  -0.00004  -0.00183   0.00099  -0.00084  -1.05685
   D20        3.12794  -0.00003  -0.00166   0.00082  -0.00084   3.12710
   D21        1.04322  -0.00004  -0.00192   0.00106  -0.00086   1.04236
   D22        1.05759   0.00002  -0.00044   0.00026  -0.00018   1.05741
   D23       -1.04164   0.00003  -0.00026   0.00009  -0.00018  -1.04182
   D24       -3.12637   0.00001  -0.00053   0.00033  -0.00019  -3.12656
   D25       -3.14102   0.00001  -0.00118   0.00092  -0.00026  -3.14129
   D26        1.04293   0.00002  -0.00101   0.00074  -0.00027   1.04267
   D27       -1.04179   0.00000  -0.00127   0.00099  -0.00028  -1.04207
   D28        1.05086   0.00007   0.00068   0.00840   0.00909   1.05994
   D29       -2.08798  -0.00008  -0.00127  -0.00425  -0.00552  -2.09350
   D30       -1.05454   0.00009   0.00095   0.00796   0.00891  -1.04563
   D31        2.08981  -0.00006  -0.00101  -0.00469  -0.00570   2.08411
   D32        3.13984   0.00008   0.00085   0.00802   0.00887  -3.13447
   D33        0.00100  -0.00007  -0.00110  -0.00463  -0.00574  -0.00473
   D34        0.00118  -0.00005  -0.00087  -0.00543  -0.00629  -0.00512
   D35        3.14015   0.00009   0.00099   0.00659   0.00757  -3.13546
         Item               Value     Threshold  Converged?
 Maximum Force            0.000278     0.000015     NO 
 RMS     Force            0.000061     0.000010     NO 
 Maximum Displacement     0.010954     0.000060     NO 
 RMS     Displacement     0.002723     0.000040     NO 
 GradGradGradGradGradGradGradGradGradGradGradGradGradGradGradGradGradGrad

                    Distance matrix (angstroms):
                    1          2          3          4          5
     1  C    0.000000
     2  C    1.540284   0.000000
     3  C    2.525251   1.540335   0.000000
     4  C    2.511478   1.530397   2.511561   0.000000
     5  C    2.513021   1.539815   2.513080   2.491696   0.000000
     6  O    2.970028   2.449972   2.962680   3.733067   1.349260
     7  O    3.457191   2.426131   3.453864   2.742004   1.196081
     8  H    1.103761   2.177893   2.788826   2.734748   3.475718
     9  H    1.103375   2.194254   3.495020   2.783050   2.748285
    10  H    1.105043   2.216595   2.781730   3.496061   2.826379
    11  H    2.788434   2.178034   1.103767   2.735443   3.475854
    12  H    2.782128   2.216535   1.105041   3.496087   2.825767
    13  H    3.495013   2.194277   1.103374   2.782647   2.748809
    14  H    2.756121   2.171714   2.756470   1.103877   3.461379
    15  H    3.482000   2.183149   2.763859   1.101728   2.739623
    16  H    2.764038   2.183159   3.482082   1.101732   2.739353
    17  H    2.643258   2.420712   2.634540   3.900355   1.924997
                    6          7          8          9         10
     6  O    0.000000
     7  O    2.202292   0.000000
     8  H    3.998899   4.372918   0.000000
     9  H    3.282224   3.424688   1.785910   0.000000
    10  H    2.751196   3.918018   1.775787   1.784986   0.000000
    11  H    3.993067   4.370527   2.597034   3.807856   3.138842
    12  H    2.742302   3.914274   3.140271   3.798323   2.581135
    13  H    3.271517   3.419204   3.807860   4.355094   3.798323
    14  H    4.590904   3.837697   2.516390   3.141503   3.767592
    15  H    4.012112   2.692224   3.757486   3.792982   4.362871
    16  H    4.015736   2.694836   3.083346   2.579101   3.801540
    17  H    0.967795   3.004238   3.573307   3.182940   2.142549
                   11         12         13         14         15
    11  H    0.000000
    12  H    1.775844   0.000000
    13  H    1.785898   1.784984   0.000000
    14  H    2.517438   3.768135   3.141264   0.000000
    15  H    3.083880   3.801132   2.578371   1.791472   0.000000
    16  H    3.758195   4.362864   3.792566   1.791464   1.776141
    17  H    3.566214   2.130968   3.171221   4.576173   4.315129
                   16         17
    16  H    0.000000
    17  H    4.318784   0.000000
 Framework group  C1[X(C5H10O2)]
 Deg. of freedom    45
                         Standard orientation:                         
 ---------------------------------------------------------------------
 Center     Atomic      Atomic             Coordinates (Angstroms)
 Number     Number       Type             X           Y           Z
 ---------------------------------------------------------------------
      1          6           0        0.972048   -0.780617   -1.262421
      2          6           0        0.551604   -0.004630   -0.000064
      3          6           0        0.962904   -0.784768    1.262810
      4          6           0        1.215796    1.374117    0.004556
      5          6           0       -0.975982    0.188975   -0.005304
      6          8           0       -1.712023   -0.941835   -0.001139
      7          8           0       -1.523499    1.252373   -0.000927
      8          1           0        2.071286   -0.875083   -1.294705
      9          1           0        0.647327   -0.256866   -2.177668
     10          1           0        0.558346   -1.804831   -1.293325
     11          1           0        2.061813   -0.880378    1.302307
     12          1           0        0.547963   -1.808641    1.287786
     13          1           0        0.632460   -0.263447    2.177395
     14          1           0        2.314170    1.264085    0.008055
     15          1           0        0.917323    1.953810    0.892630
     16          1           0        0.923308    1.956891   -0.883498
     17          1           0       -1.148036   -1.728310    0.000090
 ---------------------------------------------------------------------
 Rotational constants (GHZ):           3.2885308           2.3709385           1.9857245
   118 basis functions,   215 primitive gaussians,   125 cartesian basis functions
    28 alpha electrons       28 beta electrons
       nuclear repulsion energy       329.0848191940 Hartrees.
 NAtoms=   17 NActive=   17 NUniq=   17 SFac= 1.00D+00 NAtFMM=   60 NAOKFM=F Big=F
 Nuclear repulsion after empirical dispersion term =      329.0743237853 Hartrees.
   1 Symmetry operations used in ECPInt.
 ECPInt:  NShTT=    1953 NPrTT=    7871 LenC2=    1947 LenP2D=    6419.
 LDataN:  DoStor=T MaxTD1= 4 Len=   56
 Initial guess from the checkpoint file:  "/scratch/user/peterchao1/peterchao1/6097796_1659647584000000562887262/Gau-202453.chk"
 B after Tr=    -0.000000    0.000000    0.000000
         Rot=    0.999999   -0.000825    0.001245   -0.000168 Ang=  -0.17 deg.
     Minimum is close to point  2 DX=  9.56D-07 DF=  0.00D+00 DXR=  9.56D-07 DFR=  0.00D+00 which will be used.
 SCF Done:  E(RwB97XD) =  -346.635411291     a.u. after    3 cycles
            Convg  =    0.2567D-09                    25 Fock formations.
              S**2 =  0.0000                  -V/T =  2.0094
   1 Symmetry operations used in ECPInt.
 ECPInt:  NShTT=    1953 NPrTT=    7871 LenC2=    1947 LenP2D=    6419.
 LDataN:  DoStor=T MaxTD1= 5 Len=  102
 Calling FoFJK, ICntrl=      2127 FMM=F ISym2X=0 I1Cent= 0 IOpClX= 0 NMat=1 NMatS=1 NMatT=0.

 GradGradGradGradGradGradGradGradGradGradGradGradGradGradGradGradGradGrad
 Using GEDIIS/GDIIS optimizer.
 FormGI is forming the generalized inverse of G from B-inverse, IUseBI=4.
 Internal  Forces:  Max     0.000379013 RMS     0.000115882
 Step number   5 out of a maximum of   89
 All quantities printed in internal units (Hartrees-Bohrs-Radians)
 Mixed Optimization -- En-DIIS/RFO-DIIS
 Swapping is turned off.
 Trust test=-2.72D+00 RLast= 2.15D-02 DXMaxT set to 2.31D-01
 ITU= -1  1  1  1  0
     Eigenvalues ---    0.00244   0.00304   0.00307   0.00332   0.02268
     Eigenvalues ---    0.04559   0.05091   0.05125   0.05328   0.05335
     Eigenvalues ---    0.05492   0.05525   0.05576   0.05586   0.05668
     Eigenvalues ---    0.10882   0.15043   0.15302   0.15968   0.16000
     Eigenvalues ---    0.16000   0.16000   0.16000   0.16000   0.16088
     Eigenvalues ---    0.16173   0.16489   0.19406   0.26266   0.28469
     Eigenvalues ---    0.28953   0.29013   0.32413   0.33905   0.34071
     Eigenvalues ---    0.34086   0.34123   0.34142   0.34150   0.34168
     Eigenvalues ---    0.34227   0.34548   0.51063   0.53977   0.92652
 En-DIIS/RFO-DIIS/Sim-DIIS IScMMF=       -3 using points:     5    4    3
 RFO step:  Lambda=-1.58346416D-05.
 EnCoef did     3 forward-backward iterations
 DidBck=T Rises=T En-DIIS coefs:    0.32019    0.40334    0.27648
 Iteration  1 RMS(Cart)=  0.00240375 RMS(Int)=  0.00000652
 Iteration  2 RMS(Cart)=  0.00000914 RMS(Int)=  0.00000121
 Iteration  3 RMS(Cart)=  0.00000000 RMS(Int)=  0.00000121
 Variable       Old X    -DE/DX   Delta X   Delta X   Delta X     New X
                                 (Linear)    (Quad)   (Total)
    R1        2.91071  -0.00002   0.00002  -0.00007  -0.00005   2.91067
    R2        2.08581   0.00001   0.00012  -0.00015  -0.00003   2.08578
    R3        2.08508   0.00005   0.00031  -0.00036  -0.00006   2.08502
    R4        2.08823   0.00011   0.00049  -0.00055  -0.00006   2.08817
    R5        2.91081  -0.00010   0.00001  -0.00011  -0.00011   2.91071
    R6        2.89203   0.00004   0.00007  -0.00010  -0.00003   2.89200
    R7        2.90983  -0.00038  -0.00189   0.00203   0.00014   2.90997
    R8        2.08582  -0.00001   0.00012  -0.00016  -0.00004   2.08578
    R9        2.08822   0.00009   0.00049  -0.00057  -0.00007   2.08815
   R10        2.08507   0.00004   0.00031  -0.00037  -0.00006   2.08501
   R11        2.08603   0.00005   0.00036  -0.00045  -0.00009   2.08593
   R12        2.08196   0.00006   0.00018  -0.00015   0.00003   2.08199
   R13        2.08197   0.00007   0.00018  -0.00015   0.00002   2.08200
[...]
   xx         0.514809D+02      0.762868D+01      0.848805D+01
   yx         0.100278D+00      0.148596D-01      0.165335D-01
   yy         0.581324D+02      0.861433D+01      0.958474D+01
   zx         0.453579D-01      0.672135D-02      0.747851D-02
   zy         0.301387D+01      0.446610D+00      0.496921D+00
   zz         0.596588D+02      0.884052D+01      0.983641D+01

 ----------------------------------------------------------------------
 1\1\GINC-C241\Freq\RwB97XD\def2SVPP\C5H10O2\PETERCHAO1\04-Aug-2022\0\\
 #T Geom=AllCheck Guess=TCheck SCRF=Check GenChk RwB97XD/def2SVPP Freq\
 \Comment gs min\\0,1\C,0.9834793237,0.0914529381,-0.0737245296\C,2.523
 5980275,0.0759768255,-0.0764284421\C,3.0504408325,-0.483179632,1.25848
 75167\C,3.0304410564,-0.7864070404,-1.2347890538\C,3.0474474929,1.5101
 970081,-0.2704960755\O,2.6855765105,2.4016883643,0.6752661844\O,3.7343
 873366,1.8615977862,-1.1844627876\H,0.5993704997,-0.9400002828,0.00910
 54167\H,0.5886869223,0.529044442,-1.0065937558\H,0.5620041415,0.662864
 5123,0.7732015421\H,2.7251603839,-1.5309795636,1.3793394608\H,2.675234
 6867,0.0754774332,2.1351602581\H,4.1532102311,-0.4620112533,1.29078286
 3\H,2.6683536634,-1.82297706,-1.1200726359\H,4.131743786,-0.7996322807
 ,-1.2656204352\H,2.6778236064,-0.3954665679,-2.2026850684\H,2.13303149
 89,1.9892443709,1.3544095422\\Version=ES64L-G16RevB.01\State=1-A\HF=-3
 46.6354192\RMSD=7.514e-10\RMSF=8.182e-07\ZeroPoint=0.1473407\Thermal=0
 .1555369\Dipole=-0.916863,-1.0736919,0.9591059\DipoleDeriv=0.0251583,0
 .0116489,-0.0122143,-0.003917,-0.0017991,0.0218896,-0.0082545,0.013201
 3,0.0260529,0.0662273,-0.1074621,0.0608397,-0.0827761,-0.1198671,0.018
 385,0.0715033,0.0567062,0.0488319,0.0037983,-0.0178972,-0.0058697,-0.0
 175316,0.0118607,0.0075155,-0.0163988,-0.0074168,0.0337552,-0.0137333,
 0.0286677,-0.0079586,0.0202105,0.0677998,0.0094602,-0.0116146,-0.00366
 78,-0.0103733,0.6462358,0.1803237,-0.6170592,0.1558555,1.2986813,0.232
 7312,-0.6276046,0.1948209,1.2558048,-0.4569832,0.1091099,0.1507084,0.2
 060769,-0.8255812,-0.5074111,0.1925321,-0.3570169,-0.8427403,-0.592559
 3,-0.1543619,0.3747785,-0.2180696,-0.6977585,0.1701792,0.3472947,0.071
 3514,-0.8159604,0.0228551,-0.0315696,0.0041705,-0.0837227,-0.0942512,0
 .016329,0.0081888,0.0153933,0.083316,0.0143019,0.0131997,-0.0281126,0.
 0349931,0.0569129,0.0597453,-0.0772639,0.0579372,-0.0505848,0.0079633,
 0.030338,0.0183945,0.0577562,0.0058486,-0.1038132,0.0757345,-0.10888,-
 0.0722786,0.0597038,-0.0670812,0.0008732,-0.043798,-0.0983279,0.049596
 7,-0.0156033,0.0057476,0.050532,0.0327325,0.0638348,0.0686053,0.061064
 5,-0.0063054,-0.111198,0.0218995,-0.0678761,-0.0848731,-0.1030556,0.01
 61651,-0.0391971,-0.0068591,0.076802,0.0148219,0.0094271,0.0147102,0.0
 468912,0.0472147,-0.0809899,0.0153373,-0.0455236,-0.1177906,-0.0145125
 ,0.030635,0.0405139,0.0495538,-0.0962395,0.0291485,0.0215564,-0.002792
 9,0.0728453,-0.0169722,-0.0149187,-0.0229586,0.0547427,0.0512676,0.035
 1836,-0.0566004,0.035423,0.0491303,0.0558151,-0.0337973,0.01261,-0.069
 0821,0.2851122,-0.0582578,0.0517482,-0.0663893,0.3218,0.0974383,0.0482
 407,0.0848242,0.2964122\Polar=54.7772981,0.9380277,55.5739119,-4.71096
 06,0.3110586,58.9208693\Quadrupole=0.8549831,-2.4717526,1.6167695,-2.5
 251855,0.8572704,1.9410785\PG=C01 [X(C5H10O2)]\NImag=0\\0.47530169,-0.
 00289151,0.58762039,-0.00164539,-0.00381621,0.59249824,-0.18553376,-0.
 00652266,0.00074896,0.48791067,0.00411026,-0.08164481,-0.00153476,-0.0
 0424591,0.50617982,-0.00193261,-0.00306034,-0.07827077,-0.02068936,0.0
 1971958,0.51634198,-0.01876397,0.01488010,-0.03409831,-0.08969031,0.01
 112400,-0.02935427,0.58050620,0.00294397,0.00058456,0.00122139,0.01780
 167,-0.09776450,0.03741661,0.01696222,0.56845464,-0.00491272,0.0008002
 1,-0.00311347,-0.03374372,0.02974829,-0.15798881,-0.03448778,0.0369664
 5,0.50646109,-0.01806087,0.02117430,0.02845168,-0.09396240,0.02200638,
 0.03067373,0.00421146,-0.00642797,-0.00765851,0.59053168,0.00408845,-0
 .00104483,-0.00158888,0.02164228,-0.11729356,-0.04953188,-0.00450867,0
 .00729795,0.00689935,0.02028208,0.56190713,0.00564321,-0.00179889,-0.0
 0195148,0.03051641,-0.05009684,-0.14926573,0.00860743,-0.01642360,-0.0
 3256674,0.02586787,-0.04857112,0.54047491,-0.01862763,-0.03440909,0.00
 451256,-0.09547976,-0.01982865,-0.00428428,0.00703671,0.01427205,0.002
 23864,0.00506592,0.00925332,-0.00468022,0.53260637,-0.01227481,0.00649
 841,0.00136803,-0.01997860,-0.15709965,0.00322690,0.00056874,-0.012591
 11,0.01487814,-0.00295795,-0.02802908,-0.00727324,0.14987643,0.5920297
 5,0.00088616,-0.00212990,0.00073262,-0.00434812,0.00299719,-0.08468967
 ,0.00950092,0.03145347,-0.00584380,-0.00994843,-0.02622208,0.00359957,
 -0.38231435,-0.08258098,0.80184889,-0.00109751,0.00186104,0.00151476,0
 .01303282,-0.00605006,0.00015944,-0.00007030,-0.00159695,0.00058835,0.
 00068274,-0.00171513,0.00134607,-0.07897935,0.02807885,0.05276234,0.24
 345880,0.00253461,-0.00242546,-0.00105162,0.00937143,-0.02430589,-0.03
 140899,-0.00090453,-0.00058751,-0.00282679,-0.00493627,-0.00699757,0.0
 0376612,-0.00369359,-0.23315070,-0.07206327,0.09517705,0.37601450,0.00
 277448,-0.00025419,-0.00097873,0.00680987,-0.00748766,0.00102738,-0.00
 008262,-0.00150617,-0.00384323,-0.00004265,-0.00123118,0.00156264,0.03
 905992,-0.12134474,-0.16568664,-0.29321400,0.00248512,0.48381335,0.001
 42946,0.00063024,0.00014553,0.00391679,-0.01474734,0.02720374,-0.00436
 457,-0.00555932,-0.00180131,-0.00186935,0.00249931,0.00125700,-0.32830
 717,-0.14788587,0.32258377,-0.01485832,0.01339673,0.05093391,0.3343682
 9,0.00091578,-0.00676651,0.00162824,-0.02722616,-0.00742626,0.02800598
 ,-0.00312876,-0.00347170,-0.00147582,-0.00151065,-0.00066812,0.0028132
 1,-0.14171078,-0.18946384,0.17226340,0.02307854,0.03264261,-0.02786654
 ,0.15207366,0.17996653,-0.00128759,0.00498820,-0.00124814,0.02182321,0
 .00865133,-0.00456496,0.00080267,-0.00062324,0.00125182,-0.00047251,-0
 .00340725,-0.00248974,0.32524617,0.18184045,-0.50528726,0.05510954,-0.
 01284891,-0.07676668,-0.40430073,-0.17182494,0.58444216,-0.07594729,-0
 .08470033,0.00648634,-0.01453115,-0.03229939,0.00197341,0.00164279,-0.
 00088491,0.00079319,0.00131040,-0.00143640,-0.00063461,-0.00608087,0.0
 0569157,-0.00055940,0.00127461,-0.00132649,-0.00054905,-0.00023447,-0.
 00257453,0.00180391,0.08522744,-0.08620494,-0.28711870,0.01916472,0.00
 114061,0.00045322,0.00013366,0.00046329,0.00076174,-0.00018459,0.00094
 478,0.00070449,-0.00011204,0.00105805,0.00058724,-0.00092495,-0.000583
 05,0.00029329,0.00017251,-0.00051199,0.00013974,0.00036350,0.09229139,
 0.30421413,0.00625945,0.01957239,-0.05037308,0.00068506,-0.00002123,-0
 .00059867,-0.00036523,-0.00099959,0.00007519,0.00049050,0.00071861,-0.
 00000977,0.00034359,-0.00120416,-0.00081905,-0.00092579,0.00021424,0.0
 0044255,-0.00023509,0.00013275,0.00042355,-0.00774541,-0.02027693,0.04
 724882,-0.08036709,0.03673719,-0.07776914,-0.01019399,0.01246710,-0.02
 754082,-0.00709562,-0.00058079,0.00124664,0.00130663,-0.00026907,-0.00
 133370,0.00098329,0.00146304,-0.00222210,0.00002490,-0.00035040,0.0002
 1391,-0.00008843,-0.00024282,0.00085613,0.00380359,-0.00353737,0.01038
 090,0.08825160,0.03776171,-0.09333337,0.09200489,-0.00146188,-0.000404
 00,-0.00179974,-0.00001979,0.00053216,-0.00023075,0.00009747,-0.000248
 93,0.00046371,-0.00074522,0.00033816,-0.00078098,0.00025171,-0.0001252
 3,0.00025106,0.00035114,0.00014302,-0.00011263,0.01128557,-0.00857354,
 0.02488743,-0.04047819,0.09272353,-0.07992802,0.09169971,-0.24513304,0
 .00097460,-0.00168363,0.00088456,-0.00032505,-0.00038714,0.00070511,0.
 00061923,-0.00039591,0.00089862,-0.00036846,0.00090160,0.00019334,0.00
 026921,-0.00045472,0.00004988,-0.00023109,-0.00047143,0.00018468,0.000
 44352,-0.00115178,0.00040601,0.08649184,-0.09906304,0.25812129,-0.0841
 3688,0.05078790,0.07418808,-0.00885539,0.01703867,0.02458405,0.0016689
 7,-0.00003414,0.00160128,-0.00691586,-0.00117012,-0.00128409,-0.000223
 68,0.00294202,0.00243279,0.00090362,-0.00132746,-0.00115642,0.00035257
 ,-0.00057295,-0.00071279,0.00400169,-0.00510847,-0.00960551,0.00414475
 ,-0.00731211,-0.00827180,0.09121608,0.05070545,-0.11946782,-0.10579675
 ,-0.00089458,-0.00071182,0.00133597,0.00008046,-0.00006444,-0.00029525
 ,0.00079409,0.00035658,0.00038002,0.00004053,-0.00045446,0.00027635,-0
 .00127296,-0.00061207,0.00033151,-0.00007965,0.00028101,0.00002264,0.0
 1163962,-0.01237216,-0.02330898,-0.00597243,0.00768643,0.01024484,-0.0
 5424196,0.12456020,0.07423061,-0.10591533,-0.20583062,-0.00098754,0.00
 179232,-0.00026975,-0.00061677,0.00065626,0.00092594,0.00064500,0.0005
 5123,0.00088200,0.00130109,-0.00272879,-0.00218822,-0.00229893,0.00088
 342,0.00108142,-0.00030769,0.00060570,0.00075334,-0.00180415,0.0025060
 8,0.00276756,0.01008535,-0.01521360,-0.01688268,-0.08092075,0.11704097
 ,0.21661722,0.00091144,0.00117467,0.00022938,0.00262734,0.01176083,-0.
 00148766,-0.07327238,-0.07797004,0.00876770,0.00006642,-0.00003230,0.0
 0055858,-0.00146485,0.00033286,-0.00178617,0.00020232,0.00036030,-0.00
 009684,0.00099997,0.00055997,-0.00025809,-0.00016723,-0.00027813,-0.00
 034357,0.00009076,-0.00018235,0.00014555,-0.00005918,0.00004686,0.0000
 1610,0.07243463,-0.00040497,0.00048717,-0.00071861,-0.00351075,-0.0118
 2890,0.00117290,-0.07700508,-0.29174841,0.02496501,-0.00010051,0.00070
 083,-0.00134011,0.00236347,0.00135731,0.00108516,-0.00002382,-0.000248
 46,0.00021512,-0.00104343,-0.00067926,0.00081507,0.00073762,0.00012560
 ,0.00022033,0.00006420,0.00035866,-0.00005534,0.00001809,-0.00006200,0
 .00010061,0.08271127,0.31052379,0.00128802,-0.00026274,0.00108153,0.00
 764111,0.02951694,-0.00547577,0.00876149,0.02372011,-0.04841772,0.0004
 3109,0.00141708,0.00123787,-0.00381164,-0.00267529,-0.00620539,0.00043
 465,0.00073122,0.00205634,0.00197876,0.00175829,0.00000887,-0.00061178
 ,-0.00035983,0.00017187,0.00023409,-0.00028226,-0.00000006,-0.00010255
 ,-0.00013835,-0.00003545,-0.00685207,-0.02902074,0.05373048,0.00104138
 ,-0.00087006,-0.00077957,0.00255147,-0.00733239,-0.00825321,-0.0809660
 1,0.04759324,0.07163055,-0.00053104,0.00078287,-0.00187230,-0.00021356
 ,0.00095936,0.00169333,-0.00024978,-0.00013540,-0.00135417,0.00022249,
 -0.00025319,-0.00033121,-0.00006333,-0.00009186,-0.00004221,0.00011398
 ,-0.00004091,0.00016706,-0.00012152,0.00034425,-0.00008995,0.00332601,
 -0.00470246,-0.00858855,0.08028370,-0.00063157,0.00041415,-0.00020470,
 -0.00512417,0.00635846,0.00978236,0.04753833,-0.11796991,-0.10658210,0
 .00052305,-0.00060454,0.00151329,-0.00062060,0.00027979,0.00005792,0.0
 0004290,-0.00122040,0.00102776,0.00012879,0.00014414,0.00002777,0.0001
 3015,-0.00005420,-0.00010213,-0.00024456,-0.00002956,0.00006457,-0.000
 15810,0.00015241,-0.00015203,0.01203645,-0.01254543,-0.02345439,-0.053
 37127,0.12495072,0.00159058,-0.00060838,0.00107460,0.01053266,-0.01507
 532,-0.01874788,0.07152861,-0.10667576,-0.21050790,-0.00306656,0.00398
 568,-0.00454180,0.00089256,-0.00389069,-0.00293165,-0.00011168,0.00083
 697,0.00284256,-0.00035905,0.00080259,0.00101982,-0.00005250,0.0000481
 0,-0.00003900,0.00007127,0.00028506,0.00033192,-0.00093975,0.00040791,
 0.00037490,-0.00194380,0.00268780,0.00361740,-0.07623045,0.11436231,0.
 22717232,0.00032546,0.00138604,-0.00263913,-0.00864368,0.00004762,0.00
 101528,-0.31984843,-0.00680517,-0.00490332,0.00057687,-0.00008182,0.00
 082946,-0.00058587,-0.00106846,0.00010974,0.00024240,0.00035661,0.0002
 2851,0.00050539,0.00050266,-0.00039926,0.00029512,0.00001507,0.0001502
 7,-0.00061766,-0.00002502,-0.00005613,0.00025023,-0.00010834,0.0000843
 6,-0.00588875,0.00134328,-0.00003168,-0.00723048,-0.00110570,-0.001116
 99,0.34030325,0.00062467,-0.00076722,0.00259437,0.01316892,-0.00113958
 ,-0.00003110,-0.00804122,-0.04997253,-0.00069454,-0.00051777,-0.000073
 39,-0.00066503,0.00180909,0.00045294,-0.00006468,-0.00050636,-0.000127
 79,-0.00020247,-0.00033190,0.00007969,-0.00009719,0.00029918,0.0002226
 4,0.00008807,0.00086412,0.00049954,0.00018337,-0.00036603,0.00001236,0
 .00009633,-0.03010155,0.00232728,-0.00062851,0.01706758,0.00043486,0.0
 0157378,0.00591752,0.04743162,-0.00115400,0.00244083,-0.00541648,-0.02
 784846,-0.00139537,0.00006903,-0.00283500,-0.00071789,-0.04901320,-0.0
 0115385,0.00008692,0.00145316,-0.00145626,-0.00070885,0.00164658,0.000
 06122,0.00009786,-0.00016510,0.00058457,-0.00011141,-0.00034523,0.0002
 5494,-0.00008075,-0.00006843,-0.00185715,0.00011091,0.00019683,-0.0000
 3471,0.00023288,0.00015373,0.00273731,-0.00038052,-0.00080240,0.024499
 98,0.00222964,0.00174443,0.00730885,-0.00197179,0.05136251,0.00064220,
 0.00125185,-0.00016387,0.00224849,0.01129455,-0.00112174,-0.00003493,-
 0.00014381,-0.00045255,-0.07948880,-0.08420943,0.00909785,-0.00156642,
 0.00043629,0.00294631,0.00044932,0.00088765,-0.00002626,0.00088960,-0.
 00058725,-0.00071173,-0.00032791,0.00003851,0.00044998,-0.00005333,0.0
 0004791,-0.00004699,0.00011903,-0.00017885,-0.00017356,0.00024530,-0.0
 0015195,-0.00028015,-0.00010078,0.00016620,-0.00010269,-0.00005242,-0.
 00015228,0.00004845,0.07941637,-0.00104494,0.00035710,0.00072215,-0.00
 639893,-0.01706807,0.00326257,-0.00001751,0.00051192,0.00134333,-0.082
 74657,-0.28299953,0.02798444,0.00137425,0.00021810,-0.00212943,-0.0000
 8936,-0.00190293,-0.00076204,0.00013593,-0.00018654,-0.00054742,0.0009
 0747,0.00032334,-0.00026298,-0.00000535,-0.00004698,-0.00004618,0.0000
 6652,0.00047046,0.00000467,-0.00010210,0.00061259,-0.00060802,0.000188
 55,0.00035760,0.00002423,0.00006000,-0.00000963,-0.00003047,0.08975666
 ,0.30391009,-0.00110773,-0.00004844,0.00061327,-0.00875337,-0.02418939
 ,0.00153380,-0.00044486,-0.00125353,0.00113587,0.00972897,0.03025438,-
 0.05226220,0.00335079,-0.00067466,-0.00527779,-0.00044762,-0.00227806,
 -0.00010240,-0.00039974,0.00057384,0.00146174,0.00040229,0.00025411,0.
 00014092,0.00011220,0.00012804,-0.00003634,-0.00023217,0.00017278,-0.0
 0002390,0.00016385,0.00030039,-0.00072150,0.00007137,0.00027136,0.0003
 0872,-0.00004220,0.00004215,-0.00007467,-0.01293962,-0.02807758,0.0540
 9209,0.00030500,0.00165385,0.00229780,-0.00913959,0.00005513,-0.000869
 15,0.00059966,-0.00027393,-0.00087917,-0.32402385,0.00268276,0.0054832
 4,-0.00127297,-0.00126384,0.00178137,0.00039050,0.00007008,-0.00042601
 ,0.00138329,-0.00102258,-0.00135562,0.00032274,0.00001872,-0.00015724,
 0.00023711,-0.00011821,-0.00004814,-0.00059120,0.00007943,0.00014810,-
 0.00009361,0.00007763,0.00007252,0.00030880,0.00000277,-0.00001514,0.0
 0037250,-0.00012459,0.00048582,-0.00609889,0.00133983,-0.00032498,0.34
 463981,0.00051243,-0.00243005,-0.00295808,0.01888002,-0.00083415,0.000
 73772,-0.00006220,0.00032000,0.00087433,-0.00062449,-0.04801023,-0.000
 29652,0.00265406,0.00018665,-0.00162776,-0.00053824,0.00042962,0.00078
 956,-0.00120498,-0.00068691,0.00077994,0.00012248,0.00025621,-0.000104
 59,-0.00028813,-0.00000099,-0.00005490,0.00126282,0.00030881,-0.000287
 79,-0.00019160,-0.00004301,-0.00007980,-0.00002822,-0.00014974,0.00011
 412,-0.00021696,0.00031505,-0.00010606,-0.02954731,0.00306279,-0.00013
 108,-0.00233571,0.04754583,0.00088661,-0.00299349,-0.00380550,0.025134
 66,0.00087233,-0.00080479,0.00125688,0.00024145,0.00123371,0.00328374,
 -0.00007900,-0.04860292,0.00039480,0.00052277,0.00048477,-0.00017202,0
 .00011204,-0.00019816,-0.00020777,-0.00018012,-0.00003555,-0.00028795,
 0.00000663,-0.00012767,0.00013839,-0.00021945,0.00010422,0.00158219,-0
 .00031848,0.00022353,-0.00000141,0.00008291,-0.00008169,-0.00029378,0.
 00005496,0.00031077,-0.00042846,-0.00015818,-0.00065117,0.00357636,-0.
 00042749,-0.00115602,-0.00754699,0.00348302,0.05039946,0.00082813,-0.0
 0059124,0.00093860,0.00243563,-0.00497519,0.01029002,-0.00056515,0.001
 08652,0.00147661,-0.07790397,0.03269131,-0.07921350,0.00105855,0.00005
 353,-0.00164415,-0.00044940,0.00011303,0.00043918,-0.00033170,0.000133
 77,0.00104467,-0.00004337,-0.00011266,0.00001288,-0.00025368,0.0004120
 8,0.00008933,0.00010483,-0.00009493,-0.00024225,-0.00013937,0.00017342
 ,-0.00008415,0.00067420,-0.00001764,0.00053193,0.00027119,0.00006842,0
 .00027877,0.00356316,-0.00327757,0.01110394,-0.00719562,0.01147854,-0.
 02751314,0.07791426,-0.00071891,0.00057322,-0.00001336,-0.00696404,0.0
 0685374,-0.01694745,0.00122298,-0.00240245,-0.00242757,0.03381727,-0.0
 8494626,0.08954034,-0.00015920,0.00042269,-0.00207058,-0.00014122,0.00
 037204,0.00065392,-0.00033886,-0.00111572,0.00036354,0.00012956,-0.000
 08331,0.00015281,0.00018852,0.00010144,0.00015325,-0.00019914,-0.00005
 932,0.00003058,0.00019210,0.00022957,-0.00016293,-0.00022444,0.0006514
 7,-0.00112634,0.00004649,-0.00014861,0.00007596,0.01109924,-0.00769946
 ,0.02462009,-0.00075396,-0.00042355,-0.00104970,-0.03715565,0.08751602
 ,-0.00116098,0.00075003,0.00075210,-0.00845233,0.00904097,-0.02006778,
 0.00245422,-0.00395128,-0.00296286,-0.07795460,0.08593950,-0.25778277,
 0.00134050,0.00152678,-0.00208144,-0.00018665,-0.00000682,0.00069871,-
 0.00038606,0.00030673,0.00210855,0.00007521,-0.00005193,-0.00009167,0.
 00086734,-0.00028483,0.00018855,-0.00002195,-0.00012006,0.00042433,0.0
 0009940,-0.00008410,0.00036111,-0.00048094,0.00041941,-0.00138450,0.00
 000957,-0.00005720,0.00021780,0.00008134,-0.00070074,-0.00005625,0.001
 53646,-0.00124107,0.00260066,0.08241151,-0.09175158,0.27715003,0.00175
 022,-0.00155228,-0.00241827,0.00130680,-0.00042561,-0.00036658,-0.0009
 9412,-0.00038265,0.00049611,-0.00099599,-0.00049944,-0.00018869,-0.013
 94874,-0.00497316,0.00812600,-0.16495738,-0.10959334,0.19648824,0.0059
 8616,0.00156530,0.00314323,-0.00048278,0.00045804,0.00064743,-0.000286
 82,0.00017609,0.00007531,-0.00185807,-0.00088697,0.00093097,0.00018117
 ,-0.00054599,-0.00047915,0.00095447,0.00070496,-0.00120899,-0.00027512
 ,0.00032219,0.00007954,0.00015000,-0.00014687,-0.00024111,-0.00014366,
 0.00012749,0.00019787,0.00003230,-0.00004073,-0.00023204,0.17358154,-0
 .00002569,-0.00153622,-0.00102082,0.00032275,-0.00232404,-0.00201475,0
 .00084766,-0.00189040,-0.00175771,0.00018277,-0.00005096,0.00011626,0.
 01846589,0.01841781,-0.01753888,-0.13597294,-0.13804805,0.15472844,0.0
 0248753,-0.00293189,-0.00839085,-0.00001257,0.00012027,0.00029394,0.00
 018495,0.00037966,0.00051672,-0.00162553,-0.00002418,0.00002937,-0.000
 31723,0.00043268,0.00052920,0.00011436,-0.00116981,0.00224798,-0.00026
 383,0.00046277,0.00022812,-0.00000798,0.00008916,0.00003560,-0.0000873
 8,0.00015367,0.00004979,0.00001425,0.00015851,0.00026622,0.11569298,0.
 12776104,-0.00043009,0.00063654,-0.00063106,-0.00004364,-0.00085475,0.
 00088785,-0.00030233,0.00086246,0.00246898,0.00010532,0.00117456,-0.00
 063562,0.01823457,0.01881674,-0.02749486,0.18511111,0.11381218,-0.2458
 3388,0.00354126,-0.00696047,-0.00091696,0.00001203,0.00049349,0.000450
 87,0.00002485,-0.00014383,-0.00021288,-0.00110590,-0.00046801,0.001026
 66,0.00005176,-0.00004586,-0.00052549,0.00025402,0.00068401,-0.0006447
 1,-0.00011887,-0.00000737,-0.00030739,-0.00018113,0.00025095,0.0004246
 7,-0.00018285,0.00010896,0.00010634,0.00007976,-0.00004098,-0.00007458
 ,-0.20504987,-0.12831863,0.27191204\\0.00000127,0.00000009,-0.00000030
 ,-0.00000165,-0.00000010,0.00000037,0.00000027,0.00000069,-0.00000006,
 -0.00000055,0.00000036,0.00000133,0.00000102,-0.00000135,-0.00000065,0
 .00000111,0.00000023,-0.00000133,0.00000069,-0.00000082,-0.00000143,-0
 .00000058,0.00000070,0.00000088,-0.00000035,0.00000017,0.,-0.00000009,
 0.00000106,0.00000025,-0.00000039,0.00000045,0.00000071,0.00000043,0.0
 0000152,-0.00000009,0.00000006,0.00000013,0.00000008,-0.00000092,-0.00
 000136,0.00000099,-0.00000037,-0.00000143,0.00000018,-0.00000068,-0.00
 000142,-0.00000001,0.00000071,0.00000107,-0.00000093\\\@


 KEEP CLOSE TO NATURES HEART, YOURSELF;
 AND BREAK CLEAR AWAY, ONCE IN A WHILE, AND
 CLIMB A MOUNTAIN OR SPEND A WEEK IN THE
 WOODS.  WASH YOUR SPIRIT CLEAN...
                                         -- JOHN MUIR
 File lengths (MBytes):  RWF=     34 Int=      0 D2E=      0 Chk=      2 Scr=      1
 Normal termination of Gaussian 16 at Thu Aug  4 16:18:27 2022.
real 322.56
user 1231.65
sys 8.60
