 Entering Gaussian System, Link 0=g16
 Input=gaussian_test.inp
 Output=gaussian_test.log
 Initial command:
 /sw/restricted/lms/sw/Gaussian/g16_B01/g16/l1.exe "/scratch/user/peterchao1/peterchao1/8625354_1689034688000000095225504/Gau-201614.inp" -scrdir="/scratch/user/peterchao1/peterchao1/8625354_1689034688000000095225504/"
 Entering Link 1 = /sw/restricted/lms/sw/Gaussian/g16_B01/g16/l1.exe PID=    201623.
  
 Copyright (c) 1988-2017, Gaussian, Inc.  All Rights Reserved.
  
 This is part of the Gaussian(R) 16 program.  It is based on
 the Gaussian(R) 09 system (copyright 2009, Gaussian, Inc.),
 the Gaussian(R) 03 system (copyright 2003, Gaussian, Inc.),
 the Gaussian(R) 98 system (copyright 1998, Gaussian, Inc.),
 the Gaussian(R) 94 system (copyright 1995, Gaussian, Inc.),
 the Gaussian 92(TM) system (copyright 1992, Gaussian, Inc.),
 the Gaussian 90(TM) system (copyright 1990, Gaussian, Inc.),
 the Gaussian 88(TM) system (copyright 1988, Gaussian, Inc.),
 the Gaussian 86(TM) system (copyright 1986, Carnegie Mellon
 University), and the Gaussian 82(TM) system (copyright 1983,
 Carnegie Mellon University). Gaussian is a federally registered
 trademark of Gaussian, Inc.
  
 This software contains proprietary and confidential information,
 including trade secrets, belonging to Gaussian, Inc.
  
 This software is provided under written license and may be
 used, copied, transmitted, or stored only in accord with that
 written license.
  
 The following legend is applicable only to US Government
 contracts under FAR:
  
                    RESTRICTED RIGHTS LEGEND
  
 Use, reproduction and disclosure by the US Government is
 subject to restrictions as set forth in subparagraphs (a)
 and (c) of the Commercial Computer Software - Restricted
 Rights clause in FAR 52.227-19.
  
 Gaussian, Inc.
 340 Quinnipiac St., Bldg. 40, Wallingford CT 06492
  
  
 ---------------------------------------------------------------
 Warning -- This program may not be used in any manner that
 competes with the business of Gaussian, Inc. or will provide
 assistance to any competitor of Gaussian, Inc.  The licensee
 of this program is prohibited from giving any competitor of
 Gaussian, Inc. access to this program.  By using this program,
 the user acknowledges that Gaussian, Inc. is engaged in the
 business of creating and licensing software in the field of
 computational chemistry and represents and warrants to the
 licensee that it is not a competitor of Gaussian, Inc. and that
 it will not use this program in any manner prohibited above.
 ---------------------------------------------------------------
  

 Cite this work as:
 Gaussian 16, Revision B.01,
 M. J. Frisch, G. W. Trucks, H. B. Schlegel, G. E. Scuseria, 
 M. A. Robb, J. R. Cheeseman, G. Scalmani, V. Barone, 
 G. A. Petersson, H. Nakatsuji, X. Li, M. Caricato, A. V. Marenich, 
 J. Bloino, B. G. Janesko, R. Gomperts, B. Mennucci, H. P. Hratchian, 
 J. V. Ortiz, A. F. Izmaylov, J. L. Sonnenberg, D. Williams-Young, 
 F. Ding, F. Lipparini, F. Egidi, J. Goings, B. Peng, A. Petrone, 
 T. Henderson, D. Ranasinghe, V. G. Zakrzewski, J. Gao, N. Rega, 
 G. Zheng, W. Liang, M. Hada, M. Ehara, K. Toyota, R. Fukuda, 
 J. Hasegawa, M. Ishida, T. Nakajima, Y. Honda, O. Kitao, H. Nakai, 
 T. Vreven, K. Throssell, J. A. Montgomery, Jr., J. E. Peralta, 
 F. Ogliaro, M. J. Bearpark, J. J. Heyd, E. N. Brothers, K. N. Kudin, 
 V. N. Staroverov, T. A. Keith, R. Kobayashi, J. Normand, 
 K. Raghavachari, A. P. Rendell, J. C. Burant, S. S. Iyengar, 
 J. Tomasi, M. Cossi, J. M. Millam, M. Klene, C. Adamo, R. Cammi, 
 J. W. Ochterski, R. L. Martin, K. Morokuma, O. Farkas, 
 J. B. Foresman, and D. J. Fox, Gaussian, Inc., Wallingford CT, 2016.
 
 ******************************************
 Gaussian 16:  ES64L-G16RevB.01 20-Dec-2017
                10-Jul-2023 
 ******************************************
 %nprocshared=4
 Will use up to    4 processors via shared memory.
 %mem=8000mb
 %chk=13.chk
 %mem=8000mb
 ----------------------------------------------------------------------
 #T wB97XD/def2svpp opt=tight freq int(grid=ultrafine) scf=(verytight,q
 c)
 ----------------------------------------------------------------------
 -------
 comment
 -------
 Symbolic Z-matrix:
 Charge =  1 Multiplicity = 2
 C                    -0.19673  -0.19658   1.5512 
 C                    -0.18739  -0.20219   0.01827 
 C                     0.84271  -1.23053  -0.4923 
 O                     2.13805  -1.01163  -0.01266 
 C                    -1.5725   -0.59269  -0.52451 
 O                    -2.60698   0.27149  -0.12611 
 C                     0.16276   1.1958   -0.52288 
 O                     1.43854   1.6607   -0.11393 
 H                    -0.57109  -1.15909   1.94525 
 H                    -0.83144   0.614     1.95499 
 H                     0.82342  -0.0709    1.94902 
 H                     0.81731  -1.23152  -1.60501 
 H                     0.54776  -2.24367  -0.16371 
 H                     2.33164  -0.06569  -0.13805 
 H                    -1.79155  -1.6415   -0.2331 
 H                    -1.56242  -0.56042  -1.62767 
 H                    -2.77974   0.14091   0.81529 
 H                    -0.63015   1.91316  -0.24147 
 H                     0.20042   1.16352  -1.62499 
 H                     1.39591   1.93388   0.81233 
 

 GradGradGradGradGradGradGradGradGradGradGradGradGradGradGradGradGradGrad
 Initialization pass.
                           ----------------------------
                           !    Initial Parameters    !
                           ! (Angstroms and Degrees)  !
 --------------------------                            --------------------------
 ! Name  Definition              Value          Derivative Info.                !
 --------------------------------------------------------------------------------
 ! R1    R(1,2)                  1.533          estimate D2E/DX2                !
 ! R2    R(1,9)                  1.1054         estimate D2E/DX2                !
 ! R3    R(1,10)                 1.1059         estimate D2E/DX2                !
 ! R4    R(1,11)                 1.1022         estimate D2E/DX2                !
 ! R5    R(2,3)                  1.5425         estimate D2E/DX2                !
 ! R6    R(2,5)                  1.5381         estimate D2E/DX2                !
 ! R7    R(2,7)                  1.5394         estimate D2E/DX2                !
 ! R8    R(3,4)                  1.3985         estimate D2E/DX2                !
 ! R9    R(3,12)                 1.113          estimate D2E/DX2                !
 ! R10   R(3,13)                 1.1052         estimate D2E/DX2                !
 ! R11   R(4,14)                 0.9737         estimate D2E/DX2                !
 ! R12   R(5,6)                  1.4056         estimate D2E/DX2                !
 ! R13   R(5,15)                 1.1104         estimate D2E/DX2                !
 ! R14   R(5,16)                 1.1037         estimate D2E/DX2                !
 ! R15   R(6,17)                 0.966          estimate D2E/DX2                !
 ! R16   R(7,8)                  1.4181         estimate D2E/DX2                !
 ! R17   R(7,18)                 1.1057         estimate D2E/DX2                !
 ! R18   R(7,19)                 1.1032         estimate D2E/DX2                !
 ! R19   R(8,20)                 0.9666         estimate D2E/DX2                !
 ! A1    A(2,1,9)              110.8149         estimate D2E/DX2                !
 ! A2    A(2,1,10)             111.7962         estimate D2E/DX2                !
 ! A3    A(2,1,11)             110.8372         estimate D2E/DX2                !
 ! A4    A(9,1,10)             108.2822         estimate D2E/DX2                !
 ! A5    A(9,1,11)             106.5048         estimate D2E/DX2                !
 ! A6    A(10,1,11)            108.4132         estimate D2E/DX2                !
 ! A7    A(1,2,3)              109.7249         estimate D2E/DX2                !
 ! A8    A(1,2,5)              110.3857         estimate D2E/DX2                !
 ! A9    A(1,2,7)              110.4615         estimate D2E/DX2                !
 ! A10   A(3,2,5)              108.3809         estimate D2E/DX2                !
 ! A11   A(3,2,7)              109.7046         estimate D2E/DX2                !
 ! A12   A(5,2,7)              108.1402         estimate D2E/DX2                !
 ! A13   A(2,3,4)              113.6203         estimate D2E/DX2                !
 ! A14   A(2,3,12)             108.4375         estimate D2E/DX2                !
 ! A15   A(2,3,13)             109.5433         estimate D2E/DX2                !
 ! A16   A(4,3,12)             111.3551         estimate D2E/DX2                !
 ! A17   A(4,3,13)             106.7804         estimate D2E/DX2                !
 ! A18   A(12,3,13)            106.878          estimate D2E/DX2                !
 ! A19   A(3,4,14)             106.9807         estimate D2E/DX2                !
 ! A20   A(2,5,6)              113.9956         estimate D2E/DX2                !
 ! A21   A(2,5,15)             108.9568         estimate D2E/DX2                !
 ! A22   A(2,5,16)             109.6997         estimate D2E/DX2                !
 ! A23   A(6,5,15)             111.1707         estimate D2E/DX2                !
 ! A24   A(6,5,16)             105.7867         estimate D2E/DX2                !
 ! A25   A(15,5,16)            106.9625         estimate D2E/DX2                !
 ! A26   A(5,6,17)             108.9504         estimate D2E/DX2                !
 ! A27   A(2,7,8)              113.6386         estimate D2E/DX2                !
 ! A28   A(2,7,18)             109.6706         estimate D2E/DX2                !
 ! A29   A(2,7,19)             109.4127         estimate D2E/DX2                !
 ! A30   A(8,7,18)             111.0427         estimate D2E/DX2                !
 ! A31   A(8,7,19)             105.484          estimate D2E/DX2                !
 ! A32   A(18,7,19)            107.3209         estimate D2E/DX2                !
 ! A33   A(7,8,20)             109.2266         estimate D2E/DX2                !
 ! D1    D(9,1,2,3)            -66.1145         estimate D2E/DX2                !
 ! D2    D(9,1,2,5)             53.2662         estimate D2E/DX2                !
 ! D3    D(9,1,2,7)            172.8153         estimate D2E/DX2                !
 ! D4    D(10,1,2,3)           172.9905         estimate D2E/DX2                !
 ! D5    D(10,1,2,5)           -67.6288         estimate D2E/DX2                !
 ! D6    D(10,1,2,7)            51.9203         estimate D2E/DX2                !
 ! D7    D(11,1,2,3)            51.9129         estimate D2E/DX2                !
 ! D8    D(11,1,2,5)           171.2936         estimate D2E/DX2                !
 ! D9    D(11,1,2,7)           -69.1573         estimate D2E/DX2                !
 ! D10   D(1,2,3,4)            -56.7314         estimate D2E/DX2                !
 ! D11   D(1,2,3,12)           178.8842         estimate D2E/DX2                !
 ! D12   D(1,2,3,13)            62.5828         estimate D2E/DX2                !
 ! D13   D(5,2,3,4)           -177.3343         estimate D2E/DX2                !
 ! D14   D(5,2,3,12)            58.2813         estimate D2E/DX2                !
 ! D15   D(5,2,3,13)           -58.0201         estimate D2E/DX2                !
 ! D16   D(7,2,3,4)             64.794          estimate D2E/DX2                !
 ! D17   D(7,2,3,12)           -59.5905         estimate D2E/DX2                !
 ! D18   D(7,2,3,13)          -175.8919         estimate D2E/DX2                !
 ! D19   D(1,2,5,6)             59.7176         estimate D2E/DX2                !
 ! D20   D(1,2,5,15)           -65.094          estimate D2E/DX2                !
 ! D21   D(1,2,5,16)           178.1215         estimate D2E/DX2                !
 ! D22   D(3,2,5,6)            179.9092         estimate D2E/DX2                !
 ! D23   D(3,2,5,15)            55.0976         estimate D2E/DX2                !
 ! D24   D(3,2,5,16)           -61.6869         estimate D2E/DX2                !
 ! D25   D(7,2,5,6)            -61.2259         estimate D2E/DX2                !
 ! D26   D(7,2,5,15)           173.9626         estimate D2E/DX2                !
 ! D27   D(7,2,5,16)            57.1781         estimate D2E/DX2                !
 ! D28   D(1,2,7,8)             60.3754         estimate D2E/DX2                !
 ! D29   D(1,2,7,18)           -64.5637         estimate D2E/DX2                !
 ! D30   D(1,2,7,19)           177.9713         estimate D2E/DX2                !
 ! D31   D(3,2,7,8)            -60.7069         estimate D2E/DX2                !
 ! D32   D(3,2,7,18)           174.3541         estimate D2E/DX2                !
 ! D33   D(3,2,7,19)            56.889          estimate D2E/DX2                !
 ! D34   D(5,2,7,8)           -178.7283         estimate D2E/DX2                !
 ! D35   D(5,2,7,18)            56.3326         estimate D2E/DX2                !
 ! D36   D(5,2,7,19)           -61.1324         estimate D2E/DX2                !
 ! D37   D(2,3,4,14)           -47.7382         estimate D2E/DX2                !
 ! D38   D(12,3,4,14)           75.056          estimate D2E/DX2                !
 ! D39   D(13,3,4,14)         -168.6164         estimate D2E/DX2                !
 ! D40   D(2,5,6,17)           -71.0497         estimate D2E/DX2                !
 ! D41   D(15,5,6,17)           52.5727         estimate D2E/DX2                !
 ! D42   D(16,5,6,17)          168.3337         estimate D2E/DX2                !
 ! D43   D(2,7,8,20)           -75.1103         estimate D2E/DX2                !
 ! D44   D(18,7,8,20)           49.0899         estimate D2E/DX2                !
 ! D45   D(19,7,8,20)          165.0399         estimate D2E/DX2                !
 --------------------------------------------------------------------------------
 Number of steps in this run=    107 maximum allowed number of steps=    120.
 GradGradGradGradGradGradGradGradGradGradGradGradGradGradGradGradGradGrad

                    Distance matrix (angstroms):
                    1          2          3          4          5
     1  C    0.000000
     2  C    1.532970   0.000000
     3  C    2.515028   1.542484   0.000000
     4  O    2.925943   2.462484   1.398532   0.000000
     5  C    2.521556   1.538059   2.498218   3.769044   0.000000
     6  O    2.973508   2.469738   3.780271   4.916761   1.405583
     7  C    2.523837   1.539424   2.519987   3.005805   2.491947
     8  O    2.982650   2.476182   2.976133   2.764219   3.783210
     9  H    1.105374   2.185437   2.818788   3.345829   2.724588
    10  H    1.105863   2.198147   3.492027   3.915629   2.855382
    11  H    1.102159   2.183291   2.702801   2.541925   3.482966
    12  H    3.472900   2.168864   1.113003   2.080460   2.699398
    13  H    2.772322   2.177429   1.105178   2.017367   2.711349
    14  H    3.043567   2.527561   1.923347   0.973658   3.958454
    15  H    2.795531   2.169823   2.678693   3.985863   1.110370
    16  H    3.478897   2.174432   2.742765   4.062680   1.103674
    17  H    2.706920   2.733721   4.088121   5.118447   1.946963
    18  H    2.802235   2.176745   3.480662   4.033573   2.692102
    19  H    3.477894   2.171603   2.725251   3.329461   2.727372
    20  H    2.760660   2.774915   3.467211   3.147603   4.120935
                    6          7          8          9         10
     6  O    0.000000
     7  C    2.946729   0.000000
     8  O    4.277413   1.418096   0.000000
     9  H    3.237578   3.489371   4.028647   0.000000
    10  H    2.756960   2.732539   3.244809   1.792125   0.000000
    11  H    4.023803   2.855043   2.762700   1.768850   1.790997
    12  H    4.021428   2.737025   3.312728   3.812775   4.335654
    13  H    4.034819   3.479537   4.005003   2.622185   3.815408
    14  H    4.950123   2.538400   1.943862   3.736504   3.853284
    15  H    2.082278   3.457395   4.620845   2.543119   3.285852
    16  H    2.009439   2.698352   4.028715   3.755918   3.840449
    17  H    0.965986   3.400265   4.578984   2.800883   2.306214
    18  H    2.572208   1.105669   2.087938   3.771468   2.559842
    19  H    3.305125   1.103219   2.015792   4.328549   3.766024
    20  H    4.434781   1.961683   0.966640   3.836537   2.829985
                   11         12         13         14         15
    11  H    0.000000
    12  H    3.738741   0.000000
    13  H    3.043115   1.781701   0.000000
    14  H    2.574988   2.409220   2.815403   0.000000
    15  H    3.750533   2.975967   2.416565   4.415077   0.000000
    16  H    4.327189   2.472650   3.070728   4.198503   1.779347
    17  H    3.783248   4.547543   4.209143   5.203623   2.291857
    18  H    3.293568   3.720669   4.321200   3.563525   3.739593
    19  H    3.832153   2.473290   3.723564   2.874720   3.711263
    20  H    2.374640   4.024679   4.373090   2.403552   4.902667
                   16         17         18         19         20
    16  H    0.000000
    17  H    2.818115   0.000000
    18  H    2.984841   2.979660   0.000000
    19  H    2.465684   3.985230   1.779303   0.000000
    20  H    4.574583   4.544313   2.283818   2.821901   0.000000
 Framework group  C1[X(C5H12O3)]
 Deg. of freedom    54
                         Standard orientation:                         
 ---------------------------------------------------------------------
 Center     Atomic      Atomic             Coordinates (Angstroms)
 Number     Number       Type             X           Y           Z
 ---------------------------------------------------------------------
      1          6           0       -0.196727   -0.196575    1.551200
      2          6           0       -0.187392   -0.202191    0.018269
      3          6           0        0.842705   -1.230529   -0.492298
      4          8           0        2.138050   -1.011631   -0.012655
      5          6           0       -1.572500   -0.592687   -0.524514
      6          8           0       -2.606977    0.271485   -0.126108
      7          6           0        0.162757    1.195799   -0.522883
      8          8           0        1.438539    1.660697   -0.113927
      9          1           0       -0.571088   -1.159087    1.945252
     10          1           0       -0.831437    0.613999    1.954990
     11          1           0        0.823421   -0.070895    1.949015
     12          1           0        0.817306   -1.231518   -1.605011
     13          1           0        0.547757   -2.243670   -0.163710
     14          1           0        2.331635   -0.065686   -0.138047
     15          1           0       -1.791552   -1.641502   -0.233096
     16          1           0       -1.562423   -0.560419   -1.627670
     17          1           0       -2.779741    0.140906    0.815290
     18          1           0       -0.630151    1.913162   -0.241473
     19          1           0        0.200421    1.163522   -1.624986
     20          1           0        1.395905    1.933879    0.812327
 ---------------------------------------------------------------------
 Rotational constants (GHZ):           2.7763413           1.4949202           1.2610486
   136 basis functions,   248 primitive gaussians,   144 cartesian basis functions
    33 alpha electrons       32 beta electrons
       nuclear repulsion energy       433.4963297895 Hartrees.
 NAtoms=   20 NActive=   20 NUniq=   20 SFac= 1.00D+00 NAtFMM=   60 NAOKFM=F Big=F
 Nuclear repulsion after empirical dispersion term =      433.4820595173 Hartrees.
   1 Symmetry operations used in ECPInt.
 ECPInt:  NShTT=    2628 NPrTT=   10580 LenC2=    2607 LenP2D=    8440.
 LDataN:  DoStor=T MaxTD1= 4 Len=   56
 ExpMin= 1.22D-01 ExpMax= 2.27D+03 ExpMxC= 3.41D+02 IAcc=3 IRadAn=         5 AccDes= 0.00D+00
 Harris functional with IExCor= 4639 and IRadAn=       5 diagonalized for initial guess.
 HarFok:  IExCor= 4639 AccDes= 0.00D+00 IRadAn=         5 IDoV= 1 UseB2=F ITyADJ=14
 ICtDFT=  3500011 ScaDFX=  1.000000  1.000000  1.000000  1.000000
 FoFCou: FMM=F IPFlag=           0 FMFlag=      100000 FMFlg1=           0
         NFxFlg=           0 DoJE=T BraDBF=F KetDBF=T FulRan=T
         wScrn=  0.000000 ICntrl=       500 IOpCl=  0 I1Cent=   200000004 NGrid=           0
         NMat0=    1 NMatS0=      1 NMatT0=    0 NMatD0=    1 NMtDS0=    0 NMtDT0=    0
 Petite list used in FoFCou.
 Initial guess <Sx>= 0.0000 <Sy>= 0.0000 <Sz>= 0.5000 <S**2>= 0.7500 S= 0.5000
     Accept linear search using points  2 and  3.
     Accept linear search using points  1 and  2.
     Accept linear search using points  3 and  4.
     Accept linear search using points  1 and  2.
     Minimum is close to point  2 DX=  6.05D-02 DF= -8.34D-07 DXR=  5.70D-02 DFR=  3.26D-03 which will be used.
     Accept linear search using points  1 and  2.
     Accept linear search using points  2 and  3.
     Accept linear search using points  1 and  2.
     Minimum is close to point  3 DX=  1.49D-01 DF= -3.03D-06 DXR=  8.54D-02 DFR=  7.43D-03 which will be used.
     Accept linear search using points  1 and  2.
     Accept linear search using points  2 and  3.
     Accept linear search using points  1 and  2.
     Accept linear search using points  2 and  3.
     Minimum is close to point  3 DX= -2.44D-02 DF= -6.18D-08 DXR=  1.37D-02 DFR=  1.56D-04 which will be used.
     Accept linear search using points  1 and  2.
     Accept linear search using points  1 and  2.
     Accept linear search using points  1 and  2.
     Accept linear search using points  1 and  2.
     Minimum is close to point  2 DX= -4.47D-02 DF= -1.06D-08 DXR=  9.81D-02 DFR=  1.96D-04 which will be used.
     Accept linear search using points  1 and  2.
     Minimum is close to point  2 DX= -5.99D-02 DF= -3.12D-07 DXR=  6.38D-02 DFR=  4.52D-03 which will be used.
     Minimum is close to point  2 DX=  4.12D-02 DF= -1.12D-08 DXR=  3.95D-02 DFR=  1.57D-03 which will be used.
 SCF Done:  E(UwB97XD) =  -422.571322538     a.u. after   25 cycles
            Convg  =    0.1765D-07                   153 Fock formations.
              S**2 =  0.7548                  -V/T =  2.0083
 <Sx>= 0.0000 <Sy>= 0.0000 <Sz>= 0.5000 <S**2>= 0.7548 S= 0.5024
 <L.S>=  0.00000000000    
 Annihilation of the first spin contaminant:
 S**2 before annihilation     0.7548,   after     0.7500

 **********************************************************************

            Population analysis using the SCF Density.

 **********************************************************************

 Orbital symmetries:
 Alpha Orbitals:
       Occupied  (A) (A) (A) (A) (A) (A) (A) (A) (A) (A) (A) (A)
                 (A) (A) (A) (A) (A) (A) (A) (A) (A) (A) (A) (A)
                 (A) (A) (A) (A) (A) (A) (A) (A) (A)
       Virtual   (A) (A) (A) (A) (A) (A) (A) (A) (A) (A) (A) (A)
                 (A) (A) (A) (A) (A) (A) (A) (A) (A) (A) (A) (A)
                 (A) (A) (A) (A) (A) (A) (A) (A) (A) (A) (A) (A)
                 (A) (A) (A) (A) (A) (A) (A) (A) (A) (A) (A) (A)
                 (A) (A) (A) (A) (A) (A) (A) (A) (A) (A) (A) (A)
                 (A) (A) (A) (A) (A) (A) (A) (A) (A) (A) (A) (A)
                 (A) (A) (A) (A) (A) (A) (A) (A) (A) (A) (A) (A)
                 (A) (A) (A) (A) (A) (A) (A) (A) (A) (A) (A) (A)
                 (A) (A) (A) (A) (A) (A) (A)
 Beta  Orbitals:
       Occupied  (A) (A) (A) (A) (A) (A) (A) (A) (A) (A) (A) (A)
                 (A) (A) (A) (A) (A) (A) (A) (A) (A) (A) (A) (A)
                 (A) (A) (A) (A) (A) (A) (A) (A)
       Virtual   (A) (A) (A) (A) (A) (A) (A) (A) (A) (A) (A) (A)
                 (A) (A) (A) (A) (A) (A) (A) (A) (A) (A) (A) (A)
                 (A) (A) (A) (A) (A) (A) (A) (A) (A) (A) (A) (A)
                 (A) (A) (A) (A) (A) (A) (A) (A) (A) (A) (A) (A)
                 (A) (A) (A) (A) (A) (A) (A) (A) (A) (A) (A) (A)
                 (A) (A) (A) (A) (A) (A) (A) (A) (A) (A) (A) (A)
                 (A) (A) (A) (A) (A) (A) (A) (A) (A) (A) (A) (A)
                 (A) (A) (A) (A) (A) (A) (A) (A) (A) (A) (A) (A)
                 (A) (A) (A) (A) (A) (A) (A) (A)
 The electronic state is 2-A.
 Alpha  occ. eigenvalues --  -19.55777 -19.50907 -19.42400 -10.57672 -10.55164
 Alpha  occ. eigenvalues --  -10.54056 -10.52220 -10.47736  -1.40467  -1.35589
 Alpha  occ. eigenvalues --   -1.28838  -1.12897  -1.00224  -0.98744  -0.95665
 Alpha  occ. eigenvalues --   -0.88614  -0.84914  -0.81554  -0.80355  -0.77418
 Alpha  occ. eigenvalues --   -0.75233  -0.74985  -0.73248  -0.70039  -0.69012
 Alpha  occ. eigenvalues --   -0.66872  -0.66343  -0.64627  -0.63203  -0.61411
 Alpha  occ. eigenvalues --   -0.59817  -0.58090  -0.53280
 Alpha virt. eigenvalues --   -0.06400  -0.03136  -0.02212  -0.01240   0.00272
 Alpha virt. eigenvalues --    0.01655   0.03338   0.03712   0.05049   0.06405
 Alpha virt. eigenvalues --    0.06698   0.07844   0.08900   0.09427   0.10773
 Alpha virt. eigenvalues --    0.12858   0.13772   0.15233   0.18873   0.30324
 Alpha virt. eigenvalues --    0.30542   0.33934   0.36404   0.39565   0.42104
 Alpha virt. eigenvalues --    0.45026   0.45433   0.45574   0.48228   0.50464
 Alpha virt. eigenvalues --    0.51187   0.53193   0.55538   0.56244   0.56804
 Alpha virt. eigenvalues --    0.57997   0.59056   0.59610   0.60807   0.61593
 Alpha virt. eigenvalues --    0.62701   0.64033   0.64429   0.65772   0.66520
 Alpha virt. eigenvalues --    0.72226   0.75215   0.80692   0.85831   0.91818
 Alpha virt. eigenvalues --    0.92666   0.95377   0.99473   1.00898   1.01422
 Alpha virt. eigenvalues --    1.03782   1.05921   1.12716   1.15313   1.24679
 Alpha virt. eigenvalues --    1.27616   1.33754   1.39370   1.43214   1.52806
 Alpha virt. eigenvalues --    1.57390   1.58292   1.59827   1.66603   1.69117
 Alpha virt. eigenvalues --    1.70769   1.80067   1.83770   1.85146   1.89898
 Alpha virt. eigenvalues --    1.92917   1.93968   1.96089   2.00761   2.02977
 Alpha virt. eigenvalues --    2.03863   2.05304   2.07880   2.31196   2.35161
 Alpha virt. eigenvalues --    2.39958   2.41798   2.46704   2.51675   2.54241
 Alpha virt. eigenvalues --    2.56041   2.66295   2.67568   2.74625   2.76389
 Alpha virt. eigenvalues --    2.82566   2.83436   2.85706   2.91072   2.93349
 Alpha virt. eigenvalues --    3.21431   3.23547   3.30717
  Beta  occ. eigenvalues --  -19.54636 -19.50443 -19.42346 -10.57564 -10.55116
  Beta  occ. eigenvalues --  -10.53802 -10.52233 -10.47743  -1.37822  -1.34370
  Beta  occ. eigenvalues --   -1.28696  -1.11893  -0.99151  -0.98449  -0.95396
  Beta  occ. eigenvalues --   -0.87458  -0.84245  -0.80123  -0.79700  -0.75674
  Beta  occ. eigenvalues --   -0.74525  -0.74039  -0.72145  -0.68540  -0.67383
  Beta  occ. eigenvalues --   -0.65698  -0.64346  -0.64227  -0.61849  -0.58279
  Beta  occ. eigenvalues --   -0.56949  -0.52852
  Beta virt. eigenvalues --   -0.37359  -0.06136  -0.02974  -0.02046  -0.00855
  Beta virt. eigenvalues --    0.00475   0.01994   0.03547   0.03840   0.05238
  Beta virt. eigenvalues --    0.06751   0.06922   0.08040   0.09095   0.09585
  Beta virt. eigenvalues --    0.11124   0.13247   0.14720   0.15675   0.19231
  Beta virt. eigenvalues --    0.30671   0.30893   0.34112   0.36536   0.39818
  Beta virt. eigenvalues --    0.42504   0.45255   0.45872   0.46232   0.48501
  Beta virt. eigenvalues --    0.50676   0.51417   0.53902   0.56027   0.56465
  Beta virt. eigenvalues --    0.57304   0.58225   0.59280   0.60040   0.61150
  Beta virt. eigenvalues --    0.61908   0.62860   0.64259   0.64525   0.66012
  Beta virt. eigenvalues --    0.66618   0.72391   0.75518   0.81159   0.86365
  Beta virt. eigenvalues --    0.92129   0.93716   0.96715   0.99931   1.01402
  Beta virt. eigenvalues --    1.02746   1.04179   1.06081   1.13229   1.15768
  Beta virt. eigenvalues --    1.25216   1.28299   1.34220   1.39765   1.43845
  Beta virt. eigenvalues --    1.53196   1.57622   1.58859   1.60322   1.67109
  Beta virt. eigenvalues --    1.69907   1.71051   1.80538   1.84201   1.85429
  Beta virt. eigenvalues --    1.90158   1.93073   1.94253   1.96620   2.00958
  Beta virt. eigenvalues --    2.03142   2.04008   2.05719   2.08176   2.31834
  Beta virt. eigenvalues --    2.35913   2.41209   2.44647   2.48327   2.52437
  Beta virt. eigenvalues --    2.54671   2.56554   2.67153   2.69144   2.74926
  Beta virt. eigenvalues --    2.78721   2.84341   2.85408   2.86897   2.91456
  Beta virt. eigenvalues --    2.93435   3.22623   3.24224   3.30882
          Condensed to atoms (all electrons):
          Atomic-Atomic Spin Densities.
 Mulliken charges and spin densities:
               1          2
     1  C   -0.349496   0.002911
     2  C   -0.411984   0.157930
     3  C    0.039502   0.049052
     4  O   -0.241205   0.469729
     5  C    0.058164  -0.005254
     6  O   -0.447912   0.022288
     7  C    0.031532   0.023417
     8  O   -0.410077   0.184163
     9  H    0.184455   0.004856
    10  H    0.179747   0.010668
    11  H    0.156750  -0.002577
    12  H    0.213679   0.052512
    13  H    0.198084   0.001128
    14  H    0.382004  -0.015314
    15  H    0.155837   0.009314
    16  H    0.152039   0.001135
    17  H    0.344591  -0.000284
    18  H    0.214146   0.042703
    19  H    0.174448  -0.002270
    20  H    0.375696  -0.006107
 Sum of Mulliken charges =   1.00000   1.00000
 Mulliken charges and spin densities with hydrogens summed into heavy atoms:
               1          2
     1  C    0.171456   0.015857
     2  C   -0.411984   0.157930
     3  C    0.451265   0.102693
     4  O    0.140799   0.454415
     5  C    0.366040   0.005195
     6  O   -0.103321   0.022003
     7  C    0.420126   0.063850
     8  O   -0.034381   0.178056
 Electronic spatial extent (au):  <R**2>=           1026.8556
 Charge=              1.0000 electrons
 Dipole moment (field-independent basis, Debye):
    X=              1.5639    Y=             -0.4537    Z=              1.1287  Tot=              1.9813
                          Isotropic Fermi Contact Couplings
        Atom                 a.u.       MegaHertz       Gauss      10(-4) cm-1
     1  C(13)             -0.00837      -9.40419      -3.35565      -3.13690
     2  C(13)              0.00456       5.12777       1.82971       1.71044
     3  C(13)             -0.01706     -19.18380      -6.84526      -6.39903
     4  O(17)              0.17532    -106.27608     -37.92195     -35.44989
     5  C(13)             -0.01041     -11.70263      -4.17579      -3.90358
     6  O(17)              0.00405      -2.45232      -0.87505      -0.81801
     7  C(13)             -0.01086     -12.20890      -4.35644      -4.07245
     8  O(17)              0.07213     -43.72247     -15.60127     -14.58425
     9  H(1)               0.00239      10.67404       3.80876       3.56048
    10  H(1)               0.00472      21.09811       7.52833       7.03757
    11  H(1)              -0.00015      -0.66765      -0.23823      -0.22270
    12  H(1)               0.02511     112.24923      40.05332      37.44231
    13  H(1)               0.00059       2.63304       0.93953       0.87829
    14  H(1)              -0.00518     -23.15366      -8.26180      -7.72323
    15  H(1)               0.00396      17.68709       6.31119       5.89978
    16  H(1)               0.00094       4.20889       1.50184       1.40393
    17  H(1)               0.00011       0.51237       0.18283       0.17091
    18  H(1)               0.02117      94.62953      33.76617      31.56501
    19  H(1)              -0.00072      -3.20876      -1.14496      -1.07033
    20  H(1)              -0.00265     -11.82556      -4.21965      -3.94458
 --------------------------------------------------------
       Center         ----  Spin Dipole Couplings  ----
                      3XX-RR        3YY-RR        3ZZ-RR
 --------------------------------------------------------
     1   Atom       -0.007898      0.003257      0.004642
     2   Atom       -0.057644      0.195766     -0.138122
     3   Atom        0.003756     -0.008276      0.004520
     4   Atom       -0.369704     -0.393436      0.763140
     5   Atom        0.003186     -0.001830     -0.001356
     6   Atom        0.034326     -0.002026     -0.032299
     7   Atom       -0.034885      0.081032     -0.046147
     8   Atom       -0.272614      0.582337     -0.309724
     9   Atom       -0.000754     -0.002853      0.003606
    10   Atom        0.000598     -0.002641      0.002044
    11   Atom       -0.002614     -0.004520      0.007134
    12   Atom       -0.010450     -0.012072      0.022521
    13   Atom       -0.003273      0.012374     -0.009101
    14   Atom       -0.042369      0.080065     -0.037696
    15   Atom        0.004475      0.000350     -0.004824
    16   Atom        0.003004     -0.003497      0.000493
    17   Atom        0.001991     -0.004371      0.002380
    18   Atom        0.007926     -0.001547     -0.006380
    19   Atom       -0.005467     -0.001377      0.006844
    20   Atom       -0.024595     -0.005229      0.029824
 --------------------------------------------------------
                        XY            XZ            YZ
 --------------------------------------------------------
     1   Atom        0.000322     -0.003928      0.010153
     2   Atom       -0.166865     -0.017053      0.045321
     3   Atom       -0.079181     -0.082609      0.100689
     4   Atom       -0.558257     -0.983952      0.987384
     5   Atom       -0.004192      0.005153     -0.007452
     6   Atom       -0.063792      0.037937     -0.030350
     7   Atom       -0.023948      0.008210     -0.024307
     8   Atom       -0.329376      0.096127     -0.266777
     9   Atom        0.001252     -0.004696     -0.003728
    10   Atom       -0.002668     -0.003929      0.001476
    11   Atom       -0.002742     -0.003577      0.003058
    12   Atom       -0.000724      0.009484     -0.005356
    13   Atom        0.009298     -0.003599     -0.005048
    14   Atom        0.032342     -0.020892     -0.029618
    15   Atom        0.004557      0.000174      0.000713
    16   Atom       -0.000156      0.004393      0.001438
    17   Atom       -0.000624     -0.003416     -0.000499
    18   Atom       -0.009943     -0.006534      0.003463
    19   Atom       -0.002036      0.001259     -0.002032
    20   Atom       -0.003845     -0.000123      0.014693
 --------------------------------------------------------


 ---------------------------------------------------------------------------------
              Anisotropic Spin Dipole Couplings in Principal Axis System
 ---------------------------------------------------------------------------------

       Atom             a.u.   MegaHertz   Gauss  10(-4) cm-1        Axes

              Baa    -0.0103    -1.380    -0.492    -0.460  0.8087 -0.3650  0.4612
     1 C(13)  Bbb    -0.0042    -0.559    -0.199    -0.186  0.5758  0.6513 -0.4942
              Bcc     0.0144     1.938     0.692     0.647 -0.1200  0.6652  0.7369
 
              Baa    -0.1471   -19.744    -7.045    -6.586 -0.4855 -0.3426  0.8043
     2 C(13)  Bbb    -0.1369   -18.377    -6.557    -6.130  0.7551  0.2993  0.5833
              Bcc     0.2841    38.121    13.602    12.716 -0.4405  0.8906  0.1134
 
              Baa    -0.1028   -13.795    -4.923    -4.602  0.0289  0.7400 -0.6720
     3 C(13)  Bbb    -0.0725    -9.732    -3.472    -3.246  0.8314  0.3554  0.4271
              Bcc     0.1753    23.527     8.395     7.848 -0.5549  0.5711  0.6050
 
              Baa    -0.9602    69.480    24.792    23.176 -0.1562  0.8159 -0.5566
     4 O(17)  Bbb    -0.9342    67.596    24.120    22.548  0.8808  0.3701  0.2953
              Bcc     1.8944  -137.076   -48.912   -45.724 -0.4470  0.4442  0.7765
 
              Baa    -0.0091    -1.219    -0.435    -0.407 -0.0613  0.6978  0.7137
     5 C(13)  Bbb    -0.0022    -0.295    -0.105    -0.098  0.7713  0.4870 -0.4098
              Bcc     0.0113     1.514     0.540     0.505  0.6335 -0.5253  0.5680
 
              Baa    -0.0514     3.721     1.328     1.241  0.2447  0.7171  0.6526
     6 O(17)  Bbb    -0.0489     3.535     1.261     1.179 -0.6175 -0.4037  0.6751
              Bcc     0.1003    -7.256    -2.589    -2.420  0.7475 -0.5682  0.3440
 
              Baa    -0.0518    -6.946    -2.478    -2.317 -0.2893  0.1216  0.9495
     7 C(13)  Bbb    -0.0388    -5.201    -1.856    -1.735  0.9370  0.2390  0.2548
              Bcc     0.0905    12.147     4.334     4.052 -0.1960  0.9634 -0.1831
 
              Baa    -0.3893    28.173    10.053     9.397  0.7442  0.0699 -0.6643
     8 O(17)  Bbb    -0.3797    27.474     9.803     9.164  0.5902  0.3970  0.7029
              Bcc     0.7690   -55.647   -19.856   -18.562 -0.3128  0.9152 -0.2542
 
              Baa    -0.0049    -2.616    -0.933    -0.872  0.3865  0.7472  0.5407
     9 H(1)   Bbb    -0.0031    -1.631    -0.582    -0.544  0.7852 -0.5741  0.2321
              Bcc     0.0080     4.247     1.515     1.417 -0.4839 -0.3348  0.8086
 
              Baa    -0.0043    -2.272    -0.811    -0.758  0.5789  0.7965  0.1744
    10 H(1)   Bbb    -0.0020    -1.057    -0.377    -0.353  0.5083 -0.5198  0.6867
              Bcc     0.0062     3.329     1.188     1.110 -0.6376  0.3089  0.7057
 
              Baa    -0.0065    -3.462    -1.235    -1.155  0.5509  0.8335 -0.0424
    11 H(1)   Bbb    -0.0029    -1.522    -0.543    -0.508  0.7658 -0.4846  0.4227
              Bcc     0.0093     4.984     1.778     1.662 -0.3317  0.2653  0.9053
 
              Baa    -0.0136    -7.249    -2.587    -2.418  0.6969 -0.6598 -0.2809
    12 H(1)   Bbb    -0.0122    -6.523    -2.328    -2.176  0.6710  0.7382 -0.0693
              Bcc     0.0258    13.773     4.914     4.594  0.2531 -0.1402  0.9572
 
              Baa    -0.0108    -5.786    -2.065    -1.930  0.3789  0.0492  0.9241
    13 H(1)   Bbb    -0.0072    -3.856    -1.376    -1.286  0.8244 -0.4717 -0.3129
              Bcc     0.0181     9.642     3.441     3.216  0.4205  0.8804 -0.2193
 
              Baa    -0.0613   -32.681   -11.662   -10.901  0.7749 -0.0452  0.6304
    14 H(1)   Bbb    -0.0354   -18.886    -6.739    -6.300 -0.5785  0.3509  0.7363
              Bcc     0.0966    51.567    18.401    17.201  0.2545  0.9353 -0.2458
 
              Baa    -0.0050    -2.644    -0.943    -0.882  0.0777 -0.1981  0.9771
    15 H(1)   Bbb    -0.0025    -1.324    -0.473    -0.442 -0.5395  0.8158  0.2083
              Bcc     0.0074     3.968     1.416     1.324  0.8384  0.5434  0.0435
 
              Baa    -0.0045    -2.389    -0.853    -0.797  0.3168  0.7991 -0.5110
    16 H(1)   Bbb    -0.0019    -1.011    -0.361    -0.337 -0.5253  0.5964  0.6070
              Bcc     0.0064     3.401     1.213     1.134  0.7898  0.0761  0.6086
 
              Baa    -0.0046    -2.434    -0.869    -0.812  0.1737  0.9725  0.1554
    17 H(1)   Bbb    -0.0010    -0.558    -0.199    -0.186  0.7053 -0.2330  0.6695
              Bcc     0.0056     2.992     1.068     0.998 -0.6873  0.0066  0.7264
 
              Baa    -0.0090    -4.798    -1.712    -1.600  0.4547  0.2040  0.8670
    18 H(1)   Bbb    -0.0076    -4.045    -1.443    -1.349  0.3730  0.8403 -0.3934
              Bcc     0.0166     8.843     3.155     2.950  0.8088 -0.5023 -0.3060
 
              Baa    -0.0063    -3.372    -1.203    -1.125  0.9287  0.3694 -0.0318
    19 H(1)   Bbb    -0.0012    -0.653    -0.233    -0.218 -0.3466  0.8954  0.2796
              Bcc     0.0075     4.025     1.436     1.342  0.1318 -0.2486  0.9596
 
              Baa    -0.0255   -13.597    -4.852    -4.535  0.9722  0.2267 -0.0581
    20 H(1)   Bbb    -0.0097    -5.185    -1.850    -1.730 -0.2328  0.9114 -0.3394
              Bcc     0.0352    18.782     6.702     6.265 -0.0240  0.3435  0.9389
 

 ---------------------------------------------------------------------------------

   1 Symmetry operations used in ECPInt.
 ECPInt:  NShTT=    2628 NPrTT=   10580 LenC2=    2607 LenP2D=    8440.
 LDataN:  DoStor=T MaxTD1= 5 Len=  102
 Calling FoFJK, ICntrl=      2127 FMM=F ISym2X=0 I1Cent= 0 IOpClX= 1 NMat=1 NMatS=1 NMatT=0.

 GradGradGradGradGradGradGradGradGradGradGradGradGradGradGradGradGradGrad
 FormGI is forming the generalized inverse of G from B-inverse, IUseBI=4.
 Internal  Forces:  Max     0.022270937 RMS     0.006139760
 Step number   1 out of a maximum of  107
 All quantities printed in internal units (Hartrees-Bohrs-Radians)
 Mixed Optimization -- RFO/linear search
 Second derivative matrix not updated -- first step.
 ITU=  0
     Eigenvalues ---    0.00230   0.00244   0.00263   0.00330   0.01452
     Eigenvalues ---    0.01618   0.01711   0.04567   0.04600   0.04607
     Eigenvalues ---    0.04656   0.04709   0.05026   0.05368   0.05571
     Eigenvalues ---    0.05759   0.05794   0.05837   0.11807   0.11808
     Eigenvalues ---    0.11869   0.14064   0.14082   0.14104   0.14273
     Eigenvalues ---    0.14518   0.16000   0.16000   0.16000   0.16000
     Eigenvalues ---    0.16000   0.16000   0.22043   0.22045   0.22052
     Eigenvalues ---    0.28300   0.28570   0.28692   0.29151   0.32284
     Eigenvalues ---    0.32561   0.33042   0.33063   0.33095   0.33116
     Eigenvalues ---    0.33279   0.33329   0.33444   0.42748   0.44708
     Eigenvalues ---    0.45865   0.52636   0.54069   0.54206
 Linear search not attempted -- first point.
 Iteration  1 RMS(Cart)=  0.11803807 RMS(Int)=  0.00679560
 Iteration  2 RMS(Cart)=  0.00884406 RMS(Int)=  0.00079037
 Iteration  3 RMS(Cart)=  0.00006227 RMS(Int)=  0.00078940
 Iteration  4 RMS(Cart)=  0.00000008 RMS(Int)=  0.00078940
 Variable       Old X    -DE/DX   Delta X   Delta X   Delta X     New X
                                 (Linear)    (Quad)   (Total)
    R1        2.89689   0.00123   0.00000   0.00390   0.00390   2.90079
    R2        2.08885  -0.00078   0.00000  -0.00221  -0.00221   2.08665
    R3        2.08978  -0.00171   0.00000  -0.00484  -0.00484   2.08494
    R4        2.08278   0.00026   0.00000   0.00073   0.00073   2.08351
    R5        2.91487   0.01844   0.00000   0.06012   0.06012   2.97500
    R6        2.90651   0.00215   0.00000   0.00691   0.00691   2.91342
    R7        2.90909  -0.00182   0.00000  -0.00588  -0.00588   2.90321
    R8        2.64284  -0.02120   0.00000  -0.04394  -0.04394   2.59891
    R9        2.10327   0.00093   0.00000   0.00269   0.00269   2.10596
   R10        2.08848  -0.00234   0.00000  -0.00660  -0.00660   2.08188
   R11        1.83995   0.02227   0.00000   0.04048   0.04048   1.88043
   R12        2.65617  -0.01020   0.00000  -0.02167  -0.02167   2.63450
   R13        2.09829  -0.00070   0.00000  -0.00200  -0.00200   2.09630
   R14        2.08564   0.00021   0.00000   0.00059   0.00059   2.08624
   R15        1.82545   0.00290   0.00000   0.00513   0.00513   1.83058
   R16        2.67981  -0.01146   0.00000  -0.02539  -0.02539   2.65442
   R17        2.08941   0.00206   0.00000   0.00582   0.00582   2.09523
   R18        2.08478  -0.00098   0.00000  -0.00274  -0.00274   2.08205
   R19        1.82668   0.00810   0.00000   0.01434   0.01434   1.84103
    A1        1.93409   0.00108   0.00000   0.00594   0.00571   1.93980
    A2        1.95121  -0.00382   0.00000  -0.02474  -0.02467   1.92654
    A3        1.93447   0.00508   0.00000   0.03149   0.03142   1.96590
    A4        1.88988   0.00019   0.00000  -0.00611  -0.00620   1.88368
    A5        1.85886  -0.00177   0.00000  -0.00190  -0.00223   1.85662
    A6        1.89217  -0.00079   0.00000  -0.00451  -0.00430   1.88787
    A7        1.91506   0.00350   0.00000   0.00994   0.00937   1.92443
    A8        1.92659  -0.00324   0.00000   0.01670   0.01538   1.94197
    A9        1.92792   0.00351   0.00000   0.02334   0.02141   1.94932
   A10        1.89160   0.00261   0.00000   0.01355   0.01431   1.90592
   A11        1.91471  -0.01222   0.00000  -0.10948  -0.10895   1.80576
   A12        1.88740   0.00572   0.00000   0.04505   0.04420   1.93160
   A13        1.98305  -0.01326   0.00000  -0.06563  -0.06727   1.91578
   A14        1.89259   0.00207   0.00000  -0.01053  -0.01374   1.87885
   A15        1.91189   0.00039   0.00000   0.01278   0.01348   1.92537
   A16        1.94351  -0.00057   0.00000  -0.04421  -0.04748   1.89604
   A17        1.86367   0.00869   0.00000   0.05959   0.06032   1.92399
   A18        1.86537   0.00373   0.00000   0.05740   0.05768   1.92306
   A19        1.86717   0.01067   0.00000   0.05808   0.05808   1.92525
   A20        1.98960  -0.00865   0.00000  -0.03669  -0.03672   1.95288
   A21        1.90165   0.00256   0.00000   0.01217   0.01228   1.91393
   A22        1.91462   0.00084   0.00000  -0.00151  -0.00161   1.91301
   A23        1.94029   0.00337   0.00000   0.01656   0.01662   1.95691
   A24        1.84633   0.00309   0.00000   0.00929   0.00904   1.85536
   A25        1.86685  -0.00081   0.00000   0.00190   0.00182   1.86867
   A26        1.90154   0.00773   0.00000   0.04206   0.04206   1.94360
   A27        1.98337  -0.01563   0.00000  -0.07007  -0.07067   1.91270
   A28        1.91411  -0.00220   0.00000  -0.02929  -0.02996   1.88415
   A29        1.90961   0.00548   0.00000   0.03149   0.03212   1.94173
   A30        1.93806   0.00816   0.00000   0.02665   0.02418   1.96224
   A31        1.84104   0.00452   0.00000   0.02311   0.02355   1.86459
   A32        1.87310   0.00083   0.00000   0.02628   0.02611   1.89921
   A33        1.90636   0.00674   0.00000   0.03670   0.03670   1.94306
    D1       -1.15392  -0.00549   0.00000  -0.05173  -0.05220  -1.20611
    D2        0.92967  -0.00208   0.00000  -0.01841  -0.01828   0.91139
    D3        3.01620   0.00520   0.00000   0.06322   0.06337   3.07957
    D4        3.01925  -0.00387   0.00000  -0.03119  -0.03167   2.98758
    D5       -1.18035  -0.00047   0.00000   0.00214   0.00224  -1.17810
    D6        0.90618   0.00682   0.00000   0.08376   0.08390   0.99008
    D7        0.90605  -0.00379   0.00000  -0.03039  -0.03065   0.87540
    D8        2.98964  -0.00038   0.00000   0.00294   0.00327   2.99290
    D9       -1.20702   0.00690   0.00000   0.08456   0.08492  -1.12210
   D10       -0.99015  -0.00635   0.00000  -0.14104  -0.14071  -1.13086
   D11        3.12212   0.00216   0.00000  -0.02951  -0.03062   3.09150
   D12        1.09228  -0.00367   0.00000  -0.09913  -0.09965   0.99263
   D13       -3.09507  -0.00609   0.00000  -0.17564  -0.17461   3.01351
   D14        1.01720   0.00242   0.00000  -0.06412  -0.06452   0.95268
   D15       -1.01264  -0.00342   0.00000  -0.13374  -0.13355  -1.14620
   D16        1.13087  -0.00758   0.00000  -0.17583  -0.17490   0.95596
   D17       -1.04005   0.00092   0.00000  -0.06430  -0.06482  -1.10487
   D18       -3.06989  -0.00491   0.00000  -0.13392  -0.13385   3.07945
   D19        1.04227   0.00090   0.00000   0.01166   0.01169   1.05396
   D20       -1.13610   0.00077   0.00000   0.00709   0.00721  -1.12889
   D21        3.10881  -0.00019   0.00000  -0.00134  -0.00118   3.10763
   D22        3.14001   0.00486   0.00000   0.04230   0.04223  -3.10095
   D23        0.96164   0.00473   0.00000   0.03773   0.03775   0.99939
   D24       -1.07664   0.00377   0.00000   0.02930   0.02936  -1.04728
   D25       -1.06859  -0.00504   0.00000  -0.05543  -0.05561  -1.12421
   D26        3.03622  -0.00517   0.00000  -0.06000  -0.06009   2.97613
   D27        0.99795  -0.00614   0.00000  -0.06843  -0.06848   0.92947
   D28        1.05375  -0.00154   0.00000  -0.04300  -0.04236   1.01139
   D29       -1.12685   0.00101   0.00000  -0.00324  -0.00420  -1.13104
   D30        3.10618  -0.00193   0.00000  -0.03645  -0.03673   3.06946
   D31       -1.05953  -0.00020   0.00000   0.00094   0.00127  -1.05827
   D32        3.04305   0.00235   0.00000   0.04070   0.03943   3.08249
   D33        0.99290  -0.00059   0.00000   0.00749   0.00690   0.99980
   D34       -3.11940   0.00022   0.00000   0.02004   0.02158  -3.09782
   D35        0.98319   0.00276   0.00000   0.05980   0.05975   1.04294
   D36       -1.06696  -0.00017   0.00000   0.02658   0.02722  -1.03974
   D37       -0.83319  -0.00476   0.00000  -0.12728  -0.12940  -0.96259
   D38        1.30997  -0.01238   0.00000  -0.22436  -0.22243   1.08755
   D39       -2.94291  -0.00312   0.00000  -0.14417  -0.14398  -3.08689
   D40       -1.24005  -0.00263   0.00000  -0.05978  -0.05974  -1.29979
   D41        0.91757  -0.00313   0.00000  -0.05836  -0.05849   0.85908
   D42        2.93798  -0.00066   0.00000  -0.04255  -0.04246   2.89551
   D43       -1.31092   0.00134   0.00000  -0.01672  -0.01651  -1.32744
   D44        0.85678  -0.00705   0.00000  -0.08809  -0.08884   0.76794
   D45        2.88049   0.00051   0.00000  -0.03086  -0.03032   2.85017
         Item               Value     Threshold  Converged?
 Maximum Force            0.022271     0.000015     NO 
 RMS     Force            0.006140     0.000010     NO 
 Maximum Displacement     0.565145     0.000060     NO 
 RMS     Displacement     0.119328     0.000040     NO 
 GradGradGradGradGradGradGradGradGradGradGradGradGradGradGradGradGradGrad

                    Distance matrix (angstroms):
                    1          2          3          4          5
     1  C    0.000000
     2  C    1.535034   0.000000
     3  C    2.551182   1.574300   0.000000
     4  O    2.961637   2.415413   1.375281   0.000000
     5  C    2.539684   1.541717   2.540039   3.743943   0.000000
     6  O    2.957431   2.433770   3.792050   4.836417   1.394116
     7  C    2.541575   1.536312   2.442294   2.724417   2.531697
     8  O    2.900103   2.404241   2.782622   2.316780   3.762493
     9  H    1.104206   2.190505   2.880941   3.474423   2.743059
    10  H    1.103301   2.180214   3.513292   3.904201   2.852984
    11  H    1.102545   2.207890   2.750263   2.622376   3.512098
    12  H    3.496903   2.187294   1.114424   2.028007   2.703382
    13  H    2.776163   2.212792   1.101686   2.037958   2.831670
    14  H    3.235066   2.561652   1.957431   0.995081   3.940698
    15  H    2.822908   2.181345   2.745864   4.049122   1.109312
    16  H    3.492463   2.176697   2.765974   3.988976   1.103988
    17  H    2.743719   2.749558   4.155222   5.130447   1.966144
    18  H    2.801052   2.154004   3.423291   3.768890   2.743786
    19  H    3.503632   2.191185   2.645602   3.015832   2.790166
    20  H    2.691156   2.730756   3.330877   2.806169   4.125865
                    6          7          8          9         10
     6  O    0.000000
     7  C    2.985560   0.000000
     8  O    4.275927   1.404660   0.000000
     9  H    3.228536   3.505508   3.928715   0.000000
    10  H    2.721565   2.770009   3.225642   1.785083   0.000000
    11  H    4.008290   2.863495   2.659356   1.766747   1.786453
    12  H    4.000570   2.662084   3.181152   3.852276   4.339548
    13  H    4.129610   3.426040   3.771622   2.666416   3.826763
    14  H    4.878298   2.265909   1.559019   3.988876   3.981719
    15  H    2.083013   3.486806   4.569285   2.576578   3.292927
    16  H    2.006619   2.717324   4.013277   3.774622   3.833032
    17  H    0.968702   3.490777   4.620754   2.832725   2.322307
    18  H    2.635917   1.108749   2.095417   3.783557   2.576129
    19  H    3.372427   1.101771   2.020717   4.355950   3.803940
    20  H    4.450426   1.979315   0.974229   3.751997   2.828619
                   11         12         13         14         15
    11  H    0.000000
    12  H    3.791605   0.000000
    13  H    3.009082   1.817373   0.000000
    14  H    2.881136   2.320149   2.878030   0.000000
    15  H    3.789020   2.996179   2.584467   4.484006   0.000000
    16  H    4.354884   2.461202   3.191746   4.079682   1.779945
    17  H    3.816709   4.574235   4.340642   5.256981   2.311896
    18  H    3.265307   3.658564   4.303955   3.301963   3.788767
    19  H    3.849575   2.384522   3.689003   2.480263   3.757536
    20  H    2.258136   3.940937   4.175563   2.229716   4.882351
                   16         17         18         19         20
    16  H    0.000000
    17  H    2.832250   0.000000
    18  H    3.018476   3.087383   0.000000
    19  H    2.516794   4.088215   1.797566   0.000000
    20  H    4.581778   4.606293   2.301542   2.843829   0.000000
 Framework group  C1[X(C5H12O3)]
 Deg. of freedom    54
                         Standard orientation:                         
 ---------------------------------------------------------------------
 Center     Atomic      Atomic             Coordinates (Angstroms)
 Number     Number       Type             X           Y           Z
 ---------------------------------------------------------------------
      1          6           0       -0.283889   -0.064727    1.584559
      2          6           0       -0.238838   -0.195164    0.055740
      3          6           0        0.821681   -1.278767   -0.367965
      4          8           0        2.081970   -0.861413   -0.008959
      5          6           0       -1.617606   -0.585496   -0.513057
      6          8           0       -2.591564    0.366147   -0.214157
      7          6           0        0.277911    1.090018   -0.608737
      8          8           0        1.558128    1.392811   -0.116368
      9          1           0       -0.715424   -0.968864    2.048869
     10          1           0       -0.905892    0.797830    1.878468
     11          1           0        0.716646    0.065628    2.029016
     12          1           0        0.781170   -1.375498   -1.477444
     13          1           0        0.590922   -2.245862    0.106575
     14          1           0        2.272110    0.035390   -0.395972
     15          1           0       -1.897214   -1.596777   -0.152914
     16          1           0       -1.562774   -0.637483   -1.614457
     17          1           0       -2.858163    0.318064    0.715895
     18          1           0       -0.454735    1.897419   -0.407096
     19          1           0        0.376872    0.964051   -1.698801
     20          1           0        1.512655    1.770549    0.780498
 ---------------------------------------------------------------------
 Rotational constants (GHZ):           3.0752746           1.4687250           1.3103937
   136 basis functions,   248 primitive gaussians,   144 cartesian basis functions
    33 alpha electrons       32 beta electrons
       nuclear repulsion energy       439.0579258631 Hartrees.
 NAtoms=   20 NActive=   20 NUniq=   20 SFac= 1.00D+00 NAtFMM=   60 NAOKFM=F Big=F
 Nuclear repulsion after empirical dispersion term =      439.0438239980 Hartrees.
   1 Symmetry operations used in ECPInt.
 ECPInt:  NShTT=    2628 NPrTT=   10580 LenC2=    2607 LenP2D=    8459.
 LDataN:  DoStor=T MaxTD1= 4 Len=   56
 Initial guess from the checkpoint file:  "13.chk"
 B after Tr=     0.000000    0.000000   -0.000000
         Rot=    0.999233    0.032671    0.010536    0.018825 Ang=   4.49 deg.
 Initial guess <Sx>= 0.0000 <Sy>= 0.0000 <Sz>= 0.5000 <S**2>= 0.7547 S= 0.5024
 ExpMin= 1.22D-01 ExpMax= 2.27D+03 ExpMxC= 3.41D+02 IAcc=3 IRadAn=         5 AccDes= 0.00D+00
 Harris functional with IExCor= 4639 and IRadAn=       5 diagonalized for initial guess.
 HarFok:  IExCor= 4639 AccDes= 0.00D+00 IRadAn=         5 IDoV= 1 UseB2=F ITyADJ=14
 ICtDFT=  3500011 ScaDFX=  1.000000  1.000000  1.000000  1.000000
 FoFCou: FMM=F IPFlag=           0 FMFlag=      100000 FMFlg1=           0
         NFxFlg=           0 DoJE=T BraDBF=F KetDBF=T FulRan=T
         wScrn=  0.000000 ICntrl=       500 IOpCl=  0 I1Cent=   200000004 NGrid=           0
         NMat0=    1 NMatS0=      1 NMatT0=    0 NMatD0=    1 NMtDS0=    0 NMtDT0=    0
 Petite list used in FoFCou.
     Accept linear search using points  3 and  4.
     Minimum is close to point  4 DX= -8.61D-02 DF= -4.36D-05 DXR=  7.73D-02 DFR=  1.75D-03 which will be used.
     Minimum is close to point  2 DX=  4.37D-03 DF= -4.44D-08 DXR=  4.35D-03 DFR=  1.89D-05 which will be used.
     Accept linear search using points  1 and  2.
     Minimum is close to point  2 DX= -7.31D-02 DF= -7.42D-06 DXR=  8.83D-02 DFR=  6.47D-03 which will be used.
     Accept linear search using points  1 and  2.
     Minimum is close to point  2 DX= -2.87D-02 DF= -5.49D-07 DXR=  3.30D-02 DFR=  8.77D-04 which will be used.
     Minimum is close to point  2 DX=  4.88D-02 DF= -6.63D-07 DXR=  5.14D-02 DFR=  2.65D-03 which will be used.
     Accept linear search using points  1 and  2.
     Minimum is close to point  2 DX=  9.97D-02 DF= -9.40D-07 DXR=  9.07D-02 DFR=  8.29D-03 which will be used.
     Minimum is close to point  2 DX=  4.17D-02 DF= -1.52D-07 DXR=  4.00D-02 DFR=  1.60D-03 which will be used.
     Accept linear search using points  1 and  2.
     Minimum is close to point  2 DX= -8.89D-02 DF= -7.23D-07 DXR=  8.80D-02 DFR=  9.06D-03 which will be used.
     Accept linear search using points  1 and  2.
     Accept linear search using points  1 and  2.
     Accept linear search using points  1 and  2.
     Minimum is close to point  2 DX= -4.34D-02 DF= -1.51D-06 DXR=  4.54D-02 DFR=  2.13D-03 which will be used.
     Minimum is close to point  2 DX=  6.65D-03 DF= -3.61D-10 DXR=  6.61D-03 DFR=  4.37D-05 which will be used.
 SCF Done:  E(UwB97XD) =  -422.581644123     a.u. after   19 cycles
            Convg  =    0.2475D-07                    84 Fock formations.
              S**2 =  0.7547                  -V/T =  2.0082
 <Sx>= 0.0000 <Sy>= 0.0000 <Sz>= 0.5000 <S**2>= 0.7547 S= 0.5023
 <L.S>=  0.00000000000    
 Annihilation of the first spin contaminant:
 S**2 before annihilation     0.7547,   after     0.7500
   1 Symmetry operations used in ECPInt.
 ECPInt:  NShTT=    2628 NPrTT=   10580 LenC2=    2607 LenP2D=    8459.
 LDataN:  DoStor=T MaxTD1= 5 Len=  102
 Calling FoFJK, ICntrl=      2127 FMM=F ISym2X=0 I1Cent= 0 IOpClX= 1 NMat=1 NMatS=1 NMatT=0.

 GradGradGradGradGradGradGradGradGradGradGradGradGradGradGradGradGradGrad
 Using GEDIIS/GDIIS optimizer.
 FormGI is forming the generalized inverse of G from B-inverse, IUseBI=4.
 Internal  Forces:  Max     0.034035636 RMS     0.007786043
 Step number   2 out of a maximum of  107
 All quantities printed in internal units (Hartrees-Bohrs-Radians)
 Mixed Optimization -- RFO/linear search
 Trust test= 6.47D-01 RLast= 5.88D-01 DXMaxT set to 5.05D-01
 ITU=  1  0
 Use linear search instead of GDIIS.
     Eigenvalues ---    0.00243   0.00262   0.00293   0.00331   0.01451
     Eigenvalues ---    0.01547   0.01668   0.04043   0.04785   0.04930
     Eigenvalues ---    0.05020   0.05328   0.05465   0.05490   0.05607
     Eigenvalues ---    0.05810   0.05830   0.07120   0.10857   0.11385
     Eigenvalues ---    0.11629   0.13285   0.13783   0.13920   0.13959
     Eigenvalues ---    0.14256   0.15881   0.16000   0.16000   0.16000
     Eigenvalues ---    0.16000   0.16559   0.21322   0.22081   0.24936
     Eigenvalues ---    0.28211   0.28687   0.29137   0.32257   0.32559
     Eigenvalues ---    0.32997   0.33049   0.33092   0.33104   0.33279
     Eigenvalues ---    0.33325   0.33443   0.40198   0.43703   0.45020
     Eigenvalues ---    0.47389   0.51391   0.54134   0.54278
 Quartic linear search produced a step of -0.20190.
 Iteration  1 RMS(Cart)=  0.09940583 RMS(Int)=  0.00637479
 Iteration  2 RMS(Cart)=  0.00637576 RMS(Int)=  0.00040335
 Iteration  3 RMS(Cart)=  0.00004215 RMS(Int)=  0.00040100
 Iteration  4 RMS(Cart)=  0.00000001 RMS(Int)=  0.00040100
 Variable       Old X    -DE/DX   Delta X   Delta X   Delta X     New X
                                 (Linear)    (Quad)   (Total)
    R1        2.90079  -0.00319  -0.00079  -0.00405  -0.00484   2.89595
    R2        2.08665  -0.00043   0.00045  -0.00263  -0.00219   2.08446
    R3        2.08494   0.00020   0.00098  -0.00351  -0.00253   2.08241
    R4        2.08351  -0.00045  -0.00015  -0.00030  -0.00045   2.08306
    R5        2.97500   0.02905  -0.01214   0.11601   0.10387   3.07887
    R6        2.91342   0.00045  -0.00140   0.00663   0.00523   2.91865
    R7        2.90321   0.01820   0.00119   0.03710   0.03829   2.94150
    R8        2.59891  -0.00656   0.00887  -0.04482  -0.03595   2.56296
    R9        2.10596  -0.00264  -0.00054  -0.00324  -0.00378   2.10218
   R10        2.08188  -0.00011   0.00133  -0.00554  -0.00420   2.07768
   R11        1.88043   0.00729  -0.00817   0.04173   0.03355   1.91398
   R12        2.63450  -0.00355   0.00437  -0.02270  -0.01833   2.61617
   R13        2.09630  -0.00078   0.00040  -0.00319  -0.00278   2.09351
   R14        2.08624  -0.00031  -0.00012  -0.00014  -0.00026   2.08597
   R15        1.83058  -0.00056  -0.00104   0.00341   0.00237   1.83296
   R16        2.65442   0.00311   0.00513  -0.01549  -0.01036   2.64406
   R17        2.09523  -0.00157  -0.00117   0.00154   0.00037   2.09560
   R18        2.08205  -0.00059   0.00055  -0.00338  -0.00283   2.07921
   R19        1.84103  -0.00022  -0.00290   0.01120   0.00830   1.84933
    A1        1.93980  -0.00116  -0.00115  -0.00006  -0.00132   1.93847
    A2        1.92654  -0.00068   0.00498  -0.02424  -0.01927   1.90728
    A3        1.96590   0.00126  -0.00634   0.03220   0.02586   1.99175
    A4        1.88368   0.00044   0.00125  -0.00638  -0.00525   1.87843
    A5        1.85662   0.00034   0.00045   0.00171   0.00207   1.85869
    A6        1.88787  -0.00017   0.00087  -0.00375  -0.00279   1.88508
    A7        1.92443  -0.00486  -0.00189  -0.00365  -0.00625   1.91817
    A8        1.94197   0.00712  -0.00310   0.01217   0.00902   1.95099
    A9        1.94932  -0.00158  -0.00432   0.03115   0.02707   1.97639
   A10        1.90592  -0.00844  -0.00289  -0.04444  -0.04730   1.85862
   A11        1.80576   0.01670   0.02200   0.01308   0.03441   1.84017
   A12        1.93160  -0.00882  -0.00892  -0.01050  -0.01897   1.91263
   A13        1.91578   0.02774   0.01358   0.02693   0.04093   1.95671
   A14        1.87885  -0.00783   0.00277  -0.02064  -0.01757   1.86128
   A15        1.92537  -0.00983  -0.00272  -0.04020  -0.04296   1.88241
   A16        1.89604  -0.00013   0.00959   0.00239   0.01266   1.90869
   A17        1.92399  -0.01479  -0.01218  -0.02541  -0.03738   1.88662
   A18        1.92306   0.00539  -0.01165   0.05802   0.04619   1.96925
   A19        1.92525   0.01303  -0.01173   0.09885   0.08713   2.01237
   A20        1.95288  -0.00404   0.00741  -0.04250  -0.03515   1.91773
   A21        1.91393   0.00114  -0.00248   0.01495   0.01260   1.92653
   A22        1.91301  -0.00034   0.00032  -0.00690  -0.00671   1.90630
   A23        1.95691   0.00201  -0.00335   0.02305   0.01976   1.97668
   A24        1.85536   0.00134  -0.00182   0.00773   0.00557   1.86093
   A25        1.86867   0.00000  -0.00037   0.00475   0.00435   1.87301
   A26        1.94360   0.00007  -0.00849   0.03480   0.02631   1.96992
   A27        1.91270   0.03404   0.01427   0.04816   0.06203   1.97473
   A28        1.88415  -0.00781   0.00605  -0.05260  -0.04578   1.83838
   A29        1.94173  -0.00617  -0.00649   0.01898   0.01114   1.95288
   A30        1.96224  -0.01388  -0.00488  -0.03285  -0.03633   1.92591
   A31        1.86459  -0.00907  -0.00475   0.01235   0.00593   1.87051
   A32        1.89921   0.00256  -0.00527   0.00710   0.00186   1.90107
   A33        1.94306   0.00693  -0.00741   0.05735   0.04994   1.99301
    D1       -1.20611   0.00821   0.01054   0.02345   0.03402  -1.17209
    D2        0.91139  -0.00100   0.00369  -0.02708  -0.02362   0.88777
    D3        3.07957  -0.00839  -0.01279  -0.00864  -0.02120   3.05837
    D4        2.98758   0.00887   0.00639   0.04741   0.05377   3.04135
    D5       -1.17810  -0.00035  -0.00045  -0.00312  -0.00387  -1.18197
    D6        0.99008  -0.00774  -0.01694   0.01532  -0.00145   0.98863
    D7        0.87540   0.00870   0.00619   0.04739   0.05365   0.92905
    D8        2.99290  -0.00052  -0.00066  -0.00314  -0.00399   2.98891
    D9       -1.12210  -0.00791  -0.01714   0.01530  -0.00157  -1.12367
   D10       -1.13086   0.00633   0.02841  -0.04774  -0.01914  -1.15000
   D11        3.09150  -0.00432   0.00618  -0.05356  -0.04686   3.04465
   D12        0.99263  -0.00032   0.02012  -0.08795  -0.06766   0.92497
   D13        3.01351   0.00617   0.03525  -0.03122   0.00345   3.01696
   D14        0.95268  -0.00448   0.01303  -0.03705  -0.02426   0.92842
   D15       -1.14620  -0.00048   0.02696  -0.07143  -0.04506  -1.19126
   D16        0.95596   0.01148   0.03531  -0.00570   0.02968   0.98564
   D17       -1.10487   0.00083   0.01309  -0.01153   0.00197  -1.10290
   D18        3.07945   0.00483   0.02702  -0.04591  -0.01883   3.06061
   D19        1.05396   0.00174  -0.00236   0.02456   0.02210   1.07605
   D20       -1.12889   0.00119  -0.00146   0.01416   0.01270  -1.11619
   D21        3.10763   0.00072   0.00024   0.00369   0.00401   3.11164
   D22       -3.10095  -0.00542  -0.00853  -0.00210  -0.01104  -3.11199
   D23        0.99939  -0.00597  -0.00762  -0.01250  -0.02044   0.97895
   D24       -1.04728  -0.00644  -0.00593  -0.02297  -0.02913  -1.07640
   D25       -1.12421   0.00509   0.01123  -0.01701  -0.00556  -1.12976
   D26        2.97613   0.00454   0.01213  -0.02742  -0.01496   2.96117
   D27        0.92947   0.00406   0.01383  -0.03789  -0.02365   0.90582
   D28        1.01139  -0.00302   0.00855  -0.06623  -0.05795   0.95344
   D29       -1.13104  -0.00197   0.00085  -0.02231  -0.02065  -1.15169
   D30        3.06946   0.00344   0.00741  -0.00916  -0.00095   3.06851
   D31       -1.05827  -0.00624  -0.00026  -0.08479  -0.08605  -1.14431
   D32        3.08249  -0.00520  -0.00796  -0.04087  -0.04874   3.03374
   D33        0.99980   0.00022  -0.00139  -0.02772  -0.02905   0.97076
   D34       -3.09782  -0.00146  -0.00436  -0.03539  -0.04063  -3.13844
   D35        1.04294  -0.00042  -0.01206   0.00853  -0.00332   1.03962
   D36       -1.03974   0.00500  -0.00550   0.02168   0.01637  -1.02337
   D37       -0.96259  -0.00617   0.02612  -0.22827  -0.20205  -1.16463
   D38        1.08755   0.00005   0.04491  -0.23648  -0.19160   0.89595
   D39       -3.08689  -0.00247   0.02907  -0.17922  -0.15023   3.04607
   D40       -1.29979  -0.00280   0.01206  -0.10716  -0.09503  -1.39482
   D41        0.85908  -0.00283   0.01181  -0.10225  -0.09056   0.76852
   D42        2.89551  -0.00095   0.00857  -0.07962  -0.07099   2.82452
   D43       -1.32744   0.00022   0.00333  -0.01591  -0.01209  -1.33953
   D44        0.76794   0.00458   0.01794  -0.07076  -0.05284   0.71511
   D45        2.85017  -0.00614   0.00612  -0.07312  -0.06747   2.78270
         Item               Value     Threshold  Converged?
 Maximum Force            0.034036     0.000015     NO 
 RMS     Force            0.007786     0.000010     NO 
 Maximum Displacement     0.435782     0.000060     NO 
 RMS     Displacement     0.100435     0.000040     NO 
 GradGradGradGradGradGradGradGradGradGradGradGradGradGradGradGradGradGrad

                    Distance matrix (angstroms):
                    1          2          3          4          5
     1  C    0.000000
     2  C    1.532472   0.000000
     3  C    2.589009   1.629266   0.000000
     4  O    3.042924   2.481418   1.356259   0.000000
     5  C    2.547664   1.544485   2.543336   3.756584   0.000000
     6  O    2.938926   2.399185   3.786914   4.856630   1.384418
     7  C    2.579494   1.556573   2.535202   2.875846   2.533804
     8  O    2.981779   2.468321   2.983639   2.642866   3.795196
     9  H    1.103048   2.186412   2.889700   3.509201   2.741087
    10  H    1.101962   2.162847   3.550630   4.006889   2.847102
    11  H    1.102306   2.223539   2.820131   2.755743   3.529141
    12  H    3.516851   2.220406   1.112424   2.019216   2.670645
    13  H    2.747137   2.227495   1.099461   1.993627   2.814776
    14  H    3.506949   2.792157   2.009825   1.012837   4.107144
    15  H    2.837389   2.191937   2.726609   4.027934   1.107839
    16  H    3.494316   2.174065   2.756913   3.974604   1.103850
    17  H    2.790449   2.771632   4.195667   5.214158   1.975120
    18  H    2.815176   2.136694   3.487663   3.921068   2.699945
    19  H    3.536268   2.216000   2.731289   3.138567   2.790381
    20  H    2.848025   2.842085   3.572347   3.175916   4.203793
                    6          7          8          9         10
     6  O    0.000000
     7  C    2.941427   0.000000
     8  O    4.226475   1.399176   0.000000
     9  H    3.210494   3.536525   4.024012   0.000000
    10  H    2.688995   2.791794   3.255772   1.779650   0.000000
    11  H    3.989728   2.925475   2.788529   1.766993   1.783368
    12  H    3.964136   2.743061   3.368720   3.840062   4.355575
    13  H    4.091191   3.484812   3.946465   2.608694   3.791728
    14  H    5.086101   2.602266   2.076292   4.192488   4.304851
    15  H    2.086868   3.498344   4.634143   2.583848   3.292764
    16  H    2.002364   2.693365   4.016752   3.771076   3.821834
    17  H    0.969958   3.518733   4.653338   2.863598   2.359026
    18  H    2.540342   1.108943   2.065534   3.780328   2.580038
    19  H    3.331861   1.100273   2.019247   4.380703   3.821256
    20  H    4.436247   2.009374   0.978622   3.924369   2.919123
                   11         12         13         14         15
    11  H    0.000000
    12  H    3.854236   0.000000
    13  H    3.012282   1.842655   0.000000
    14  H    3.181328   2.322839   2.894019   0.000000
    15  H    3.811314   2.932990   2.549159   4.598518   0.000000
    16  H    4.367994   2.416122   3.195216   4.176937   1.781500
    17  H    3.861659   4.571618   4.324406   5.547121   2.315440
    18  H    3.310961   3.707432   4.317736   3.673270   3.750877
    19  H    3.909578   2.478266   3.763408   2.716976   3.762055
    20  H    2.474587   4.149633   4.392549   2.760533   5.001930
                   16         17         18         19         20
    16  H    0.000000
    17  H    2.833439   0.000000
    18  H    2.957696   3.065147   0.000000
    19  H    2.489983   4.104178   1.797701   0.000000
    20  H    4.621648   4.683966   2.292158   2.859202   0.000000
 Framework group  C1[X(C5H12O3)]
 Deg. of freedom    54
                         Standard orientation:                         
 ---------------------------------------------------------------------
 Center     Atomic      Atomic             Coordinates (Angstroms)
 Number     Number       Type             X           Y           Z
 ---------------------------------------------------------------------
      1          6           0       -0.301319   -0.096895    1.603616
      2          6           0       -0.232025   -0.184986    0.075248
      3          6           0        0.860436   -1.310100   -0.366518
      4          8           0        2.123718   -0.958856   -0.019838
      5          6           0       -1.581937   -0.621035   -0.535516
      6          8           0       -2.558764    0.312248   -0.233183
      7          6           0        0.241160    1.137630   -0.595351
      8          8           0        1.464691    1.599334   -0.097861
      9          1           0       -0.719907   -1.021550    2.035486
     10          1           0       -0.964349    0.735251    1.890399
     11          1           0        0.674862    0.061902    2.090373
     12          1           0        0.793698   -1.401771   -1.473148
     13          1           0        0.610779   -2.245347    0.154826
     14          1           0        2.498482   -0.154095   -0.507435
     15          1           0       -1.840582   -1.646975   -0.207102
     16          1           0       -1.493655   -0.640684   -1.635654
     17          1           0       -2.910967    0.211796    0.664971
     18          1           0       -0.561604    1.874406   -0.389232
     19          1           0        0.353826    1.027985   -1.684335
     20          1           0        1.404373    2.029587    0.779034
 ---------------------------------------------------------------------
 Rotational constants (GHZ):           2.7813793           1.4819178           1.2713490
   136 basis functions,   248 primitive gaussians,   144 cartesian basis functions
    33 alpha electrons       32 beta electrons
       nuclear repulsion energy       432.5052035118 Hartrees.
 NAtoms=   20 NActive=   20 NUniq=   20 SFac= 1.00D+00 NAtFMM=   60 NAOKFM=F Big=F
 Nuclear repulsion after empirical dispersion term =      432.4911880584 Hartrees.
   1 Symmetry operations used in ECPInt.
 ECPInt:  NShTT=    2628 NPrTT=   10580 LenC2=    2607 LenP2D=    8420.
 LDataN:  DoStor=T MaxTD1= 4 Len=   56
 Initial guess from the checkpoint file:  "13.chk"
 B after Tr=    -0.000000   -0.000000    0.000000
         Rot=    0.999908   -0.004022    0.003591   -0.012428 Ang=  -1.55 deg.
 Initial guess <Sx>= 0.0000 <Sy>= 0.0000 <Sz>= 0.5000 <S**2>= 0.7547 S= 0.5024
 ExpMin= 1.22D-01 ExpMax= 2.27D+03 ExpMxC= 3.41D+02 IAcc=3 IRadAn=         5 AccDes= 0.00D+00
 Harris functional with IExCor= 4639 and IRadAn=       5 diagonalized for initial guess.
 HarFok:  IExCor= 4639 AccDes= 0.00D+00 IRadAn=         5 IDoV= 1 UseB2=F ITyADJ=14
 ICtDFT=  3500011 ScaDFX=  1.000000  1.000000  1.000000  1.000000
 FoFCou: FMM=F IPFlag=           0 FMFlag=      100000 FMFlg1=           0
         NFxFlg=           0 DoJE=T BraDBF=F KetDBF=T FulRan=T
         wScrn=  0.000000 ICntrl=       500 IOpCl=  0 I1Cent=   200000004 NGrid=           0
         NMat0=    1 NMatS0=      1 NMatT0=    0 NMatD0=    1 NMtDS0=    0 NMtDT0=    0
 Petite list used in FoFCou.
     Accept linear search using points  3 and  4.
     Accept linear search using points  2 and  3.
     Accept linear search using points  1 and  2.
     Accept linear search using points  1 and  2.
     Accept linear search using points  1 and  2.
     Accept linear search using points  1 and  2.
     Accept linear search using points  1 and  2.
     Accept linear search using points  1 and  2.
     Accept linear search using points  1 and  2.
     Minimum is close to point  2 DX= -2.55D-03 DF= -2.71D-09 DXR=  2.56D-03 DFR=  6.55D-06 which will be used.
     Minimum is close to point  2 DX=  7.47D-05 DF=  0.00D+00 DXR=  7.47D-05 DFR=  0.00D+00 which will be used.
 SCF Done:  E(UwB97XD) =  -422.586069747     a.u. after   17 cycles
            Convg  =    0.1696D-06                    73 Fock formations.
              S**2 =  0.7548                  -V/T =  2.0087
 <Sx>= 0.0000 <Sy>= 0.0000 <Sz>= 0.5000 <S**2>= 0.7548 S= 0.5024
 <L.S>=  0.00000000000    
 Annihilation of the first spin contaminant:
 S**2 before annihilation     0.7548,   after     0.7500
   1 Symmetry operations used in ECPInt.
 ECPInt:  NShTT=    2628 NPrTT=   10580 LenC2=    2607 LenP2D=    8420.
 LDataN:  DoStor=T MaxTD1= 5 Len=  102
 Calling FoFJK, ICntrl=      2127 FMM=F ISym2X=0 I1Cent= 0 IOpClX= 1 NMat=1 NMatS=1 NMatT=0.

 GradGradGradGradGradGradGradGradGradGradGradGradGradGradGradGradGradGrad
 Using GEDIIS/GDIIS optimizer.
 FormGI is forming the generalized inverse of G from B-inverse, IUseBI=4.
 Internal  Forces:  Max     0.022262266 RMS     0.004338183
 Step number   3 out of a maximum of  107
 All quantities printed in internal units (Hartrees-Bohrs-Radians)
 Mixed Optimization -- RFO/linear search
 Trust test= 4.22D-01 RLast= 4.65D-01 DXMaxT set to 5.05D-01
 ITU=  0  1  0
 Use linear search instead of GDIIS.
     Eigenvalues ---    0.00253   0.00262   0.00292   0.00332   0.01459
     Eigenvalues ---    0.01488   0.01734   0.03899   0.04726   0.04962
     Eigenvalues ---    0.05088   0.05181   0.05583   0.05630   0.05827
     Eigenvalues ---    0.05874   0.05921   0.07025   0.10477   0.11423
     Eigenvalues ---    0.11688   0.13655   0.13834   0.13928   0.14189
     Eigenvalues ---    0.14668   0.15967   0.16000   0.16000   0.16000
     Eigenvalues ---    0.16024   0.16727   0.21215   0.22214   0.24685
     Eigenvalues ---    0.27984   0.28683   0.29115   0.32278   0.32558
     Eigenvalues ---    0.33040   0.33045   0.33093   0.33110   0.33279
     Eigenvalues ---    0.33326   0.33444   0.40555   0.43744   0.44878
     Eigenvalues ---    0.48061   0.54006   0.54201   0.67172
 Quartic linear search produced a step of -0.33600.
 Iteration  1 RMS(Cart)=  0.11516507 RMS(Int)=  0.00655316
 Iteration  2 RMS(Cart)=  0.00856623 RMS(Int)=  0.00029195
 Iteration  3 RMS(Cart)=  0.00002986 RMS(Int)=  0.00029117
 Iteration  4 RMS(Cart)=  0.00000002 RMS(Int)=  0.00029117
 Variable       Old X    -DE/DX   Delta X   Delta X   Delta X     New X
                                 (Linear)    (Quad)   (Total)
    R1        2.89595  -0.00781   0.00163  -0.02162  -0.01999   2.87596
    R2        2.08446   0.00049   0.00074  -0.00009   0.00064   2.08510
    R3        2.08241   0.00141   0.00085   0.00202   0.00287   2.08527
    R4        2.08306  -0.00020   0.00015  -0.00085  -0.00070   2.08236
    R5        3.07887  -0.00191  -0.03490   0.05447   0.01957   3.09844
    R6        2.91865   0.00200  -0.00176   0.00676   0.00500   2.92366
    R7        2.94150  -0.00917  -0.01287   0.00630  -0.00656   2.93494
    R8        2.56296  -0.00412   0.01208  -0.02246  -0.01038   2.55257
    R9        2.10218  -0.00255   0.00127  -0.00831  -0.00704   2.09514
   R10        2.07768   0.00135   0.00141   0.00108   0.00249   2.08018
   R11        1.91398  -0.02226  -0.01127  -0.01226  -0.02353   1.89045
   R12        2.61617   0.00335   0.00616  -0.00362   0.00254   2.61871
   R13        2.09351  -0.00027   0.00094  -0.00206  -0.00112   2.09239
   R14        2.08597  -0.00011   0.00009  -0.00051  -0.00042   2.08555
   R15        1.83296  -0.00188  -0.00080  -0.00162  -0.00242   1.83054
   R16        2.64406  -0.00713   0.00348  -0.01323  -0.00975   2.63431
   R17        2.09560   0.00032  -0.00012  -0.00026  -0.00038   2.09521
   R18        2.07921   0.00032   0.00095  -0.00079   0.00016   2.07938
   R19        1.84933  -0.00682  -0.00279  -0.00529  -0.00808   1.84125
    A1        1.93847  -0.00075   0.00044  -0.00319  -0.00272   1.93575
    A2        1.90728   0.00172   0.00647   0.00015   0.00662   1.91389
    A3        1.99175  -0.00437  -0.00869  -0.00976  -0.01847   1.97328
    A4        1.87843   0.00006   0.00177   0.00321   0.00502   1.88345
    A5        1.85869   0.00290  -0.00069   0.01211   0.01144   1.87013
    A6        1.88508   0.00068   0.00094  -0.00164  -0.00075   1.88432
    A7        1.91817   0.00026   0.00210  -0.01836  -0.01617   1.90200
    A8        1.95099  -0.00118  -0.00303   0.02313   0.02017   1.97116
    A9        1.97639   0.00157  -0.00910   0.00959  -0.00005   1.97634
   A10        1.85862   0.00301   0.01589  -0.00976   0.00627   1.86489
   A11        1.84017  -0.00690  -0.01156  -0.01336  -0.02483   1.81533
   A12        1.91263   0.00303   0.00637   0.00516   0.01136   1.92399
   A13        1.95671  -0.01744  -0.01375  -0.01100  -0.02524   1.93147
   A14        1.86128  -0.00120   0.00590  -0.01817  -0.01206   1.84922
   A15        1.88241   0.00094   0.01443  -0.04487  -0.03140   1.85101
   A16        1.90869   0.01178  -0.00425   0.07779   0.07359   1.98228
   A17        1.88662   0.00477   0.01256  -0.03134  -0.02029   1.86633
   A18        1.96925   0.00034  -0.01552   0.02651   0.01058   1.97983
   A19        2.01237  -0.00675  -0.02928   0.01739  -0.01188   2.00049
   A20        1.91773   0.00261   0.01181  -0.00793   0.00391   1.92164
   A21        1.92653  -0.00045  -0.00423   0.00358  -0.00071   1.92583
   A22        1.90630  -0.00103   0.00226  -0.00587  -0.00357   1.90273
   A23        1.97668  -0.00133  -0.00664   0.00334  -0.00333   1.97335
   A24        1.86093  -0.00036  -0.00187   0.00475   0.00302   1.86395
   A25        1.87301   0.00049  -0.00146   0.00204   0.00059   1.87361
   A26        1.96992  -0.00344  -0.00884  -0.00542  -0.01426   1.95566
   A27        1.97473  -0.00405  -0.02084   0.04312   0.02212   1.99685
   A28        1.83838  -0.00064   0.01538  -0.01508  -0.00053   1.83785
   A29        1.95288  -0.00021  -0.00374  -0.01770  -0.02101   1.93187
   A30        1.92591   0.00591   0.01221   0.01909   0.03060   1.95651
[...]
 48,-0.00572362,-0.00058276,-0.00217236,0.00480050,-0.00429862,0.010170
 60,0.01395072,0.00065171,0.00085296,-0.00294035,0.00308165,-0.00061037
 ,-0.00093763,-0.00011093,-0.23803457,0.00565190,-0.05039483,0.41859848
 ,-0.00067199,0.00167393,-0.00004274,-0.03909405,-0.01380125,-0.0128820
 8,0.00141476,0.00166571,0.00361389,0.00103681,-0.03760234,0.00339214,0
 .00168613,-0.00718305,0.00419147,-0.00048880,0.00229363,0.00038727,-0.
 03959529,-0.09891803,0.00337656,0.15814080,0.57980681,-0.00090755,0.00
 033853,-0.00135111,0.01068570,-0.00238929,0.00508281,0.00030453,-0.000
 38683,-0.00053229,-0.00098303,0.00405471,0.00412444,-0.00010250,0.0001
 4094,-0.00135561,0.00100690,0.00031992,0.00050477,-0.03565548,0.014730
 05,-0.07770955,0.03747240,-0.10776798,0.08971158,-0.05238251,-0.032280
 21,0.00548659,-0.00323518,-0.00045624,0.00361003,0.00122710,-0.0008047
 7,0.00055368,0.00005397,0.00019320,-0.00065397,0.00049559,0.00194430,0
 .00050648,-0.00123366,-0.00025959,-0.00058104,0.00070226,0.00040830,-0
 .00010757,0.00031532,0.00023656,0.00042737,0.04913565,-0.03270581,-0.2
 9944957,0.07251205,0.00064268,-0.00029662,-0.00049437,0.00025231,0.000
 59949,-0.00033364,-0.00019903,0.00034996,-0.00013737,-0.00030568,0.000
 39054,-0.00037043,0.00035659,-0.00002846,0.00007699,0.00035904,0.00110
 368,-0.00025322,-0.00005593,0.00009625,0.00012851,0.03401830,0.3158404
 4,0.00636444,0.06990685,-0.06871603,0.00614621,0.03267416,-0.00896683,
 -0.00077419,0.00176228,-0.00066970,0.00005345,-0.00019978,0.00045705,0
 .00010566,0.00026873,0.00112948,0.00090673,-0.00061809,-0.00005299,-0.
 00137855,-0.00104188,-0.00676026,0.00037691,-0.00024988,0.00073593,-0.
 00964361,-0.07831549,0.07560682,-0.20060945,0.10947831,0.07448770,-0.0
 0350958,-0.00035132,0.00113200,0.00258828,-0.00146994,0.00047245,0.000
 16012,0.00004497,0.00021690,0.00066560,0.00183722,0.00123643,-0.003332
 23,0.00043347,-0.00170911,0.00058178,-0.00002608,-0.00029691,0.0001388
 2,-0.00031461,0.00005200,0.00461756,-0.00395331,-0.00265800,0.21502215
 ,0.11043901,-0.12252380,-0.05214265,-0.00397567,-0.00108577,-0.0010167
 6,-0.00101230,0.00079561,-0.00034135,-0.00040449,0.00061163,0.00099921
 ,0.00168626,0.00038682,0.00021444,-0.00028236,0.00045178,0.00115059,0.
 00082144,-0.00028681,-0.00017457,-0.00026881,-0.00019995,-0.00008125,0
 .02243062,-0.01211997,-0.01163244,-0.11996588,0.12698658,0.07958162,-0
 .05491551,-0.08055731,0.01970229,-0.01480435,-0.01505090,0.00411011,-0
 .00178236,-0.00238238,-0.00141044,-0.00050269,-0.00069082,0.00356296,0
 .00113223,0.00094831,-0.00317575,0.00211952,0.00162905,-0.00023558,-0.
 00202382,0.00008464,-0.00034436,-0.00004073,0.00034819,-0.00815041,0.0
 0453974,0.00378949,-0.08241332,0.05735825,0.08779257,-0.25167323,-0.08
 783574,-0.09793142,0.00553560,0.00273748,0.00288023,-0.00092120,0.0003
 7233,-0.00012102,-0.00037595,0.00088507,0.00167947,-0.00114718,-0.0001
 6667,0.00074157,0.00066049,-0.00070985,-0.00075034,-0.00073422,-0.0000
 9351,0.00001163,-0.00016136,-0.00038715,0.00093336,-0.00012489,0.00127
 498,0.00034202,-0.01611004,-0.00906656,-0.00926563,0.26459222,-0.08733
 911,-0.08678243,-0.03753515,0.00292498,0.00086618,-0.00183167,-0.00038
 176,-0.00043219,-0.00050017,-0.00020386,-0.00010813,0.00075195,0.00144
 168,0.00061414,0.00073068,-0.00070921,0.00073732,0.00087775,0.00137923
 ,-0.00047359,-0.00021052,-0.00032693,-0.00065528,0.00023212,-0.0242921
 6,-0.00693614,-0.01260700,0.01489454,0.00668523,0.00802315,0.09263545,
 0.08504277,-0.09311405,-0.03711775,-0.09085163,-0.02980293,-0.01252457
 ,-0.01303183,-0.00149927,0.00001750,-0.00067026,0.00093348,0.00066589,
 0.00081283,0.00325364,-0.00013939,-0.00675567,0.00042186,0.00050483,0.
 00109604,-0.00087191,-0.00043322,0.00055873,0.00051547,0.00029596,0.00
 022398,0.00926186,0.00243046,0.00397190,0.01077118,0.00537896,0.005343
 24,0.10094350,0.04191463,0.10012978,0.00009168,0.00015796,-0.00030710,
 -0.00964945,0.00536876,0.01493997,-0.03650851,-0.01851620,0.01442860,-
 0.01080964,0.00609433,-0.04535901,0.00011725,0.00100014,0.00340077,0.0
 0068869,-0.00035537,-0.00018638,0.00096102,-0.00008453,0.00090782,-0.0
 0046935,0.00040767,-0.00022318,-0.00005100,0.00008298,-0.00013475,-0.0
 0028257,0.00037334,0.00032223,0.00004244,0.00008102,-0.00005748,0.0557
 0014,-0.00097012,0.00044606,-0.00047003,0.01089454,-0.00270499,-0.0070
 3400,-0.02108476,-0.08149724,0.07469188,0.00062225,0.01360254,0.002649
 01,-0.00286595,-0.00414997,-0.00319181,0.00233750,-0.00047353,-0.00063
 571,0.00347484,-0.00171745,-0.00480666,-0.00094556,0.00020845,0.001299
 96,0.00011218,0.00000270,-0.00038744,0.00041563,-0.00003141,0.00035026
 ,-0.00016113,0.00019289,-0.00010522,0.00465261,0.07590669,0.00080881,-
 0.00107974,-0.00020571,0.00778566,-0.00091708,-0.01484881,-0.00332580,
 0.08682867,-0.27811306,-0.00847119,-0.00092295,-0.01376677,-0.00189412
 ,0.00046760,0.00043899,0.00057628,-0.00085489,0.00041785,-0.00146296,0
 .00182441,0.00143611,-0.00011492,-0.00050177,-0.00023734,0.00001020,-0
 .00010999,0.00012568,0.00009142,-0.00007168,-0.00023232,-0.00007659,0.
 00012622,0.00001613,0.00546894,-0.08525271,0.30221734,0.00085985,-0.00
 028729,-0.00125236,-0.00538303,0.01420100,0.00220071,-0.06622715,-0.08
 040477,0.00797316,-0.02610807,-0.03560450,0.00197959,0.00116254,0.0033
 6663,0.00111811,-0.00051968,-0.00050529,-0.00070700,0.00106554,-0.0000
 8593,-0.00028935,0.00000200,-0.00052775,0.00044356,0.00003242,-0.00015
 147,0.00019145,-0.00014205,-0.00003082,-0.00023805,0.00005718,-0.00016
 044,-0.00002160,0.00301422,-0.00089579,0.00129357,0.09317751,-0.000797
 49,0.00070740,0.00077860,0.00050850,-0.01259960,0.00126948,-0.09865550
 ,-0.29744100,0.05332622,-0.00151040,0.00082210,-0.00345964,-0.00143802
 ,-0.00040440,-0.00015644,0.00010365,0.00026338,-0.00025077,0.00116682,
 -0.00054054,-0.00105603,0.00038308,0.00036850,-0.00003591,0.00011923,0
 .00014315,-0.00058711,0.00019196,0.00024776,0.00021661,-0.00001267,0.0
 0007083,0.00005322,-0.00058164,-0.00060306,-0.00161178,0.10061355,0.30
 611263,-0.00031819,-0.00096555,0.00075638,0.00581556,-0.00707798,-0.00
 134101,0.00931457,0.05714317,-0.06554635,-0.00668520,-0.02462587,0.003
 41841,-0.00206401,-0.00161960,-0.00139383,0.00142563,-0.00058814,-0.00
 014531,-0.00157279,0.00089475,0.00052544,0.00071111,-0.00027336,-0.000
 07721,0.00018542,-0.00002480,-0.00028362,0.00003104,0.00020868,0.00018
 822,-0.00011851,0.00020098,-0.00003751,0.00735562,0.02417990,0.0012834
 3,-0.00764834,-0.04990987,0.05925235,0.00022685,-0.00048611,0.00009342
 ,0.00036913,0.00153646,-0.00032566,-0.02146072,-0.04257932,0.01148491,
 -0.06606375,-0.07771545,0.00122732,-0.00176081,-0.00152265,-0.00159940
 ,0.00243540,-0.00054504,0.00003249,-0.00660216,0.00567262,0.00050805,-
 0.01071863,-0.00518754,-0.00009427,0.00009543,0.00003126,-0.00007586,0
 .00015434,0.00024020,-0.00001151,-0.00008781,0.00017457,0.00054597,-0.
 00073549,0.00376705,-0.00116639,-0.00072068,-0.00084943,-0.00675096,0.
 10025988,0.00223775,-0.00277204,-0.00206032,-0.00736681,0.01497116,0.0
 0889641,-0.00561605,-0.00442872,-0.00782281,-0.10093663,-0.30237505,0.
 05767534,-0.00546823,-0.00698424,-0.00523928,0.00650892,-0.00259535,-0
 .00110377,0.02113550,0.00812665,0.00145860,-0.01586575,0.00128478,-0.0
 0193390,-0.00064017,-0.00029792,0.00038515,0.00022940,0.00039282,0.000
 17801,-0.00009201,0.00111183,-0.00081923,0.00113726,0.00011599,0.00171
 838,0.00056741,0.00270600,0.00207795,0.11858713,0.29205825,0.00016482,
 0.00082369,0.00026044,-0.00195482,-0.00260807,0.00164424,-0.01103775,-
 0.01878706,0.00203252,0.01853892,0.08177544,-0.05215597,0.00151322,0.0
 0185849,0.00143359,-0.00174668,0.00053243,-0.00024178,-0.00160428,-0.0
 0114276,-0.00082730,0.00281591,-0.00424132,-0.00536328,-0.00015625,-0.
 00002718,-0.00011778,-0.00032089,-0.00025318,-0.00015693,0.00056573,-0
 .00030064,-0.00067296,0.00193074,-0.00435920,0.00049837,-0.00605456,0.
 00123041,0.00263622,-0.00339608,-0.05519853,0.05229783,0.00074536,0.00
 068065,0.00154716,-0.00906035,-0.02531296,0.00967680,-0.00029723,-0.00
 193620,0.00050183,0.00072974,0.00059821,-0.00019988,-0.07192308,-0.068
 05769,0.02860968,0.00209694,0.03555403,-0.00689535,-0.00314446,0.00138
 972,-0.00293192,-0.00130299,-0.00192081,0.00003566,-0.00002611,0.00033
 148,-0.00069119,0.00011481,-0.00003355,-0.00006727,0.00000806,0.000199
 98,0.00013258,-0.00010986,0.00010639,-0.00021645,-0.00080751,0.0006327
 7,-0.00013979,0.00001607,-0.00074757,0.00030246,0.07988564,0.00145194,
 0.00029600,0.00024752,-0.00525570,-0.00727663,0.00355863,0.00180024,-0
 .00058204,0.00021206,-0.00027510,0.00004142,-0.00040025,-0.06037237,-0
 .26189151,0.08159708,0.00346252,-0.02451179,0.00269595,-0.00002219,0.0
 0033665,-0.00130205,-0.00038076,-0.00037692,0.00011759,-0.00031174,0.0
 0018636,-0.00052361,-0.00028764,-0.00016674,-0.00024958,0.00009798,0.0
 0022834,0.00006828,0.00002441,0.00041548,0.00002437,-0.00022463,0.0004
 9090,0.00031147,0.00032800,0.00035034,-0.00014848,0.06029893,0.2875005
 1,0.00022794,-0.00088767,0.00094325,-0.00964106,-0.01401570,0.00370155
 ,0.00160536,-0.00043575,-0.00006272,-0.00010369,-0.00056077,-0.0002597
 2,0.03046928,0.08766151,-0.08997792,-0.00100971,-0.01013749,0.00698564
 ,-0.00077978,0.00026129,-0.00223081,-0.00047982,-0.00086651,0.00046417
 ,-0.00030415,0.00035063,-0.00018143,-0.00000674,-0.00006476,-0.0001091
 8,0.00006359,0.00013511,0.00012355,-0.00030364,0.00022209,0.00008378,0
 .00061243,0.00011391,0.00027427,0.00000005,0.00028290,0.00000479,-0.02
 720996,-0.08672071,0.08404767,-0.00401363,-0.00312344,-0.00051732,-0.0
 0391874,0.00034284,-0.02926612,0.00186036,-0.00134466,-0.00331051,-0.0
 0011565,0.00009341,0.00071467,-0.04733959,-0.00317418,0.02462972,-0.01
 586415,0.00874689,0.03099747,0.00038135,0.00069897,-0.00135421,0.00033
 914,0.00007904,0.00037634,-0.00004379,0.00009770,0.00032023,-0.0001083
 7,-0.00018162,-0.00031400,0.00027386,-0.00003329,-0.00160184,-0.001039
 07,-0.00009856,0.00072307,-0.00000375,0.00029398,0.00041820,0.00027875
 ,0.00033525,-0.00034147,0.00112290,-0.00000450,0.00842869,0.06807061,0
 .00000748,-0.00098892,0.00018248,-0.00533855,0.00068035,-0.01108046,0.
 00314785,-0.00057164,0.00036864,-0.00066848,-0.00090031,-0.00033181,-0
 .00121242,-0.05414699,0.00863709,0.01235275,-0.00089918,-0.02726595,-0
 .00013053,-0.00026650,-0.00229195,0.00056498,-0.00014488,0.00042504,-0
 .00017786,0.00027474,-0.00011925,-0.00027408,-0.00011498,-0.00041332,0
 .00015942,0.00019389,-0.00038032,0.00020992,0.00070943,0.00044731,-0.0
 0034933,0.00006691,0.00044400,0.00019986,0.00095842,-0.00028437,-0.002
 23550,0.00416583,0.02662866,-0.00704637,0.05528187,-0.00321262,-0.0011
 8272,0.00016398,0.00069056,0.00046604,-0.01407393,0.00076959,0.0004990
 2,0.00083220,0.00050300,-0.00053266,0.00032903,0.02917316,0.00002659,-
 0.31701537,0.00819948,-0.00445711,-0.00054059,0.00074207,0.00027789,-0
 .00008664,0.00025098,0.00021344,0.00061339,0.00005771,-0.00002337,0.00
 021968,0.00015913,-0.00000814,0.00028729,0.00028984,0.00002665,-0.0006
 9815,-0.00099670,0.00055749,0.00025437,-0.00023477,0.00002816,-0.00002
 724,-0.00005047,0.00014440,-0.00015701,-0.00021544,-0.00080887,-0.0058
 0090,-0.03361219,0.00726117,0.33505832,-0.00104119,0.00113007,0.000942
 59,-0.00142726,0.00070394,0.00162207,-0.00241991,0.00107813,0.00098681
 ,0.00127433,0.00019118,-0.00023881,-0.01861983,-0.00814917,0.02103455,
 -0.16153467,-0.04405820,0.20296113,0.00000801,-0.00006062,0.00009646,0
 .00035866,0.00057632,-0.00015711,0.00016531,0.00001113,-0.00020149,-0.
 00000102,-0.00056346,-0.00112442,0.00032386,-0.00027395,-0.00025951,-0
 .00027917,-0.00012361,-0.00049497,0.00027474,0.00001016,-0.00025410,-0
 .00058947,-0.00072397,0.00041833,0.00259016,-0.00027423,-0.00126753,0.
 00018296,0.00120653,-0.00226501,0.18094086,-0.00029823,0.00028465,0.00
 021820,-0.00000935,-0.00079208,0.00021587,0.00015316,0.00018943,0.0001
 2553,0.00013872,-0.00015295,-0.00002992,0.02387840,0.00320103,-0.03045
 213,-0.07862502,-0.07184486,0.13431685,0.00005639,-0.00017694,0.000015
 09,-0.00017492,-0.00004853,-0.00010004,0.00032766,-0.00024812,0.000015
 52,-0.00011683,0.00040592,-0.00027045,-0.00000256,-0.00013785,0.000084
 50,-0.00019184,-0.00000259,0.00001822,0.00013015,-0.00000524,-0.000059
 17,-0.00007054,-0.00005858,0.00004083,0.00030163,0.00078927,-0.0014966
 9,0.00496352,-0.00354292,-0.00187996,0.04969739,0.07218590,0.00132864,
 -0.00041301,-0.00043419,-0.00462477,0.00129515,0.00123877,0.00316188,-
 0.00158358,0.00107271,-0.00136323,-0.00127521,-0.00106429,0.00105446,0
 .00650114,-0.00502366,0.22196405,0.09813934,-0.30585256,0.00121777,-0.
 00201518,-0.00149677,-0.00008535,-0.00036820,0.00013022,-0.00029325,0.
 00023062,0.00015187,-0.00160334,-0.00041318,-0.00131072,0.00027170,-0.
 00012912,-0.00010788,-0.00035013,0.00097552,0.00003002,0.00002029,0.00
 011023,0.00037158,0.00044087,0.00181256,-0.00033833,-0.00196515,0.0011
 1796,0.00122231,0.00296959,-0.00269575,0.00005112,-0.22172416,-0.10090
 468,0.31071239,0.00102744,-0.00049516,0.00029368,0.00197191,-0.0011576
 1,-0.00439118,0.00321650,-0.00253719,-0.00120578,0.00006920,0.00144324
 ,-0.00048451,0.00205161,0.00133544,0.00124878,-0.00376411,0.00004629,0
 .00093785,-0.11242561,0.08852939,0.06544308,-0.03671616,0.02225397,0.0
 1119021,0.00004608,-0.00001600,-0.00003734,-0.00006572,-0.00041643,-0.
 00017858,0.00000323,-0.00006042,0.00013925,-0.00035663,-0.00007368,0.0
 0061157,-0.00003784,-0.00014327,0.00042998,0.00011037,-0.00404355,0.00
 060950,-0.00004820,-0.00015225,-0.00012395,-0.00006034,-0.00016530,-0.
 00004098,-0.00021110,-0.00030889,-0.00086467,0.13918554,0.00052771,0.0
 0206335,-0.00120301,0.00961407,-0.02112435,-0.01325561,0.00162662,-0.0
 0389991,-0.00060948,-0.00095149,0.00088502,0.00016763,0.00293089,-0.00
 068279,0.00182281,-0.00161930,0.00225099,0.00115976,0.10223469,-0.1821
 6728,-0.09201065,-0.00795969,0.01003413,0.00364828,-0.00034516,0.00025
 635,-0.00022602,-0.00063452,-0.00046348,0.00066589,0.00023394,-0.00028
 345,0.00018205,-0.00032838,0.00025103,0.00062516,0.00040445,-0.0005266
 0,0.00009481,0.00007150,-0.00092819,-0.00016073,-0.00032864,-0.0001491
 1,-0.00023923,-0.00011909,-0.00027814,0.00011469,-0.00018602,-0.000026
 30,-0.00060316,-0.10321152,0.18889208,0.00016287,0.00009852,-0.0001497
 7,-0.00217160,0.00850448,0.00511511,-0.00208517,-0.00042057,0.00098102
 ,0.00042277,-0.00015960,-0.00000800,-0.00092814,-0.00135107,-0.0019801
 1,0.00180647,-0.00007566,-0.00037159,0.06601024,-0.09167252,-0.1199637
 6,-0.00616814,0.00820615,0.00821029,-0.00011625,-0.00014847,0.00013529
 ,0.00019255,0.00089986,-0.00021889,-0.00039625,0.00009972,0.00008318,-
 0.00028447,0.00071761,0.00022628,0.00040798,0.00002131,-0.00005002,-0.
 00049214,0.00034091,0.00012036,-0.00007182,0.00023178,0.00033061,0.000
 15937,0.00025863,0.00017791,0.00004067,0.00027708,0.00056530,-0.071771
 92,0.09631150,0.11826643,0.00028092,-0.00331517,0.00033982,0.00070697,
 0.00098046,0.00933082,0.00002619,-0.00029517,-0.00085036,0.00059432,0.
 00127758,0.00003954,0.00059974,-0.00083252,0.00181930,-0.00015531,0.00
 016081,-0.00043594,-0.05482802,0.00355290,-0.03007003,-0.02442414,0.00
 084782,-0.03850247,0.00009977,-0.00008462,0.00076443,0.00005841,0.0001
 3229,-0.00040100,-0.00012886,0.00003374,0.00000006,-0.00011340,0.00064
 126,-0.00005061,-0.00001801,0.00003965,0.00015169,0.00018938,-0.002781
 24,-0.00043423,-0.00015597,0.00001381,-0.00009506,-0.00009125,-0.00038
 871,-0.00023796,0.00017038,0.00016869,0.00008068,0.00514648,-0.0021386
 6,0.01467011,0.07137889,-0.00210787,-0.00465587,-0.00068506,0.00364032
 ,-0.00523111,0.03120469,-0.00118195,0.00149965,0.00156844,0.00045696,0
 .00031347,-0.00009367,-0.00009843,0.00023268,0.00111232,0.00067663,-0.
 00022056,-0.00008275,0.00603756,-0.05571564,0.01734926,-0.00512021,0.0
 0345222,-0.00574691,-0.00027449,0.00009069,0.00159931,-0.00016784,-0.0
 0000941,0.00038170,0.00013332,0.00013625,-0.00028813,0.00046220,-0.000
 63054,-0.00061336,-0.00001449,0.00010525,-0.00028907,-0.00007171,-0.00
 068488,0.00038269,0.00033775,0.00009117,-0.00022591,-0.00049214,-0.000
 44694,-0.00065224,-0.00002047,-0.00008805,0.00012655,-0.00262971,0.004
 53956,-0.02195653,0.00052873,0.05671596,-0.00012905,0.00245222,0.00078
 175,0.00112818,-0.00049018,-0.00959301,-0.00065632,-0.00075220,0.00008
 444,0.00040273,0.00038253,0.00037593,-0.00145373,-0.00056528,-0.000097
 57,0.00097312,-0.00024750,0.00022234,-0.03391884,0.01981490,-0.3062785
 0,-0.00879823,-0.00115940,0.00298503,-0.00004181,0.00003085,-0.0004651
 0,0.00001223,-0.00010065,0.00035207,0.00001060,-0.00015795,0.00020373,
 -0.00047558,0.00067736,0.00030369,0.00019497,-0.00008648,0.00022985,0.
 00007208,-0.00099782,-0.00012922,-0.00012815,0.00003063,0.00040550,0.0
 0054624,0.00022752,0.00043394,-0.00014200,-0.00018033,0.00004661,-0.00
 178287,0.00284675,-0.01208926,0.04479850,-0.02224239,0.32244553,0.0002
 7203,0.00004600,-0.00026241,-0.00534941,0.00205339,-0.00201437,-0.0010
 5121,-0.00138389,-0.00018693,0.00039079,0.00614588,-0.00048424,-0.0010
 7890,-0.00274909,-0.00070254,0.00176901,-0.00015341,-0.00015629,-0.015
 26957,-0.03760322,0.01048392,-0.08549775,-0.09849191,0.01369754,0.0001
 1068,0.00001342,0.00002344,0.00005916,0.00007881,0.00005111,-0.0000322
 1,0.00001593,0.00030973,-0.00021132,0.00019492,-0.00009552,0.00032176,
 -0.00007494,-0.00028692,0.00460389,-0.00645663,0.00018738,-0.00043392,
 0.00008328,-0.00008225,0.00008839,0.00013837,0.00003062,-0.00016567,-0
 .00001753,0.00036413,0.00085736,0.00017857,0.00061288,0.00066352,-0.00
 009417,-0.00061207,0.09995336,0.00003519,0.00025710,-0.00006697,0.0006
 4635,0.00015234,-0.00046040,0.00057242,0.00009823,0.00071407,0.0001666
 9,-0.00165512,-0.00027018,0.00002842,0.00024498,0.00016049,0.00036924,
 0.00003824,-0.00009419,0.00080916,0.00096976,0.00048953,-0.14237140,-0
 .44195418,0.09300646,0.00005204,0.00004245,-0.00010401,0.00003658,0.00
 003817,0.00003745,-0.00000213,-0.00007062,0.00021155,0.00000536,-0.000
 04051,-0.00014438,-0.00004069,0.00001562,-0.00012229,-0.00158088,-0.00
 095128,0.00086754,0.00014138,0.00006244,-0.00000491,-0.00003376,-0.000
 03006,-0.00007047,-0.00017114,0.00006878,0.00009200,0.00180264,0.00135
 710,-0.00018312,0.00145833,0.00050610,0.00051741,0.13807622,0.44085045
 ,0.00031542,-0.00007531,0.00035685,-0.00067873,0.00076755,-0.00068598,
 0.00021946,0.00015338,0.00009027,-0.00014339,-0.00106353,0.00071416,-0
 .00037420,0.00004749,0.00040001,-0.00009809,-0.00021588,-0.00021642,-0
 .00373780,-0.00985836,-0.00011182,0.02680692,0.10471706,-0.02650839,-0
 .00005105,-0.00006151,-0.00010945,0.00015328,0.00009059,-0.00005361,-0
 .00007348,0.00015328,0.00026282,-0.00007628,-0.00007832,0.00007197,0.0
 0001021,0.00000589,-0.00003403,-0.00044242,0.00020505,-0.00076781,-0.0
 0007379,-0.00005974,0.00003559,0.00003409,-0.00001737,-0.00002139,0.00
 002650,0.00004567,0.00003549,-0.00002210,0.00066856,0.00061962,-0.0009
 1731,-0.00084894,-0.00021773,-0.02087722,-0.09457557,0.02613984\\0.000
 00155,-0.00000062,0.00000089,-0.00000085,-0.00000064,-0.00000160,0.000
 00135,0.00000111,0.00000224,0.00000012,0.00000119,-0.00000105,0.000000
 24,0.00000070,0.00000043,0.00000021,-0.00000115,0.00000011,0.00000073,
 0.00000106,0.00000027,-0.00000158,0.00000005,-0.00000029,0.00000008,0.
 00000022,0.00000014,-0.00000050,-0.00000009,-0.00000023,-0.00000007,0.
 00000054,-0.00000042,0.00000005,0.00000047,-0.00000026,0.00000038,0.00
 000022,0.00000024,-0.00000044,-0.00000037,0.00000032,0.00000056,-0.000
 00074,0.00000005,0.00000002,-0.00000070,0.00000019,-0.00000005,-0.0000
 0072,-0.00000024,-0.00000057,-0.00000031,-0.00000046,-0.00000070,-0.00
 000039,-0.00000034,-0.00000052,0.00000018,0.00000001\\\@


 The best way to pay for a lovely moment is to enjoy it.
 -- Richard Bach
 Job cpu time:       0 days  0 hours 11 minutes 16.5 seconds.
 Elapsed time:       0 days  0 hours  2 minutes 50.3 seconds.
 File lengths (MBytes):  RWF=     95 Int=      0 D2E=      0 Chk=      3 Scr=      1
 Normal termination of Gaussian 16 at Mon Jul 10 20:18:15 2023.
real 3607.37
user 13605.34
sys 38.74
