 Entering Gaussian System, Link 0=g16
 Input=gaussian_test.inp
 Output=gaussian_test.log
 Initial command:
 /sw/restricted/lms/sw/Gaussian/g16_B01/g16/l1.exe "/scratch/user/peterchao1/peterchao1/6113312_1660079070000000064873637/Gau-158467.inp" -scrdir="/scratch/user/peterchao1/peterchao1/6113312_1660079070000000064873637/"
 Entering Link 1 = /sw/restricted/lms/sw/Gaussian/g16_B01/g16/l1.exe PID=    158468.
  
 Copyright (c) 1988-2017, Gaussian, Inc.  All Rights Reserved.
  
 This is part of the Gaussian(R) 16 program.  It is based on
 the Gaussian(R) 09 system (copyright 2009, Gaussian, Inc.),
 the Gaussian(R) 03 system (copyright 2003, Gaussian, Inc.),
 the Gaussian(R) 98 system (copyright 1998, Gaussian, Inc.),
 the Gaussian(R) 94 system (copyright 1995, Gaussian, Inc.),
 the Gaussian 92(TM) system (copyright 1992, Gaussian, Inc.),
 the Gaussian 90(TM) system (copyright 1990, Gaussian, Inc.),
 the Gaussian 88(TM) system (copyright 1988, Gaussian, Inc.),
 the Gaussian 86(TM) system (copyright 1986, Carnegie Mellon
 University), and the Gaussian 82(TM) system (copyright 1983,
 Carnegie Mellon University). Gaussian is a federally registered
 trademark of Gaussian, Inc.
  
 This software contains proprietary and confidential information,
 including trade secrets, belonging to Gaussian, Inc.
  
 This software is provided under written license and may be
 used, copied, transmitted, or stored only in accord with that
 written license.
  
 The following legend is applicable only to US Government
 contracts under FAR:
  
                    RESTRICTED RIGHTS LEGEND
  
 Use, reproduction and disclosure by the US Government is
 subject to restrictions as set forth in subparagraphs (a)
 and (c) of the Commercial Computer Software - Restricted
 Rights clause in FAR 52.227-19.
  
 Gaussian, Inc.
 340 Quinnipiac St., Bldg. 40, Wallingford CT 06492
  
  
 ---------------------------------------------------------------
 Warning -- This program may not be used in any manner that
 competes with the business of Gaussian, Inc. or will provide
 assistance to any competitor of Gaussian, Inc.  The licensee
 of this program is prohibited from giving any competitor of
 Gaussian, Inc. access to this program.  By using this program,
 the user acknowledges that Gaussian, Inc. is engaged in the
 business of creating and licensing software in the field of
 computational chemistry and represents and warrants to the
 licensee that it is not a competitor of Gaussian, Inc. and that
 it will not use this program in any manner prohibited above.
 ---------------------------------------------------------------
  

 Cite this work as:
 Gaussian 16, Revision B.01,
 M. J. Frisch, G. W. Trucks, H. B. Schlegel, G. E. Scuseria, 
 M. A. Robb, J. R. Cheeseman, G. Scalmani, V. Barone, 
 G. A. Petersson, H. Nakatsuji, X. Li, M. Caricato, A. V. Marenich, 
 J. Bloino, B. G. Janesko, R. Gomperts, B. Mennucci, H. P. Hratchian, 
 J. V. Ortiz, A. F. Izmaylov, J. L. Sonnenberg, D. Williams-Young, 
 F. Ding, F. Lipparini, F. Egidi, J. Goings, B. Peng, A. Petrone, 
 T. Henderson, D. Ranasinghe, V. G. Zakrzewski, J. Gao, N. Rega, 
 G. Zheng, W. Liang, M. Hada, M. Ehara, K. Toyota, R. Fukuda, 
 J. Hasegawa, M. Ishida, T. Nakajima, Y. Honda, O. Kitao, H. Nakai, 
 T. Vreven, K. Throssell, J. A. Montgomery, Jr., J. E. Peralta, 
 F. Ogliaro, M. J. Bearpark, J. J. Heyd, E. N. Brothers, K. N. Kudin, 
 V. N. Staroverov, T. A. Keith, R. Kobayashi, J. Normand, 
 K. Raghavachari, A. P. Rendell, J. C. Burant, S. S. Iyengar, 
 J. Tomasi, M. Cossi, J. M. Millam, M. Klene, C. Adamo, R. Cammi, 
 J. W. Ochterski, R. L. Martin, K. Morokuma, O. Farkas, 
 J. B. Foresman, and D. J. Fox, Gaussian, Inc., Wallingford CT, 2016.
 
 ******************************************
 Gaussian 16:  ES64L-G16RevB.01 20-Dec-2017
                 9-Aug-2022 
 ******************************************
 %nprocshared=4
 Will use up to    4 processors via shared memory.
 %mem=8000mb
 ----------------------------------------------------------------------
 #T wB97XD/def2svpp opt=tight freq int(grid=ultrafine) scf=(verytight,q
 c)
 ----------------------------------------------------------------------
 -----
 dimer
 -----
 Symbolic Z-matrix:
 Charge =  0 Multiplicity = 1
 C                     3.92524  -0.7013    1.25359 
 C                     3.4396    0.03551   0.00022 
 C                     3.93589   1.47989   0.00381 
 C                     3.92384  -0.69453  -1.25771 
 C                     1.91621   0.01388   0.00022 
 O                     1.40871  -1.19151   0.00012 
 O                     1.23721   1.02521  -0.00005 
 H                     3.57842  -0.19548   2.15234 
 H                     5.01228  -0.72508   1.26789 
 H                     3.5513   -1.72181   1.26142 
 H                     3.57371   2.00843  -0.87433 
 H                     5.02262   1.49997   0.00358 
 H                     3.57422   2.00385   0.88492 
 H                     5.01087  -0.7172   -1.27404 
 H                     3.57497  -0.18453  -2.1533 
 H                     3.55083  -1.71535  -1.27 
 H                     0.40123  -1.18395  -0.00027 
 C                    -3.93585  -1.47992  -0.0069 
 C                    -3.4396   -0.03551   0.00001 
 C                    -3.92657   0.70469  -1.25079 
 C                    -3.92254   0.69106   1.26047 
 C                    -1.91619  -0.01386  -0.00103 
 O                    -1.40875   1.19157  -0.00078 
 O                    -1.23718  -1.02518  -0.0012 
 H                    -3.57113  -2.01128   0.8685 
 H                    -3.57666  -2.001    -0.89076 
 H                    -5.02259  -1.50003  -0.00364 
 H                    -3.57968   0.20202  -2.15128 
 H                    -3.55363   1.72557  -1.25568 
 H                    -5.01363   0.72741  -1.26454 
 H                    -5.00953   0.7148    1.27737 
 H                    -3.5485    1.71146   1.2758 
 H                    -3.57379   0.17789   2.15429 
 H                    -0.40129   1.18402  -0.00053 
 
 Add virtual bond connecting atoms O24        and H17        Dist= 3.11D+00.
 Add virtual bond connecting atoms H34        and O7         Dist= 3.11D+00.

 GradGradGradGradGradGradGradGradGradGradGradGradGradGradGradGradGradGrad
 Initialization pass.
                           ----------------------------
                           !    Initial Parameters    !
                           ! (Angstroms and Degrees)  !
 --------------------------                            --------------------------
 ! Name  Definition              Value          Derivative Info.                !
 --------------------------------------------------------------------------------
 ! R1    R(1,2)                  1.5329         estimate D2E/DX2                !
 ! R2    R(1,8)                  1.0881         estimate D2E/DX2                !
 ! R3    R(1,9)                  1.0874         estimate D2E/DX2                !
 ! R4    R(1,10)                 1.0869         estimate D2E/DX2                !
 ! R5    R(2,3)                  1.5273         estimate D2E/DX2                !
 ! R6    R(2,4)                  1.5329         estimate D2E/DX2                !
 ! R7    R(2,5)                  1.5235         estimate D2E/DX2                !
 ! R8    R(3,11)                 1.087          estimate D2E/DX2                !
 ! R9    R(3,12)                 1.0869         estimate D2E/DX2                !
 ! R10   R(3,13)                 1.0871         estimate D2E/DX2                !
 ! R11   R(4,14)                 1.0874         estimate D2E/DX2                !
 ! R12   R(4,15)                 1.0881         estimate D2E/DX2                !
 ! R13   R(4,16)                 1.0869         estimate D2E/DX2                !
 ! R14   R(5,6)                  1.3079         estimate D2E/DX2                !
 ! R15   R(5,7)                  1.2181         estimate D2E/DX2                !
 ! R16   R(6,17)                 1.0075         estimate D2E/DX2                !
 ! R17   R(7,34)                 1.6462         estimate D2E/DX2                !
 ! R18   R(17,24)                1.6461         estimate D2E/DX2                !
 ! R19   R(18,19)                1.5273         estimate D2E/DX2                !
 ! R20   R(18,25)                1.0871         estimate D2E/DX2                !
 ! R21   R(18,26)                1.0871         estimate D2E/DX2                !
 ! R22   R(18,27)                1.0869         estimate D2E/DX2                !
 ! R23   R(19,20)                1.5328         estimate D2E/DX2                !
 ! R24   R(19,21)                1.5329         estimate D2E/DX2                !
 ! R25   R(19,22)                1.5236         estimate D2E/DX2                !
 ! R26   R(20,28)                1.0881         estimate D2E/DX2                !
 ! R27   R(20,29)                1.0869         estimate D2E/DX2                !
 ! R28   R(20,30)                1.0874         estimate D2E/DX2                !
 ! R29   R(21,31)                1.0874         estimate D2E/DX2                !
 ! R30   R(21,32)                1.0869         estimate D2E/DX2                !
 ! R31   R(21,33)                1.0881         estimate D2E/DX2                !
 ! R32   R(22,23)                1.3079         estimate D2E/DX2                !
 ! R33   R(22,24)                1.2181         estimate D2E/DX2                !
 ! R34   R(23,34)                1.0075         estimate D2E/DX2                !
 ! A1    A(2,1,8)              110.5456         estimate D2E/DX2                !
 ! A2    A(2,1,9)              109.7541         estimate D2E/DX2                !
 ! A3    A(2,1,10)             110.3782         estimate D2E/DX2                !
 ! A4    A(8,1,9)              108.5382         estimate D2E/DX2                !
 ! A5    A(8,1,10)             108.7157         estimate D2E/DX2                !
 ! A6    A(9,1,10)             108.8631         estimate D2E/DX2                !
 ! A7    A(1,2,3)              110.4699         estimate D2E/DX2                !
 ! A8    A(1,2,4)              109.9979         estimate D2E/DX2                !
 ! A9    A(1,2,5)              108.0571         estimate D2E/DX2                !
 ! A10   A(3,2,4)              110.4674         estimate D2E/DX2                !
 ! A11   A(3,2,5)              109.7759         estimate D2E/DX2                !
 ! A12   A(4,2,5)              108.0053         estimate D2E/DX2                !
 ! A13   A(2,3,11)             110.4668         estimate D2E/DX2                !
 ! A14   A(2,3,12)             110.0208         estimate D2E/DX2                !
 ! A15   A(2,3,13)             110.4651         estimate D2E/DX2                !
 ! A16   A(11,3,12)            108.9028         estimate D2E/DX2                !
 ! A17   A(11,3,13)            108.0333         estimate D2E/DX2                !
 ! A18   A(12,3,13)            108.9004         estimate D2E/DX2                !
 ! A19   A(2,4,14)             109.7576         estimate D2E/DX2                !
 ! A20   A(2,4,15)             110.5444         estimate D2E/DX2                !
 ! A21   A(2,4,16)             110.3745         estimate D2E/DX2                !
 ! A22   A(14,4,15)            108.5385         estimate D2E/DX2                !
 ! A23   A(14,4,16)            108.8643         estimate D2E/DX2                !
 ! A24   A(15,4,16)            108.7158         estimate D2E/DX2                !
 ! A25   A(2,5,6)              113.6452         estimate D2E/DX2                !
 ! A26   A(2,5,7)              123.0639         estimate D2E/DX2                !
 ! A27   A(6,5,7)              123.2909         estimate D2E/DX2                !
 ! A28   A(5,6,17)             112.4018         estimate D2E/DX2                !
 ! A29   A(5,7,34)             129.4131         estimate D2E/DX2                !
 ! A30   A(19,18,25)           110.4644         estimate D2E/DX2                !
 ! A31   A(19,18,26)           110.4662         estimate D2E/DX2                !
 ! A32   A(19,18,27)           110.0198         estimate D2E/DX2                !
 ! A33   A(25,18,26)           108.0338         estimate D2E/DX2                !
 ! A34   A(25,18,27)           108.9043         estimate D2E/DX2                !
 ! A35   A(26,18,27)           108.9008         estimate D2E/DX2                !
 ! A36   A(18,19,20)           110.4736         estimate D2E/DX2                !
 ! A37   A(18,19,21)           110.4636         estimate D2E/DX2                !
 ! A38   A(18,19,22)           109.7745         estimate D2E/DX2                !
 ! A39   A(20,19,21)           109.9989         estimate D2E/DX2                !
 ! A40   A(20,19,22)           108.0735         estimate D2E/DX2                !
 ! A41   A(21,19,22)           107.9891         estimate D2E/DX2                !
 ! A42   A(19,20,28)           110.5459         estimate D2E/DX2                !
 ! A43   A(19,20,29)           110.3798         estimate D2E/DX2                !
 ! A44   A(19,20,30)           109.7554         estimate D2E/DX2                !
 ! A45   A(28,20,29)           108.7122         estimate D2E/DX2                !
 ! A46   A(28,20,30)           108.5364         estimate D2E/DX2                !
 ! A47   A(29,20,30)           108.865          estimate D2E/DX2                !
 ! A48   A(19,21,31)           109.7584         estimate D2E/DX2                !
 ! A49   A(19,21,32)           110.3743         estimate D2E/DX2                !
 ! A50   A(19,21,33)           110.5444         estimate D2E/DX2                !
 ! A51   A(31,21,32)           108.862          estimate D2E/DX2                !
 ! A52   A(31,21,33)           108.5386         estimate D2E/DX2                !
 ! A53   A(32,21,33)           108.7174         estimate D2E/DX2                !
 ! A54   A(19,22,23)           113.6437         estimate D2E/DX2                !
 ! A55   A(19,22,24)           123.0637         estimate D2E/DX2                !
 ! A56   A(23,22,24)           123.2926         estimate D2E/DX2                !
 ! A57   A(22,23,34)           112.4002         estimate D2E/DX2                !
 ! A58   A(17,24,22)           129.4129         estimate D2E/DX2                !
 ! A59   L(6,17,24,7,-1)       174.8952         estimate D2E/DX2                !
 ! A60   L(7,34,23,24,-1)      174.8934         estimate D2E/DX2                !
 ! A61   L(6,17,24,7,-2)       179.9896         estimate D2E/DX2                !
 ! A62   L(7,34,23,24,-2)      179.9963         estimate D2E/DX2                !
 ! D1    D(8,1,2,3)             58.3171         estimate D2E/DX2                !
 ! D2    D(8,1,2,4)           -179.4718         estimate D2E/DX2                !
 ! D3    D(8,1,2,5)            -61.7857         estimate D2E/DX2                !
 ! D4    D(9,1,2,3)            -61.3763         estimate D2E/DX2                !
 ! D5    D(9,1,2,4)             60.8348         estimate D2E/DX2                !
 ! D6    D(9,1,2,5)            178.5209         estimate D2E/DX2                !
 ! D7    D(10,1,2,3)           178.6331         estimate D2E/DX2                !
 ! D8    D(10,1,2,4)           -59.1558         estimate D2E/DX2                !
 ! D9    D(10,1,2,5)            58.5303         estimate D2E/DX2                !
 ! D10   D(1,2,3,11)          -178.7843         estimate D2E/DX2                !
 ! D11   D(1,2,3,12)            60.9487         estimate D2E/DX2                !
 ! D12   D(1,2,3,13)           -59.3141         estimate D2E/DX2                !
 ! D13   D(4,2,3,11)            59.2807         estimate D2E/DX2                !
 ! D14   D(4,2,3,12)           -60.9863         estimate D2E/DX2                !
 ! D15   D(4,2,3,13)           178.751          estimate D2E/DX2                !
 ! D16   D(5,2,3,11)           -59.7191         estimate D2E/DX2                !
 ! D17   D(5,2,3,12)          -179.986          estimate D2E/DX2                !
 ! D18   D(5,2,3,13)            59.7512         estimate D2E/DX2                !
 ! D19   D(1,2,4,14)           -60.9034         estimate D2E/DX2                !
 ! D20   D(1,2,4,15)           179.4014         estimate D2E/DX2                !
 ! D21   D(1,2,4,16)            59.0886         estimate D2E/DX2                !
 ! D22   D(3,2,4,14)            61.3092         estimate D2E/DX2                !
 ! D23   D(3,2,4,15)           -58.386          estimate D2E/DX2                !
 ! D24   D(3,2,4,16)          -178.6989         estimate D2E/DX2                !
 ! D25   D(5,2,4,14)          -178.6216         estimate D2E/DX2                !
 ! D26   D(5,2,4,15)            61.6832         estimate D2E/DX2                !
 ! D27   D(5,2,4,16)           -58.6297         estimate D2E/DX2                !
 ! D28   D(1,2,5,6)            -59.3237         estimate D2E/DX2                !
 ! D29   D(1,2,5,7)            120.696          estimate D2E/DX2                !
 ! D30   D(3,2,5,6)           -179.8613         estimate D2E/DX2                !
 ! D31   D(3,2,5,7)              0.1584         estimate D2E/DX2                !
 ! D32   D(4,2,5,6)             59.6357         estimate D2E/DX2                !
 ! D33   D(4,2,5,7)           -120.3446         estimate D2E/DX2                !
 ! D34   D(2,5,6,17)          -179.9759         estimate D2E/DX2                !
 ! D35   D(7,5,6,17)             0.0043         estimate D2E/DX2                !
 ! D36   D(2,5,7,34)           179.9808         estimate D2E/DX2                !
 ! D37   D(6,5,7,34)             0.0023         estimate D2E/DX2                !
 ! D38   D(5,6,24,22)           -0.0369         estimate D2E/DX2                !
 ! D39   D(5,7,23,22)           -0.0104         estimate D2E/DX2                !
 ! D40   D(25,18,19,20)        178.6779         estimate D2E/DX2                !
 ! D41   D(25,18,19,21)        -59.3859         estimate D2E/DX2                !
 ! D42   D(25,18,19,22)         59.5908         estimate D2E/DX2                !
 ! D43   D(26,18,19,20)         59.2078         estimate D2E/DX2                !
 ! D44   D(26,18,19,21)       -178.856          estimate D2E/DX2                !
 ! D45   D(26,18,19,22)        -59.8792         estimate D2E/DX2                !
 ! D46   D(27,18,19,20)        -61.0556         estimate D2E/DX2                !
 ! D47   D(27,18,19,21)         60.8806         estimate D2E/DX2                !
 ! D48   D(27,18,19,22)        179.8574         estimate D2E/DX2                !
 ! D49   D(18,19,20,28)        -58.387          estimate D2E/DX2                !
 ! D50   D(18,19,20,29)       -178.6999         estimate D2E/DX2                !
 ! D51   D(18,19,20,30)         61.3053         estimate D2E/DX2                !
 ! D52   D(21,19,20,28)        179.4035         estimate D2E/DX2                !
 ! D53   D(21,19,20,29)         59.0906         estimate D2E/DX2                !
 ! D54   D(21,19,20,30)        -60.9043         estimate D2E/DX2                !
 ! D55   D(22,19,20,28)         61.7267         estimate D2E/DX2                !
 ! D56   D(22,19,20,29)        -58.5862         estimate D2E/DX2                !
 ! D57   D(22,19,20,30)       -178.5811         estimate D2E/DX2                !
 ! D58   D(18,19,21,31)        -61.386          estimate D2E/DX2                !
 ! D59   D(18,19,21,32)        178.6246         estimate D2E/DX2                !
 ! D60   D(18,19,21,33)         58.3098         estimate D2E/DX2                !
 ! D61   D(20,19,21,31)         60.8295         estimate D2E/DX2                !
 ! D62   D(20,19,21,32)        -59.16           estimate D2E/DX2                !
 ! D63   D(20,19,21,33)       -179.4747         estimate D2E/DX2                !
 ! D64   D(22,19,21,31)        178.5586         estimate D2E/DX2                !
 ! D65   D(22,19,21,32)         58.5692         estimate D2E/DX2                !
 ! D66   D(22,19,21,33)        -61.7456         estimate D2E/DX2                !
 ! D67   D(18,19,22,23)        179.7397         estimate D2E/DX2                !
 ! D68   D(18,19,22,24)         -0.3063         estimate D2E/DX2                !
 ! D69   D(20,19,22,23)         59.1883         estimate D2E/DX2                !
 ! D70   D(20,19,22,24)       -120.8577         estimate D2E/DX2                !
 ! D71   D(21,19,22,23)        -59.7724         estimate D2E/DX2                !
 ! D72   D(21,19,22,24)        120.1816         estimate D2E/DX2                !
 ! D73   D(19,22,23,34)        179.9415         estimate D2E/DX2                !
 ! D74   D(24,22,23,34)         -0.0124         estimate D2E/DX2                !
 ! D75   D(19,22,24,17)       -179.9099         estimate D2E/DX2                !
 ! D76   D(23,22,24,17)          0.0396         estimate D2E/DX2                !
 --------------------------------------------------------------------------------
 Number of steps in this run=    182 maximum allowed number of steps=    204.
 GradGradGradGradGradGradGradGradGradGradGradGradGradGradGradGradGradGrad

                    Distance matrix (angstroms):
                    1          2          3          4          5
     1  C    0.000000
     2  C    1.532859   0.000000
     3  C    2.513892   1.527273   0.000000
     4  C    2.511304   1.532915   2.513900   0.000000
     5  C    2.473584   1.523545   2.495658   2.472817   0.000000
     6  O    2.853831   2.372773   3.677363   2.855693   1.307867
     7  O    3.431903   2.414548   2.736718   3.428879   1.218124
     8  H    1.088069   2.168924   2.747870   3.463637   2.727344
     9  H    1.087394   2.158426   2.760148   2.750325   3.426181
    10  H    1.086891   2.165937   3.461272   2.745929   2.697553
    11  H    3.463275   2.162237   1.087045   2.752379   2.736858
    12  H    2.759048   2.156525   1.086915   2.759341   3.443580
    13  H    2.752636   2.162223   1.087056   3.463289   2.737095
    14  H    2.750952   2.158519   2.759656   1.087393   3.425665
    15  H    3.463610   2.168958   2.748397   1.088068   2.725525
    16  H    2.745354   2.165947   3.461276   1.086903   2.697348
    17  H    3.771429   3.273945   4.426038   3.772193   1.931303
    18  C    7.999480   7.529523   8.409800   7.997250   6.039701
    19  C    7.500372   6.879567   7.529562   7.499097   5.356036
    20  C    8.360593   7.501547   7.999571   7.974129   6.015000
    21  C    7.970339   7.497937   7.997268   8.356242   6.011469
    22  C    6.014063   5.356019   6.039715   6.012365   3.832500
    23  O    5.797221   4.984269   5.352409   5.794285   3.527359
    24  O    5.322589   4.795554   5.747699   5.322060   3.320167
    25  H    7.619697   7.354829   8.324135   7.901210   5.913207
    26  H    7.909855   7.359961   8.327976   7.622268   5.918203
    27  H    9.070951   8.600377   9.441094   9.069737   7.102029
    28  H    8.290525   7.343494   7.922190   7.609537   5.905004
    29  H    8.253456   7.303341   7.598651   7.859351   5.867387
    30  H    9.396041   8.575283   9.070219   9.049885   7.080355
    31  H    9.046327   8.572070   9.067958   9.392446   7.077308
    32  H    7.853580   7.298595   7.595240   8.248841   5.862758
    33  H    7.603917   7.338107   7.919275   8.283551   5.899738
    34  H    4.883243   4.008928   4.347260   4.880185   2.596152
                    6          7          8          9         10
     6  O    0.000000
     7  O    2.223345   0.000000
     8  H    3.214302   3.406485   0.000000
     9  H    3.848435   4.349983   1.765973   0.000000
    10  H    2.542194   3.806897   1.767531   1.768609   0.000000
    11  H    3.961251   2.681480   3.744056   3.759083   4.298452
    12  H    4.506033   3.815066   3.094736   2.559187   3.758566
    13  H    3.960129   2.683754   2.538389   3.108339   3.744713
    14  H    3.850196   4.347367   3.750220   2.541942   3.093248
    15  H    3.216190   3.400744   4.305649   3.750013   3.744879
    16  H    2.544852   3.804770   3.744754   3.091501   2.531435
    17  H    1.007509   2.362037   3.962991   4.804216   3.435702
    18  C    5.352341   5.747710   7.923150   9.069937   7.597661
    19  C    4.984227   4.795589   7.342395   8.574222   7.301194
    20  C    5.798757   5.322746   8.289536   9.396324   8.253335
    21  C    5.792654   5.321987   7.605642   9.046350   7.853673
    22  C    3.527305   3.320181   5.904303   7.079527   5.865522
    23  O    3.690143   2.651180   5.606394   6.820016   5.889225
    24  O    2.651123   3.213517   5.340053   6.384074   5.000906
    25  H    5.121027   5.752802   7.487418   8.688419   7.139123
    26  H    5.128633   5.755397   7.982198   8.947486   7.451009
    27  H    6.438701   6.749954   8.962560  10.144746   8.669549
    28  H    5.608431   5.339269   8.361667   9.293649   8.136242
    29  H    5.891625   5.001919   8.134564   9.260066   8.288559
    30  H    6.821159   6.384405   9.292480  10.442310   9.259440
    31  H    6.816107   6.383567   8.680273  10.124724   8.900851
    32  H    5.884608   5.000175   7.429523   8.900773   7.886365
    33  H    5.598301   5.338985   7.161946   8.678796   7.427842
    34  H    2.986512   1.646175   4.730321   5.878797   5.065502
                   11         12         13         14         15
    11  H    0.000000
    12  H    1.768783   0.000000
    13  H    1.759256   1.768765   0.000000
    14  H    3.107134   2.558954   3.758883   0.000000
    15  H    2.538671   3.096016   3.744300   1.765975   0.000000
    16  H    3.744814   3.758511   4.298453   1.768632   1.767539
    17  H    4.584743   5.344208   4.584042   4.805115   3.963200
    18  C    8.325528   9.441071   8.326646   9.068140   7.918165
    19  C    7.357222   8.600398   7.357699   8.573124   7.339150
    20  C    7.622046   9.071591   7.906379   9.049870   7.607774
    21  C    7.904845   9.069174   7.620093   9.392168   8.284509
    22  C    5.915348   7.102026   5.916139   7.078100   5.900356
    23  O    5.123987   6.438756   5.125838   6.817341   5.600393
    24  O    5.754115   6.749923   5.754112   6.383825   5.338073
    25  H    8.381184   9.323592   8.196190   8.939567   7.970880
    26  H    8.197778   9.327599   8.386113   8.691418   7.485940
    27  H    9.325435  10.483614   9.325867  10.143823   8.959327
    28  H    7.487635   8.962563   7.977677   8.684015   7.165080
    29  H    7.143132   8.671133   7.447534   8.906073   7.434449
    30  H    8.691130  10.145505   8.944309  10.128069   8.682488
    31  H    8.942894  10.143129   8.688869  10.438817   9.288270
    32  H    7.445612   8.667604   7.139428   9.255431   8.130025
    33  H    7.975593   8.959439   7.485945   9.287140   8.354118
    34  H    4.152567   5.433102   4.154613   5.876051   4.724189
                   16         17         18         19         20
    16  H    0.000000
    17  H    3.437230   0.000000
    18  C    7.596125   4.347172   0.000000
    19  C    7.300746   4.008857   1.527290   0.000000
    20  C    7.859284   4.884732   2.513928   1.532818   0.000000
    21  C    8.248959   4.878539   2.513876   1.532939   2.511305
    22  C    5.864611   2.596069   2.495665   1.523563   2.473823
    23  O    5.887145   2.986486   3.677373   2.372780   2.852891
    24  O    5.001126   1.646094   2.736712   2.414557   3.433174
    25  H    7.441975   4.149565   1.087062   2.162233   3.463269
    26  H    7.143280   4.157423   1.087080   2.162270   2.751876
    27  H    8.669113   5.433027   1.086935   2.156541   2.759968
    28  H    7.436198   4.732378   2.748469   2.168887   1.088063
    29  H    7.893883   5.067770   3.461315   2.165914   1.086882
    30  H    8.906015   5.879837   2.759633   2.158405   1.087393
    31  H    9.256054   5.874864   2.760249   2.158544   2.750371
    32  H    8.283998   5.060846   3.461250   2.165964   2.745937
    33  H    8.128358   4.722020   2.747753   2.168974   3.463601
    34  H    5.063311   2.500259   4.426020   3.273925   3.771005
                   21         22         23         24         25
    21  C    0.000000
    22  C    2.472598   0.000000
    23  O    2.856641   1.307881   0.000000
    24  O    3.427596   1.218118   2.223370   0.000000
    25  H    2.753146   2.735798   3.961030   2.678818   0.000000
    26  H    3.463328   2.738152   3.960351   2.686389   1.759294
    27  H    2.758435   3.443601   4.506054   3.815073   1.768829
    28  H    3.463633   2.727145   3.211976   3.408243   3.744037
    29  H    2.745425   2.698325   2.541742   3.808707   4.298437
    30  H    2.750909   3.426378   3.848082   4.350767   3.759141
    31  H    1.087385   3.425497   3.850535   4.346595   3.109301
    32  H    1.086901   2.696567   2.545287   3.802906   3.745029
    33  H    1.088063   2.725764   3.218575   3.398995   2.538844
    34  H    3.772575   1.931280   1.007486   2.362043   4.583995
                   26         27         28         29         30
    26  H    0.000000
    27  H    1.768806   0.000000
    28  H    2.538151   3.096980   0.000000
    29  H    3.744471   3.758984   1.767480   0.000000
    30  H    3.106263   2.559577   1.765948   1.768623   0.000000
    31  H    3.758927   2.558640   3.750076   3.091554   2.541947
    32  H    4.298504   3.758131   3.744892   2.531525   3.093261
    33  H    3.744310   3.093715   4.305634   3.744815   3.750135
    34  H    4.584736   5.344202   3.961337   3.435974   4.804157
                   31         32         33         34
    31  H    0.000000
    32  H    1.768598   0.000000
    33  H    1.765964   1.767552   0.000000
    34  H    4.805111   3.436881   3.964876   0.000000
 Framework group  C1[X(C10H20O4)]
 Deg. of freedom    96
                         Standard orientation:                         
 ---------------------------------------------------------------------
 Center     Atomic      Atomic             Coordinates (Angstroms)
 Number     Number       Type             X           Y           Z
 ---------------------------------------------------------------------
      1          6           0        3.924812   -0.703671    1.253551
      2          6           0        3.439618    0.033431    0.000186
      3          6           0        3.936779    1.477516    0.003779
      4          6           0        3.923420   -0.696898   -1.257743
      5          6           0        1.916213    0.012726    0.000184
      6          8           0        1.407995   -1.192360    0.000089
      7          8           0        1.237825    1.024464   -0.000086
      8          1           0        3.578303   -0.197635    2.152302
      9          1           0        5.011837   -0.728105    1.267858
     10          1           0        3.550256   -1.723955    1.261390
     11          1           0        3.574919    2.006278   -0.874364
     12          1           0        5.023520    1.496935    0.003543
     13          1           0        3.575425    2.001697    0.884886
     14          1           0        5.010441   -0.720221   -1.274071
     15          1           0        3.574854   -0.186686   -2.153332
     16          1           0        3.549791   -1.717489   -1.270038
     17          1           0        0.400519   -1.184187   -0.000301
     18          6           0       -3.936738   -1.477539   -0.006938
     19          6           0       -3.439624   -0.033433   -0.000024
     20          6           0       -3.926140    0.707058   -1.250825
     21          6           0       -3.922122    0.693431    1.260439
     22          6           0       -1.916202   -0.012703   -0.001069
     23          8           0       -1.408030    1.192417   -0.000812
     24          8           0       -1.237803   -1.024427   -0.001231
     25          1           0       -3.572339   -2.009127    0.868465
     26          1           0       -3.577864   -1.998843   -0.890790
     27          1           0       -5.023494   -1.496994   -0.003673
     28          1           0       -3.579556    0.204177   -2.151310
     29          1           0       -3.552584    1.727718   -1.255719
     30          1           0       -5.013195    0.730439   -1.264573
     31          1           0       -5.009102    0.717829    1.277339
     32          1           0       -3.547471    1.713605    1.275762
     33          1           0       -3.573677    0.180045    2.154253
     34          1           0       -0.400576    1.184260   -0.000562
 ---------------------------------------------------------------------
 Rotational constants (GHZ):           1.6667914           0.2511360           0.2412690
   236 basis functions,   430 primitive gaussians,   250 cartesian basis functions
    56 alpha electrons       56 beta electrons
       nuclear repulsion energy       969.9530001622 Hartrees.
 NAtoms=   34 NActive=   34 NUniq=   34 SFac= 1.00D+00 NAtFMM=   60 NAOKFM=F Big=F
 Nuclear repulsion after empirical dispersion term =      969.9301978930 Hartrees.
   1 Symmetry operations used in ECPInt.
 ECPInt:  NShTT=    7750 NPrTT=   31118 LenC2=    7168 LenP2D=   20159.
 LDataN:  DoStor=T MaxTD1= 4 Len=   56
 ExpMin= 1.22D-01 ExpMax= 2.27D+03 ExpMxC= 3.41D+02 IAcc=3 IRadAn=         5 AccDes= 0.00D+00
 Harris functional with IExCor= 4639 and IRadAn=       5 diagonalized for initial guess.
 HarFok:  IExCor= 4639 AccDes= 0.00D+00 IRadAn=         5 IDoV= 1 UseB2=F ITyADJ=14
 ICtDFT=  3500011 ScaDFX=  1.000000  1.000000  1.000000  1.000000
 FoFCou: FMM=F IPFlag=           0 FMFlag=      100000 FMFlg1=           0
         NFxFlg=           0 DoJE=T BraDBF=F KetDBF=T FulRan=T
         wScrn=  0.000000 ICntrl=       500 IOpCl=  0 I1Cent=   200000004 NGrid=           0
         NMat0=    1 NMatS0=      1 NMatT0=    0 NMatD0=    1 NMtDS0=    0 NMtDT0=    0
 Petite list used in FoFCou.
     Accept linear search using points  2 and  3.
     Accept linear search using points  1 and  2.
     Accept linear search using points  2 and  3.
     Minimum is close to point  2 DX=  1.98D-04 DF= -5.68D-13 DXR=  1.98D-04 DFR=  4.34D-08 which will be used.
 SCF Done:  E(RwB97XD) =  -693.322592858     a.u. after    8 cycles
            Convg  =    0.3739D-09                    37 Fock formations.
              S**2 =  0.0000                  -V/T =  2.0089

 **********************************************************************

            Population analysis using the SCF Density.

 **********************************************************************

 Orbital symmetries:
       Occupied  (A) (A) (A) (A) (A) (A) (A) (A) (A) (A) (A) (A)
                 (A) (A) (A) (A) (A) (A) (A) (A) (A) (A) (A) (A)
                 (A) (A) (A) (A) (A) (A) (A) (A) (A) (A) (A) (A)
                 (A) (A) (A) (A) (A) (A) (A) (A) (A) (A) (A) (A)
                 (A) (A) (A) (A) (A) (A) (A) (A)
       Virtual   (A) (A) (A) (A) (A) (A) (A) (A) (A) (A) (A) (A)
                 (A) (A) (A) (A) (A) (A) (A) (A) (A) (A) (A) (A)
                 (A) (A) (A) (A) (A) (A) (A) (A) (A) (A) (A) (A)
                 (A) (A) (A) (A) (A) (A) (A) (A) (A) (A) (A) (A)
                 (A) (A) (A) (A) (A) (A) (A) (A) (A) (A) (A) (A)
                 (A) (A) (A) (A) (A) (A) (A) (A) (A) (A) (A) (A)
                 (A) (A) (A) (A) (A) (A) (A) (A) (A) (A) (A) (A)
                 (A) (A) (A) (A) (A) (A) (A) (A) (A) (A) (A) (A)
                 (A) (A) (A) (A) (A) (A) (A) (A) (A) (A) (A) (A)
                 (A) (A) (A) (A) (A) (A) (A) (A) (A) (A) (A) (A)
                 (A) (A) (A) (A) (A) (A) (A) (A) (A) (A) (A) (A)
                 (A) (A) (A) (A) (A) (A) (A) (A) (A) (A) (A) (A)
                 (A) (A) (A) (A) (A) (A) (A) (A) (A) (A) (A) (A)
                 (A) (A) (A) (A) (A) (A) (A) (A) (A) (A) (A) (A)
                 (A) (A) (A) (A) (A) (A) (A) (A) (A) (A) (A) (A)
 The electronic state is 1-A.
 Alpha  occ. eigenvalues --  -19.28975 -19.28974 -19.25749 -19.25746 -10.43498
 Alpha  occ. eigenvalues --  -10.43497 -10.32068 -10.32068 -10.28455 -10.28453
 Alpha  occ. eigenvalues --  -10.28447 -10.28445 -10.27773 -10.27772  -1.21066
 Alpha  occ. eigenvalues --   -1.19915  -1.11566  -1.10264  -0.92633  -0.92373
 Alpha  occ. eigenvalues --   -0.78705  -0.78703  -0.78386  -0.78334  -0.76194
 Alpha  occ. eigenvalues --   -0.73912  -0.66789  -0.65287  -0.60004  -0.58484
 Alpha  occ. eigenvalues --   -0.58100  -0.57095  -0.56426  -0.55972  -0.53058
 Alpha  occ. eigenvalues --   -0.52919  -0.51953  -0.51804  -0.51746  -0.48806
 Alpha  occ. eigenvalues --   -0.48008  -0.47937  -0.47495  -0.47359  -0.45455
 Alpha  occ. eigenvalues --   -0.45448  -0.44110  -0.43894  -0.42002  -0.41952
 Alpha  occ. eigenvalues --   -0.41804  -0.41793  -0.41431  -0.40478  -0.37557
 Alpha  occ. eigenvalues --   -0.35940
 Alpha virt. eigenvalues --    0.08143   0.08580   0.13343   0.13678   0.17794
 Alpha virt. eigenvalues --    0.18282   0.19717   0.19754   0.19764   0.20456
 Alpha virt. eigenvalues --    0.20830   0.20890   0.21244   0.21249   0.22457
 Alpha virt. eigenvalues --    0.24406   0.24970   0.25449   0.25459   0.25920
 Alpha virt. eigenvalues --    0.26501   0.27658   0.27769   0.27788   0.29052
 Alpha virt. eigenvalues --    0.29586   0.31719   0.31873   0.33263   0.34824
 Alpha virt. eigenvalues --    0.38173   0.40232   0.44561   0.47514   0.47916
 Alpha virt. eigenvalues --    0.47934   0.48020   0.48208   0.50857   0.51620
 Alpha virt. eigenvalues --    0.54070   0.54106   0.54924   0.59504   0.61753
 Alpha virt. eigenvalues --    0.62291   0.64016   0.65841   0.65848   0.66831
 Alpha virt. eigenvalues --    0.68247   0.69252   0.70094   0.71806   0.72049
 Alpha virt. eigenvalues --    0.73003   0.73407   0.74886   0.75413   0.75946
 Alpha virt. eigenvalues --    0.76998   0.77002   0.78010   0.78153   0.78900
 Alpha virt. eigenvalues --    0.79169   0.80518   0.80679   0.80959   0.80960
 Alpha virt. eigenvalues --    0.81381   0.81624   0.82272   0.83058   0.83766
 Alpha virt. eigenvalues --    0.84449   0.84607   0.84804   0.85149   0.85409
 Alpha virt. eigenvalues --    0.85459   0.86180   0.88499   0.88516   0.91536
 Alpha virt. eigenvalues --    0.92769   0.99143   1.03797   1.04646   1.06301
 Alpha virt. eigenvalues --    1.07629   1.08849   1.12836   1.15298   1.15867
 Alpha virt. eigenvalues --    1.19969   1.20456   1.21917   1.25150   1.25634
 Alpha virt. eigenvalues --    1.25750   1.27303   1.42320   1.42539   1.47424
 Alpha virt. eigenvalues --    1.47823   1.50504   1.51841   1.54362   1.56185
 Alpha virt. eigenvalues --    1.62623   1.66943   1.67368   1.68235   1.78286
 Alpha virt. eigenvalues --    1.78334   1.78919   1.79774   1.79824   1.80072
 Alpha virt. eigenvalues --    1.88314   1.88422   1.90173   1.90686   1.93519
 Alpha virt. eigenvalues --    1.94028   1.97756   1.99623   2.10715   2.11571
 Alpha virt. eigenvalues --    2.11674   2.11729   2.12134   2.13321   2.13389
 Alpha virt. eigenvalues --    2.13477   2.15006   2.15822   2.23869   2.23999
 Alpha virt. eigenvalues --    2.25632   2.25666   2.25804   2.26057   2.26137
 Alpha virt. eigenvalues --    2.26750   2.30081   2.31297   2.34725   2.39261
 Alpha virt. eigenvalues --    2.56881   2.56958   2.56984   2.58192   2.65861
 Alpha virt. eigenvalues --    2.65941   2.67058   2.67695   2.70016   2.70188
 Alpha virt. eigenvalues --    2.73332   2.73571   2.76322   2.76339   2.77404
 Alpha virt. eigenvalues --    2.80651   2.97124   3.03106   3.03623   3.04127
 Alpha virt. eigenvalues --    3.19371   3.21306   3.26526   3.26627   3.41940
 Alpha virt. eigenvalues --    3.42720   3.68715   3.70822   3.74295   3.75206
          Condensed to atoms (all electrons):
 Mulliken charges:
               1
     1  C   -0.259364
     2  C   -0.341107
     3  C   -0.219023
     4  C   -0.259496
     5  C    0.306023
     6  O   -0.370724
     7  O   -0.311983
     8  H    0.119038
     9  H    0.119006
    10  H    0.137269
    11  H    0.119929
    12  H    0.110109
    13  H    0.119830
    14  H    0.119100
    15  H    0.119117
    16  H    0.137194
    17  H    0.355072
    18  C   -0.219051
    19  C   -0.341103
    20  C   -0.259283
    21  C   -0.259562
    22  C    0.306031
    23  O   -0.370722
    24  O   -0.311973
    25  H    0.120017
    26  H    0.119754
    27  H    0.110116
    28  H    0.119008
    29  H    0.137282
    30  H    0.118975
    31  H    0.119132
    32  H    0.137181
    33  H    0.119143
    34  H    0.355067
 Sum of Mulliken charges =   0.00000
 Mulliken charges with hydrogens summed into heavy atoms:
               1
     1  C    0.115950
     2  C   -0.341107
     3  C    0.130844
     4  C    0.115914
     5  C    0.306023
     6  O   -0.015652
     7  O   -0.311983
    18  C    0.130836
    19  C   -0.341103
    20  C    0.115981
    21  C    0.115893
    22  C    0.306031
    23  O   -0.015654
    24  O   -0.311973
 Electronic spatial extent (au):  <R**2>=           4790.0190
 Charge=              0.0000 electrons
 Dipole moment (field-independent basis, Debye):
    X=             -0.0002    Y=             -0.0001    Z=              0.0021  Tot=              0.0021
   1 Symmetry operations used in ECPInt.
 ECPInt:  NShTT=    7750 NPrTT=   31118 LenC2=    7168 LenP2D=   20159.
 LDataN:  DoStor=T MaxTD1= 5 Len=  102
 Calling FoFJK, ICntrl=      2127 FMM=F ISym2X=0 I1Cent= 0 IOpClX= 0 NMat=1 NMatS=1 NMatT=0.

 GradGradGradGradGradGradGradGradGradGradGradGradGradGradGradGradGradGrad
 FormGI is forming the generalized inverse of G from B-inverse, IUseBI=4.
 Internal  Forces:  Max     0.011209620 RMS     0.003748420
 Step number   1 out of a maximum of  182
 All quantities printed in internal units (Hartrees-Bohrs-Radians)
 Mixed Optimization -- RFO/linear search
 Second derivative matrix not updated -- first step.
 ITU=  0
     Eigenvalues ---    0.00330   0.00331   0.00331   0.00332   0.00405
     Eigenvalues ---    0.00405   0.00454   0.00454   0.00511   0.01326
     Eigenvalues ---    0.01613   0.01769   0.02077   0.03213   0.03611
     Eigenvalues ---    0.04531   0.04531   0.04904   0.05368   0.05374
     Eigenvalues ---    0.05374   0.05601   0.05602   0.05602   0.05602
     Eigenvalues ---    0.05667   0.05667   0.05671   0.05671   0.05678
     Eigenvalues ---    0.05678   0.05681   0.05682   0.05682   0.05682
     Eigenvalues ---    0.08259   0.09473   0.15046   0.15046   0.15184
     Eigenvalues ---    0.15184   0.16000   0.16000   0.16000   0.16000
     Eigenvalues ---    0.16000   0.16000   0.16000   0.16000   0.16000
     Eigenvalues ---    0.16000   0.16000   0.16000   0.16000   0.16000
     Eigenvalues ---    0.16000   0.16000   0.16000   0.16000   0.16000
     Eigenvalues ---    0.21241   0.22986   0.25000   0.25000   0.29154
     Eigenvalues ---    0.29156   0.29161   0.29165   0.29675   0.29677
     Eigenvalues ---    0.30026   0.30028   0.35037   0.35037   0.35037
     Eigenvalues ---    0.35038   0.35116   0.35116   0.35116   0.35117
     Eigenvalues ---    0.35152   0.35154   0.35155   0.35156   0.35169
     Eigenvalues ---    0.35172   0.35173   0.35173   0.35174   0.35175
     Eigenvalues ---    0.44101   0.46394   0.63096   0.65053   0.91891
     Eigenvalues ---    0.96221
 Linear search not attempted -- first point.
 Iteration  1 RMS(Cart)=  0.02232770 RMS(Int)=  0.00022982
 Iteration  2 RMS(Cart)=  0.00041072 RMS(Int)=  0.00003262
 Iteration  3 RMS(Cart)=  0.00000005 RMS(Int)=  0.00003262
 Variable       Old X    -DE/DX   Delta X   Delta X   Delta X     New X
                                 (Linear)    (Quad)   (Total)
    R1        2.89668   0.00513   0.00000   0.01716   0.01716   2.91385
    R2        2.05615   0.01080   0.00000   0.03017   0.03017   2.08632
    R3        2.05488   0.01107   0.00000   0.03086   0.03086   2.08574
    R4        2.05393   0.01022   0.00000   0.02844   0.02844   2.08236
    R5        2.88613   0.00291   0.00000   0.00956   0.00956   2.89569
    R6        2.89679   0.00515   0.00000   0.01721   0.01721   2.91400
    R7        2.87908   0.00187   0.00000   0.00607   0.00607   2.88516
    R8        2.05422   0.01038   0.00000   0.02891   0.02891   2.08313
    R9        2.05397   0.01121   0.00000   0.03120   0.03120   2.08518
   R10        2.05424   0.01038   0.00000   0.02892   0.02892   2.08315
   R11        2.05488   0.01107   0.00000   0.03086   0.03086   2.08574
   R12        2.05615   0.01080   0.00000   0.03017   0.03017   2.08632
   R13        2.05395   0.01022   0.00000   0.02845   0.02845   2.08239
   R14        2.47151   0.00249   0.00000   0.00373   0.00374   2.47525
   R15        2.30192   0.00635   0.00000   0.00658   0.00657   2.30849
   R16        1.90392  -0.00222   0.00000  -0.00487  -0.00486   1.89906
   R17        3.11082  -0.00137   0.00000  -0.01442  -0.01443   3.09639
   R18        3.11067  -0.00137   0.00000  -0.01597  -0.01596   3.09470
   R19        2.88616   0.00290   0.00000   0.00954   0.00954   2.89570
   R20        2.05425   0.01036   0.00000   0.02885   0.02885   2.08310
   R21        2.05428   0.01037   0.00000   0.02889   0.02889   2.08318
   R22        2.05401   0.01119   0.00000   0.03117   0.03117   2.08518
   R23        2.89661   0.00514   0.00000   0.01717   0.01717   2.91378
   R24        2.89684   0.00515   0.00000   0.01722   0.01722   2.91405
   R25        2.87912   0.00186   0.00000   0.00605   0.00605   2.88517
   R26        2.05614   0.01080   0.00000   0.03018   0.03018   2.08632
   R27        2.05391   0.01022   0.00000   0.02844   0.02844   2.08235
   R28        2.05487   0.01107   0.00000   0.03086   0.03086   2.08574
   R29        2.05486   0.01108   0.00000   0.03088   0.03088   2.08574
   R30        2.05394   0.01022   0.00000   0.02846   0.02846   2.08240
   R31        2.05614   0.01080   0.00000   0.03018   0.03018   2.08632
   R32        2.47154   0.00248   0.00000   0.00383   0.00383   2.47536
   R33        2.30191   0.00635   0.00000   0.00652   0.00652   2.30843
   R34        1.90387  -0.00221   0.00000  -0.00453  -0.00454   1.89933
    A1        1.92939   0.00148   0.00000   0.00906   0.00900   1.93839
    A2        1.91557  -0.00019   0.00000  -0.00279  -0.00278   1.91279
    A3        1.92646   0.00209   0.00000   0.01395   0.01389   1.94035
    A4        1.89435  -0.00102   0.00000  -0.00895  -0.00894   1.88541
    A5        1.89745  -0.00144   0.00000  -0.00537  -0.00549   1.89196
    A6        1.90002  -0.00102   0.00000  -0.00651  -0.00651   1.89351
    A7        1.92806   0.00017   0.00000  -0.00126  -0.00125   1.92681
    A8        1.91983  -0.00055   0.00000  -0.00176  -0.00178   1.91804
    A9        1.88595   0.00058   0.00000   0.00622   0.00621   1.89216
   A10        1.92802   0.00015   0.00000  -0.00130  -0.00129   1.92673
   A11        1.91595  -0.00093   0.00000  -0.00800  -0.00799   1.90796
   A12        1.88505   0.00060   0.00000   0.00638   0.00637   1.89142
   A13        1.92801   0.00198   0.00000   0.01261   0.01255   1.94056
   A14        1.92023  -0.00091   0.00000  -0.00697  -0.00694   1.91328
   A15        1.92798   0.00198   0.00000   0.01262   0.01256   1.94054
   A16        1.90071  -0.00075   0.00000  -0.00596  -0.00593   1.89478
   A17        1.88554  -0.00164   0.00000  -0.00677  -0.00690   1.87864
   A18        1.90067  -0.00075   0.00000  -0.00597  -0.00595   1.89472
   A19        1.91563  -0.00019   0.00000  -0.00282  -0.00281   1.91282
   A20        1.92936   0.00148   0.00000   0.00907   0.00902   1.93838
   A21        1.92640   0.00210   0.00000   0.01398   0.01392   1.94032
   A22        1.89435  -0.00102   0.00000  -0.00896  -0.00894   1.88541
   A23        1.90004  -0.00102   0.00000  -0.00655  -0.00654   1.89350
   A24        1.89745  -0.00144   0.00000  -0.00534  -0.00546   1.89199
   A25        1.98348   0.00057   0.00000   0.00554   0.00554   1.98902
   A26        2.14787  -0.00090   0.00000  -0.00015  -0.00015   2.14773
   A27        2.15183   0.00033   0.00000  -0.00539  -0.00539   2.14644
   A28        1.96178  -0.00320   0.00000  -0.03541  -0.03539   1.92639
   A29        2.25868  -0.00043   0.00000  -0.01701  -0.01703   2.24165
   A30        1.92797   0.00198   0.00000   0.01264   0.01259   1.94055
   A31        1.92800   0.00198   0.00000   0.01260   0.01255   1.94055
   A32        1.92021  -0.00090   0.00000  -0.00695  -0.00693   1.91328
   A33        1.88555  -0.00164   0.00000  -0.00678  -0.00691   1.87864
   A34        1.90074  -0.00075   0.00000  -0.00595  -0.00592   1.89482
   A35        1.90068  -0.00075   0.00000  -0.00602  -0.00599   1.89469
   A36        1.92813   0.00017   0.00000  -0.00128  -0.00127   1.92685
   A37        1.92795   0.00015   0.00000  -0.00128  -0.00127   1.92668
   A38        1.91593  -0.00093   0.00000  -0.00798  -0.00797   1.90795
   A39        1.91984  -0.00055   0.00000  -0.00177  -0.00179   1.91805
   A40        1.88624   0.00057   0.00000   0.00618   0.00617   1.89241
   A41        1.88477   0.00060   0.00000   0.00641   0.00640   1.89117
   A42        1.92939   0.00148   0.00000   0.00907   0.00902   1.93841
   A43        1.92649   0.00209   0.00000   0.01393   0.01388   1.94037
   A44        1.91559  -0.00019   0.00000  -0.00281  -0.00280   1.91279
   A45        1.89739  -0.00144   0.00000  -0.00536  -0.00548   1.89191
   A46        1.89432  -0.00102   0.00000  -0.00894  -0.00893   1.88539
   A47        1.90005  -0.00102   0.00000  -0.00651  -0.00651   1.89355
   A48        1.91564  -0.00019   0.00000  -0.00283  -0.00282   1.91283
   A49        1.92639   0.00210   0.00000   0.01397   0.01392   1.94031
   A50        1.92936   0.00148   0.00000   0.00905   0.00900   1.93836
   A51        1.90000  -0.00102   0.00000  -0.00655  -0.00654   1.89346
   A52        1.89436  -0.00102   0.00000  -0.00895  -0.00893   1.88542
   A53        1.89748  -0.00144   0.00000  -0.00533  -0.00544   1.89204
   A54        1.98346   0.00057   0.00000   0.00547   0.00547   1.98893
   A55        2.14787  -0.00089   0.00000  -0.00023  -0.00023   2.14764
   A56        2.15186   0.00032   0.00000  -0.00524  -0.00524   2.14662
   A57        1.96175  -0.00319   0.00000  -0.03309  -0.03311   1.92864
   A58        2.25868  -0.00042   0.00000  -0.01840  -0.01838   2.24030
   A59        3.05250   0.00330   0.00000   0.05948   0.05950   3.11200
   A60        3.05246   0.00330   0.00000   0.05507   0.05505   3.10751
   A61        3.14141   0.00000   0.00000   0.00034   0.00034   3.14175
   A62        3.14153  -0.00000   0.00000  -0.00014  -0.00014   3.14139
    D1        1.01783  -0.00044   0.00000   0.00226   0.00223   1.02005
    D2       -3.13237  -0.00051   0.00000  -0.00139  -0.00142  -3.13379
    D3       -1.07836   0.00024   0.00000   0.00892   0.00889  -1.06948
    D4       -1.07122   0.00002   0.00000   0.00945   0.00944  -1.06177
    D5        1.06177  -0.00005   0.00000   0.00580   0.00580   1.06757
    D6        3.11578   0.00069   0.00000   0.01611   0.01611   3.13188
    D7        3.11774   0.00008   0.00000   0.01051   0.01054   3.12828
    D8       -1.03246   0.00002   0.00000   0.00686   0.00690  -1.02556
    D9        1.02155   0.00076   0.00000   0.01717   0.01721   1.03875
   D10       -3.12038  -0.00049   0.00000  -0.00580  -0.00585  -3.12622
   D11        1.06376  -0.00024   0.00000  -0.00195  -0.00196   1.06180
   D12       -1.03523   0.00001   0.00000   0.00191   0.00194  -1.03328
   D13        1.03464  -0.00000   0.00000  -0.00186  -0.00190   1.03275
   D14       -1.06441   0.00024   0.00000   0.00199   0.00199  -1.06242
   D15        3.11979   0.00049   0.00000   0.00585   0.00589   3.12569
   D16       -1.04229  -0.00025   0.00000  -0.00392  -0.00396  -1.04626
   D17       -3.14135  -0.00001   0.00000  -0.00007  -0.00007  -3.14142
   D18        1.04286   0.00024   0.00000   0.00379   0.00383   1.04668
   D19       -1.06296   0.00004   0.00000  -0.00551  -0.00552  -1.06848
   D20        3.13115   0.00050   0.00000   0.00169   0.00172   3.13286
   D21        1.03129  -0.00002   0.00000  -0.00663  -0.00666   1.02463
   D22        1.07005  -0.00001   0.00000  -0.00914  -0.00914   1.06091
   D23       -1.01903   0.00045   0.00000  -0.00194  -0.00190  -1.02093
   D24       -3.11888  -0.00008   0.00000  -0.01026  -0.01028  -3.12917
   D25       -3.11754  -0.00069   0.00000  -0.01572  -0.01572  -3.13325
   D26        1.07657  -0.00023   0.00000  -0.00852  -0.00848   1.06809
   D27       -1.02328  -0.00075   0.00000  -0.01683  -0.01687  -1.04015
   D28       -1.03539   0.00000   0.00000  -0.00271  -0.00273  -1.03813
   D29        2.10654   0.00001   0.00000  -0.00255  -0.00257   2.10397
   D30       -3.13917  -0.00001   0.00000  -0.00024  -0.00024  -3.13942
   D31        0.00276  -0.00000   0.00000  -0.00008  -0.00008   0.00268
   D32        1.04084  -0.00001   0.00000   0.00216   0.00218   1.04302
   D33       -2.10041  -0.00001   0.00000   0.00232   0.00234  -2.09807
   D34       -3.14117   0.00001   0.00000   0.00020   0.00019  -3.14098
   D35        0.00008   0.00000   0.00000   0.00004   0.00004   0.00011
   D36        3.14126  -0.00000   0.00000  -0.00007  -0.00007   3.14118
   D37        0.00004   0.00000   0.00000   0.00010   0.00010   0.00014
   D38       -0.00064  -0.00000   0.00000   0.00003   0.00003  -0.00062
   D39       -0.00018  -0.00000   0.00000   0.00004   0.00004  -0.00014
   D40        3.11852   0.00049   0.00000   0.00624   0.00629   3.12481
   D41       -1.03648   0.00001   0.00000   0.00229   0.00233  -1.03415
   D42        1.04006   0.00026   0.00000   0.00442   0.00446   1.04451
   D43        1.03337  -0.00001   0.00000  -0.00147  -0.00150   1.03187
   D44       -3.12163  -0.00049   0.00000  -0.00542  -0.00547  -3.12709
   D45       -1.04509  -0.00024   0.00000  -0.00329  -0.00334  -1.04843
   D46       -1.06562   0.00025   0.00000   0.00244   0.00245  -1.06317
   D47        1.06257  -0.00024   0.00000  -0.00151  -0.00151   1.06105
   D48        3.13910   0.00002   0.00000   0.00062   0.00062   3.13972
   D49       -1.01904   0.00044   0.00000  -0.00204  -0.00200  -1.02105
   D50       -3.11890  -0.00008   0.00000  -0.01030  -0.01033  -3.12923
   D51        1.06998  -0.00002   0.00000  -0.00921  -0.00921   1.06077
   D52        3.13118   0.00051   0.00000   0.00161   0.00164   3.13282
   D53        1.03133  -0.00002   0.00000  -0.00665  -0.00669   1.02463
   D54       -1.06298   0.00005   0.00000  -0.00556  -0.00557  -1.06855
   D55        1.07733  -0.00023   0.00000  -0.00871  -0.00868   1.06865
   D56       -1.02252  -0.00076   0.00000  -0.01698  -0.01701  -1.03953
   D57       -3.11683  -0.00069   0.00000  -0.01589  -0.01589  -3.13271
   D58       -1.07139   0.00002   0.00000   0.00941   0.00941  -1.06198
   D59        3.11759   0.00009   0.00000   0.01053   0.01056   3.12815
   D60        1.01770  -0.00044   0.00000   0.00221   0.00217   1.01987
   D61        1.06167  -0.00004   0.00000   0.00576   0.00577   1.06744
   D62       -1.03254   0.00003   0.00000   0.00688   0.00692  -1.02562
   D63       -3.13242  -0.00050   0.00000  -0.00144  -0.00147  -3.13389
   D64        3.11644   0.00069   0.00000   0.01594   0.01594   3.13237
   D65        1.02223   0.00076   0.00000   0.01706   0.01709   1.03931
   D66       -1.07766   0.00023   0.00000   0.00874   0.00870  -1.06896
   D67        3.13705  -0.00000   0.00000   0.00010   0.00010   3.13715
   D68       -0.00535   0.00001   0.00000   0.00030   0.00030  -0.00505
   D69        1.03303  -0.00001   0.00000   0.00260   0.00262   1.03565
   D70       -2.10937   0.00000   0.00000   0.00280   0.00282  -2.10654
   D71       -1.04322   0.00001   0.00000  -0.00226  -0.00228  -1.04550
   D72        2.09756   0.00001   0.00000  -0.00205  -0.00208   2.09549
   D73        3.14057   0.00000   0.00000   0.00011   0.00011   3.14068
   D74       -0.00022  -0.00000   0.00000  -0.00010  -0.00010  -0.00031
   D75       -3.14002  -0.00001   0.00000  -0.00022  -0.00022  -3.14024
   D76        0.00069  -0.00000   0.00000   0.00001   0.00001   0.00070
         Item               Value     Threshold  Converged?
 Maximum Force            0.011210     0.000015     NO 
 RMS     Force            0.003748     0.000010     NO 
 Maximum Displacement     0.066588     0.000060     NO 
 RMS     Displacement     0.022218     0.000040     NO 
 GradGradGradGradGradGradGradGradGradGradGradGradGradGradGradGradGradGrad

                    Distance matrix (angstroms):
                    1          2          3          4          5
     1  C    0.000000
     2  C    1.541941   0.000000
     3  C    2.524412   1.532333   0.000000
     4  C    2.524627   1.542023   2.524409   0.000000
     5  C    2.489127   1.526759   2.495376   2.488529   0.000000
     6  O    2.876708   2.381405   3.683482   2.878475   1.309844
     7  O    3.448834   2.420318   2.732807   3.446052   1.221602
     8  H    1.104032   2.195454   2.773109   3.495750   2.754332
     9  H    1.103725   2.176537   2.769877   2.769074   3.453240
    10  H    1.101939   2.195293   3.491545   2.772691   2.740647
    11  H    3.493932   2.187263   1.102343   2.777448   2.753559
    12  H    2.767709   2.168238   1.103427   2.767964   3.456790
    13  H    2.777720   2.187260   1.102357   3.493955   2.753746
    14  H    2.769554   2.176629   2.769478   1.103726   3.452829
    15  H    3.495730   2.195524   2.773489   1.104034   2.752923
    16  H    2.772259   2.195352   3.491556   1.101955   2.740523
    17  H    3.786338   3.264981   4.403632   3.786916   1.908436
    18  C    8.007892   7.524734   8.398326   8.005891   6.031641
    19  C    7.520670   6.885934   7.525308   7.519623   5.359208
    20  C    8.395293   7.522069   8.008818   8.006508   6.032805
    21  C    8.002877   7.518797   8.006818   8.391466   6.029602
    22  C    6.031740   5.359208   6.032040   6.030273   3.832510
    23  O    5.810407   4.983811   5.338667   5.807719   3.525329
    24  O    5.336275   4.794297   5.738834   5.335859   3.314812
    25  H    7.629754   7.355742   8.321251   7.915916   5.912185
    26  H    7.923387   7.360026   8.324338   7.631733   5.916362
    27  H    9.095789   8.612202   9.445493   9.094641   7.110543
    28  H    8.328861   7.364655   7.931800   7.639173   5.924837
    29  H    8.316541   7.351411   7.630612   7.918505   5.914300
    30  H    9.443352   8.610423   9.097421   9.095456   7.112181
    31  H    9.092074   8.607540   9.095486   9.440226   7.109445
    32  H    7.913098   7.347200   7.627696   8.312629   5.910197
    33  H    7.633758   7.359663   7.929217   8.322489   5.919950
    34  H    4.885500   4.001586   4.339631   4.882683   2.581822
                    6          7          8          9         10
     6  O    0.000000
     7  O    2.224885   0.000000
     8  H    3.242684   3.433254   0.000000
     9  H    3.889738   4.374425   1.786408   0.000000
    10  H    2.590945   3.852833   1.789200   1.789951   0.000000
    11  H    3.982322   2.688538   3.788858   3.786333   4.351315
    12  H    4.525328   3.827422   3.119648   2.554391   3.782152
    13  H    3.981291   2.690681   2.569291   3.129208   3.791025
    14  H    3.891331   4.372038   3.785011   2.555185   3.123913
    15  H    3.244667   3.428035   4.357597   3.784857   3.791187
    16  H    2.593407   3.850819   3.791100   3.122558   2.563677
    17  H    1.004937   2.326186   3.977702   4.838075   3.487780
    18  C    5.337488   5.739058   7.931993   9.096306   7.628520
    19  C    4.982979   4.794821   7.363358   8.609184   7.348799
    20  C    5.811191   5.337020   8.327923   9.443699   8.316131
    21  C    5.805576   5.336502   7.635460   9.092148   7.912725
    22  C    3.524641   3.315211   5.923976   7.111267   5.912190
    23  O    3.687066   2.643261   5.623421   6.842874   5.933890
    24  O    2.642311   3.205466   5.355959   6.414930   5.041257
    25  H    5.111035   5.754433   7.495448   8.717528   7.167248
    26  H    5.117615   5.756366   8.000161   8.979090   7.484310
    27  H    6.440396   6.757108   8.986933  10.187472   8.716309
    28  H    5.624740   5.355772   8.407201   9.344414   8.202785
    29  H    5.935641   5.042901   8.201433   9.332664   8.382748
    30  H    6.843218   6.415825   9.343251  10.503134   9.331653
    31  H    6.838585   6.415243   8.724058  10.184418   8.969810
    32  H    5.929296   5.041597   7.485052   8.970302   7.975533
    33  H    5.615276   5.355730   7.184198   8.722603   7.482965
    34  H    2.959028   1.638540   4.741525   5.891997   5.092508
                   11         12         13         14         15
    11  H    0.000000
    12  H    1.790852   0.000000
    13  H    1.779537   1.790828   0.000000
    14  H    3.128182   2.554236   3.786191   0.000000
    15  H    2.569413   3.120671   3.789024   1.786412   0.000000
    16  H    3.791050   3.782130   4.351356   1.789954   1.789234
    17  H    4.571954   5.339959   4.571412   4.838741   3.977863
    18  C    8.322554   9.445353   8.323595   9.094662   7.927647
    19  C    7.358500   8.612711   7.358887   8.608270   7.360740
    20  C    7.632792   9.097179   7.921379   9.095520   7.637823
    21  C    7.920214   9.095052   7.631069   9.440017   8.323750
    22  C    5.914484   7.110888   5.915185   7.110019   5.920650
    23  O    5.114723   6.441574   5.116463   6.840435   5.618022
    24  O    5.755339   6.756794   5.755328   6.414720   5.354424
    25  H    8.390859   9.335231   8.201589   8.972242   7.990404
    26  H    8.202581   9.338473   8.394960   8.719854   7.493897
    27  H    9.337071  10.504059   9.337530  10.186560   8.984069
    28  H    7.496335   8.987549   7.997008   8.727636   7.187553
    29  H    7.172176   8.718962   7.482572   8.975277   7.489985
    30  H    8.720935  10.188990   8.977407  10.187598   8.726449
    31  H    8.976367  10.186930   8.718963  10.500072   9.339832
    32  H    7.481213   8.715912   7.168885   9.328708   8.197900
    33  H    7.995335   8.984737   7.494902   9.338426   8.400578
    34  H    4.155470   5.441649   4.157396   5.889490   4.735965
                   16         17         18         19         20
    16  H    0.000000
    17  H    3.488992   0.000000
    18  C    7.627074   4.338969   0.000000
    19  C    7.348429   4.000200   1.532337   0.000000
    20  C    7.917977   4.885298   2.524426   1.541904   0.000000
    21  C    8.312169   4.879792   2.524393   1.542051   2.524627
    22  C    5.911365   2.580139   2.495380   1.526764   2.489324
    23  O    5.931902   2.956984   3.683499   2.381387   2.875621
    24  O    5.041464   1.637647   2.732704   2.420240   3.449916
    25  H    7.476392   4.152775   1.102329   2.187249   3.493903
    26  H    7.170609   4.159404   1.102370   2.187275   2.777111
    27  H    8.715790   5.440958   1.103427   2.168240   2.768387
    28  H    7.490880   4.742111   2.773604   2.195439   1.104033
    29  H    7.982492   5.092616   3.491559   2.195267   1.101934
    30  H    8.974623   5.891514   2.769422   2.176503   1.103726
    31  H    9.328600   5.887108   2.769962   2.176659   2.769075
    32  H    8.378775   5.086537   3.491544   2.195375   2.772720
    33  H    8.195438   4.732798   2.772963   2.195534   3.495716
    34  H    5.090408   2.434178   4.405235   3.266027   3.786237
                   21         22         23         24         25
    21  C    0.000000
    22  C    2.488332   0.000000
    23  O    2.879452   1.309906   0.000000
    24  O    3.444826   1.221570   2.225022   0.000000
    25  H    2.778047   2.752735   3.982344   2.686242   0.000000
    26  H    3.493975   2.754568   3.981328   2.692782   1.779538
    27  H    2.767285   3.456794   4.525322   3.827315   1.790868
    28  H    3.495762   2.754209   3.240363   3.434860   3.788861
    29  H    2.772268   2.741271   2.590192   3.854360   4.351283
    30  H    2.769534   3.453385   3.889174   4.375059   3.786311
    31  H    1.103726   3.452689   3.891752   4.371255   3.129902
    32  H    1.101961   2.739876   2.593959   3.849166   3.791235
    33  H    1.104035   2.753072   3.246979   3.426318   2.569525
    34  H    3.787914   1.910056   1.005082   2.328606   4.573355
                   26         27         28         29         30
    26  H    0.000000
    27  H    1.790816   0.000000
    28  H    2.569136   3.121396   0.000000
    29  H    3.790817   3.782429   1.789162   0.000000
    30  H    3.127524   2.554622   1.786397   1.789970   0.000000
    31  H    3.786233   2.554039   3.784905   3.122514   2.555164
    32  H    4.351385   3.781870   3.791214   2.563718   3.123973
    33  H    3.788991   3.118880   4.357595   3.791117   3.784937
    34  H    4.573642   5.341326   3.976742   3.487514   4.838238
                   31         32         33         34
    31  H    0.000000
    32  H    1.789934   0.000000
    33  H    1.786420   1.789269   0.000000
    34  H    4.839344   3.488700   3.980315   0.000000
 Framework group  C1[X(C10H20O4)]
 Deg. of freedom    96
                         Standard orientation:                         
 ---------------------------------------------------------------------
 Center     Atomic      Atomic             Coordinates (Angstroms)
 Number     Number       Type             X           Y           Z
 ---------------------------------------------------------------------
      1          6           0        3.941236   -0.703173    1.260125
      2          6           0        3.442833    0.032707    0.000102
      3          6           0        3.927546    1.486352    0.003761
      4          6           0        3.939994   -0.696311   -1.264493
      5          6           0        1.916254    0.009331    0.000149
      6          8           0        1.402664   -1.195624   -0.000270
      7          8           0        1.234329    1.022884    0.000029
      8          1           0        3.589068   -0.201110    2.178166
      9          1           0        5.044861   -0.706550    1.274589
     10          1           0        3.588312   -1.746926    1.277228
     11          1           0        3.565179    2.029368   -0.884487
     12          1           0        5.030738    1.509123    0.003563
     13          1           0        3.565647    2.024717    0.895043
     14          1           0        5.043601   -0.698800   -1.280584
     15          1           0        3.586115   -0.189777   -2.179416
     16          1           0        3.587821   -1.740245   -1.286441
     17          1           0        0.398851   -1.148087   -0.000795
     18          6           0       -3.926869   -1.486850   -0.006801
     19          6           0       -3.442787   -0.033003    0.000139
     20          6           0       -3.942754    0.705968   -1.257408
     21          6           0       -3.939006    0.692458    1.267180
     22          6           0       -1.916212   -0.008965   -0.000931
     23          8           0       -1.403235    1.196318   -0.000588
     24          8           0       -1.233954   -1.022254   -0.001395
     25          1           0       -3.562164   -2.032389    0.878923
     26          1           0       -3.566839   -2.022347   -0.900580
     27          1           0       -5.030048   -1.510111   -0.004111
     28          1           0       -3.590473    0.207075   -2.177131
     29          1           0       -3.591096    1.750187   -1.271645
     30          1           0       -5.046391    0.708022   -1.271278
     31          1           0       -5.042602    0.695361    1.283852
     32          1           0       -3.586420    1.736194    1.292031
     33          1           0       -3.584852    0.183039    2.180394
     34          1           0       -0.399150    1.151569   -0.000467
 ---------------------------------------------------------------------
 Rotational constants (GHZ):           1.6515795           0.2500877           0.2403398
   236 basis functions,   430 primitive gaussians,   250 cartesian basis functions
    56 alpha electrons       56 beta electrons
       nuclear repulsion energy       966.2739609948 Hartrees.
 NAtoms=   34 NActive=   34 NUniq=   34 SFac= 1.00D+00 NAtFMM=   60 NAOKFM=F Big=F
 Nuclear repulsion after empirical dispersion term =      966.2511393809 Hartrees.
   1 Symmetry operations used in ECPInt.
 ECPInt:  NShTT=    7750 NPrTT=   31118 LenC2=    7168 LenP2D=   20113.
 LDataN:  DoStor=T MaxTD1= 4 Len=   56
 Initial guess from the checkpoint file:  "/scratch/user/peterchao1/peterchao1/6113312_1660079070000000064873637/Gau-158468.chk"
 B after Tr=    -0.000000   -0.000000    0.000000
         Rot=    1.000000   -0.000015   -0.000006   -0.000687 Ang=  -0.08 deg.
 ExpMin= 1.22D-01 ExpMax= 2.27D+03 ExpMxC= 3.41D+02 IAcc=3 IRadAn=         5 AccDes= 0.00D+00
 Harris functional with IExCor= 4639 and IRadAn=       5 diagonalized for initial guess.
 HarFok:  IExCor= 4639 AccDes= 0.00D+00 IRadAn=         5 IDoV= 1 UseB2=F ITyADJ=14
 ICtDFT=  3500011 ScaDFX=  1.000000  1.000000  1.000000  1.000000
 FoFCou: FMM=F IPFlag=           0 FMFlag=      100000 FMFlg1=           0
         NFxFlg=           0 DoJE=T BraDBF=F KetDBF=T FulRan=T
         wScrn=  0.000000 ICntrl=       500 IOpCl=  0 I1Cent=   200000004 NGrid=           0
         NMat0=    1 NMatS0=      1 NMatT0=    0 NMatD0=    1 NMtDS0=    0 NMtDT0=    0
 Petite list used in FoFCou.
     Accept linear search using points  3 and  4.
     Minimum is close to point  3 DX=  1.19D-02 DF= -2.32D-08 DXR=  1.07D-02 DFR=  1.14D-04 which will be used.
     Accept linear search using points  1 and  2.
     Accept linear search using points  1 and  2.
     Minimum is close to point  2 DX= -1.28D-05 DF=  0.00D+00 DXR=  1.28D-05 DFR=  0.00D+00 which will be used.
 SCF Done:  E(RwB97XD) =  -693.326278489     a.u. after    6 cycles
            Convg  =    0.2399D-09                    33 Fock formations.
              S**2 =  0.0000                  -V/T =  2.0096
   1 Symmetry operations used in ECPInt.
 ECPInt:  NShTT=    7750 NPrTT=   31118 LenC2=    7168 LenP2D=   20113.
 LDataN:  DoStor=T MaxTD1= 5 Len=  102
 Calling FoFJK, ICntrl=      2127 FMM=F ISym2X=0 I1Cent= 0 IOpClX= 0 NMat=1 NMatS=1 NMatT=0.

 GradGradGradGradGradGradGradGradGradGradGradGradGradGradGradGradGradGrad
 Using GEDIIS/GDIIS optimizer.
 FormGI is forming the generalized inverse of G from B-inverse, IUseBI=4.
 Internal  Forces:  Max     0.001538559 RMS     0.000392220
 Step number   2 out of a maximum of  182
 All quantities printed in internal units (Hartrees-Bohrs-Radians)
 Mixed Optimization -- En-DIIS/RFO-DIIS
 Trust test= 9.48D-01 RLast= 1.86D-01 DXMaxT set to 5.05D-01
 ITU=  1  0
 Use linear search instead of GDIIS.
     Eigenvalues ---    0.00330   0.00331   0.00331   0.00332   0.00405
     Eigenvalues ---    0.00405   0.00454   0.00454   0.00506   0.01276
     Eigenvalues ---    0.01600   0.01761   0.02050   0.03194   0.03611
     Eigenvalues ---    0.04554   0.04563   0.04825   0.05345   0.05414
     Eigenvalues ---    0.05414   0.05477   0.05478   0.05479   0.05479
     Eigenvalues ---    0.05544   0.05545   0.05590   0.05640   0.05661
     Eigenvalues ---    0.05661   0.05662   0.05663   0.05675   0.05675
     Eigenvalues ---    0.08205   0.09439   0.15091   0.15116   0.15131
     Eigenvalues ---    0.15132   0.15797   0.16000   0.16000   0.16000
     Eigenvalues ---    0.16000   0.16000   0.16000   0.16000   0.16000
     Eigenvalues ---    0.16000   0.16000   0.16000   0.16000   0.16000
     Eigenvalues ---    0.16000   0.16000   0.16000   0.16000   0.16245
     Eigenvalues ---    0.21225   0.22919   0.24981   0.25000   0.29155
     Eigenvalues ---    0.29159   0.29163   0.29443   0.29676   0.29772
     Eigenvalues ---    0.30027   0.30034   0.35027   0.35037   0.35037
     Eigenvalues ---    0.35037   0.35061   0.35116   0.35116   0.35116
     Eigenvalues ---    0.35145   0.35153   0.35155   0.35156   0.35168
     Eigenvalues ---    0.35171   0.35173   0.35174   0.35175   0.35880
     Eigenvalues ---    0.44059   0.46557   0.63082   0.64971   0.91859
     Eigenvalues ---    0.95898
 Quartic linear search produced a step of -0.00818.
 Iteration  1 RMS(Cart)=  0.00849681 RMS(Int)=  0.00004050
 Iteration  2 RMS(Cart)=  0.00004761 RMS(Int)=  0.00000105
 Iteration  3 RMS(Cart)=  0.00000000 RMS(Int)=  0.00000105
 Variable       Old X    -DE/DX   Delta X   Delta X   Delta X     New X
                                 (Linear)    (Quad)   (Total)
    R1        2.91385  -0.00153  -0.00014  -0.00481  -0.00495   2.90890
    R2        2.08632   0.00004  -0.00025   0.00081   0.00056   2.08688
    R3        2.08574   0.00015  -0.00025   0.00115   0.00089   2.08663
    R4        2.08236   0.00000  -0.00023   0.00068   0.00044   2.08281
    R5        2.89569  -0.00089  -0.00008  -0.00275  -0.00283   2.89286
    R6        2.91400  -0.00154  -0.00014  -0.00483  -0.00497   2.90903
    R7        2.88516  -0.00086  -0.00005  -0.00269  -0.00274   2.88242
    R8        2.08313  -0.00009  -0.00024   0.00041   0.00018   2.08330
    R9        2.08518   0.00029  -0.00026   0.00153   0.00128   2.08645
   R10        2.08315  -0.00009  -0.00024   0.00042   0.00018   2.08333
   R11        2.08574   0.00015  -0.00025   0.00114   0.00089   2.08663
   R12        2.08632   0.00004  -0.00025   0.00081   0.00056   2.08688
   R13        2.08239   0.00000  -0.00023   0.00067   0.00044   2.08283
   R14        2.47525   0.00103  -0.00003   0.00170   0.00167   2.47691
   R15        2.30849   0.00098  -0.00005   0.00114   0.00108   2.30958
   R16        1.89906   0.00088   0.00004   0.00189   0.00193   1.90098
   R17        3.09639  -0.00085   0.00012  -0.01119  -0.01107   3.08532
   R18        3.09470  -0.00086   0.00013  -0.00998  -0.00985   3.08486
   R19        2.89570  -0.00089  -0.00008  -0.00276  -0.00284   2.89286
   R20        2.08310  -0.00009  -0.00024   0.00041   0.00018   2.08328
   R21        2.08318  -0.00009  -0.00024   0.00042   0.00018   2.08336
   R22        2.08518   0.00028  -0.00025   0.00153   0.00127   2.08645
   R23        2.91378  -0.00153  -0.00014  -0.00479  -0.00493   2.90884
   R24        2.91405  -0.00154  -0.00014  -0.00482  -0.00497   2.90909
   R25        2.88517  -0.00086  -0.00005  -0.00269  -0.00274   2.88242
   R26        2.08632   0.00004  -0.00025   0.00081   0.00056   2.08688
   R27        2.08235   0.00000  -0.00023   0.00067   0.00044   2.08279
   R28        2.08574   0.00015  -0.00025   0.00114   0.00089   2.08663
   R29        2.08574   0.00015  -0.00025   0.00114   0.00089   2.08663
   R30        2.08240   0.00000  -0.00023   0.00067   0.00044   2.08284
   R31        2.08632   0.00004  -0.00025   0.00081   0.00056   2.08688
   R32        2.47536   0.00094  -0.00003   0.00148   0.00145   2.47682
   R33        2.30843   0.00102  -0.00005   0.00124   0.00118   2.30962
   R34        1.89933   0.00071   0.00004   0.00130   0.00133   1.90066
    A1        1.93839   0.00011  -0.00007   0.00084   0.00077   1.93915
    A2        1.91279   0.00002   0.00002  -0.00017  -0.00014   1.91265
    A3        1.94035   0.00009  -0.00011   0.00116   0.00105   1.94140
    A4        1.88541  -0.00012   0.00007  -0.00144  -0.00136   1.88405
    A5        1.89196  -0.00006   0.00004  -0.00011  -0.00006   1.89190
    A6        1.89351  -0.00005   0.00005  -0.00039  -0.00034   1.89317
    A7        1.92681  -0.00009   0.00001  -0.00085  -0.00085   1.92596
    A8        1.91804  -0.00001   0.00001  -0.00262  -0.00261   1.91544
    A9        1.89216  -0.00009  -0.00005  -0.00035  -0.00040   1.89176
   A10        1.92673  -0.00009   0.00001  -0.00086  -0.00086   1.92587
   A11        1.90796   0.00038   0.00007   0.00502   0.00508   1.91304
   A12        1.89142  -0.00009  -0.00005  -0.00026  -0.00031   1.89110
   A13        1.94056   0.00015  -0.00010   0.00131   0.00121   1.94177
   A14        1.91328   0.00030   0.00006   0.00157   0.00163   1.91491
   A15        1.94054   0.00015  -0.00010   0.00131   0.00121   1.94175
   A16        1.89478  -0.00025   0.00005  -0.00185  -0.00181   1.89297
   A17        1.87864  -0.00013   0.00006  -0.00068  -0.00062   1.87802
   A18        1.89472  -0.00025   0.00005  -0.00186  -0.00181   1.89291
   A19        1.91282   0.00002   0.00002  -0.00019  -0.00017   1.91265
   A20        1.93838   0.00011  -0.00007   0.00083   0.00076   1.93914
   A21        1.94032   0.00009  -0.00011   0.00116   0.00105   1.94137
   A22        1.88541  -0.00012   0.00007  -0.00142  -0.00135   1.88406
   A23        1.89350  -0.00005   0.00005  -0.00039  -0.00034   1.89316
   A24        1.89199  -0.00006   0.00004  -0.00009  -0.00004   1.89195
   A25        1.98902  -0.00004  -0.00005  -0.00018  -0.00022   1.98880
   A26        2.14773  -0.00050   0.00000  -0.00211  -0.00211   2.14562
   A27        2.14644   0.00054   0.00004   0.00229   0.00233   2.14877
   A28        1.92639   0.00077   0.00029   0.00541   0.00570   1.93209
   A29        2.24165  -0.00118   0.00014  -0.00775  -0.00761   2.23404
   A30        1.94055   0.00015  -0.00010   0.00133   0.00123   1.94178
   A31        1.94055   0.00015  -0.00010   0.00131   0.00121   1.94176
   A32        1.91328   0.00030   0.00006   0.00155   0.00160   1.91488
   A33        1.87864  -0.00013   0.00006  -0.00068  -0.00062   1.87802
   A34        1.89482  -0.00025   0.00005  -0.00184  -0.00180   1.89302
   A35        1.89469  -0.00025   0.00005  -0.00186  -0.00181   1.89287
   A36        1.92685  -0.00009   0.00001  -0.00086  -0.00086   1.92600
   A37        1.92668  -0.00009   0.00001  -0.00086  -0.00085   1.92583
   A38        1.90795   0.00037   0.00007   0.00497   0.00503   1.91299
   A39        1.91805  -0.00002   0.00001  -0.00262  -0.00261   1.91545
   A40        1.89241  -0.00009  -0.00005  -0.00036  -0.00041   1.89200
   A41        1.89117  -0.00008  -0.00005  -0.00020  -0.00025   1.89092
   A42        1.93841   0.00011  -0.00007   0.00084   0.00076   1.93917
   A43        1.94037   0.00009  -0.00011   0.00116   0.00105   1.94142
   A44        1.91279   0.00002   0.00002  -0.00018  -0.00015   1.91264
   A45        1.89191  -0.00006   0.00004  -0.00009  -0.00005   1.89186
   A46        1.88539  -0.00012   0.00007  -0.00143  -0.00136   1.88403
   A47        1.89355  -0.00005   0.00005  -0.00040  -0.00034   1.89320
   A48        1.91283   0.00002   0.00002  -0.00019  -0.00017   1.91266
   A49        1.94031   0.00009  -0.00011   0.00115   0.00104   1.94135
   A50        1.93836   0.00011  -0.00007   0.00083   0.00076   1.93912
   A51        1.89346  -0.00005   0.00005  -0.00038  -0.00033   1.89313
   A52        1.88542  -0.00012   0.00007  -0.00143  -0.00135   1.88407
   A53        1.89204  -0.00006   0.00004  -0.00008  -0.00004   1.89200
   A54        1.98893  -0.00010  -0.00004  -0.00037  -0.00042   1.98851
   A55        2.14764  -0.00051   0.00000  -0.00211  -0.00211   2.14553
   A56        2.14662   0.00061   0.00004   0.00248   0.00253   2.14915
   A57        1.92864   0.00061   0.00027   0.00267   0.00294   1.93158
   A58        2.24030  -0.00117   0.00015  -0.00651  -0.00636   2.23394
   A59        3.11200  -0.00023  -0.00049  -0.00172  -0.00221   3.10979
   A60        3.10751   0.00005  -0.00045   0.00313   0.00268   3.11019
   A61        3.14175  -0.00000  -0.00000  -0.00069  -0.00069   3.14106
   A62        3.14139   0.00000   0.00000   0.00060   0.00060   3.14199
    D1        1.02005   0.00019  -0.00002   0.01754   0.01753   1.03758
    D2       -3.13379   0.00001   0.00001   0.01416   0.01417  -3.11962
    D3       -1.06948  -0.00016  -0.00007   0.01214   0.01207  -1.05741
    D4       -1.06177   0.00026  -0.00008   0.01891   0.01883  -1.04295
    D5        1.06757   0.00007  -0.00005   0.01552   0.01547   1.08304
    D6        3.13188  -0.00009  -0.00013   0.01350   0.01337  -3.13793
    D7        3.12828   0.00025  -0.00009   0.01877   0.01868  -3.13622
    D8       -1.02556   0.00006  -0.00006   0.01538   0.01533  -1.01024
    D9        1.03875  -0.00010  -0.00014   0.01336   0.01322   1.05197
   D10       -3.12622  -0.00009   0.00005  -0.00267  -0.00262  -3.12885
   D11        1.06180  -0.00007   0.00002  -0.00222  -0.00221   1.05960
   D12       -1.03328  -0.00005  -0.00002  -0.00177  -0.00179  -1.03507
   D13        1.03275   0.00005   0.00002   0.00177   0.00178   1.03453
[...]
 00000560,0.00000312,-0.00000499,-0.00000666,0.00000128,-0.00000064,0.0
 0000443,0.00000108,0.00000293,-0.00000559,0.00000247,0.00000255,0.0000
 0315,-0.00000013,-0.00000414,0.00000153,0.00000139,-0.00000017,-0.0000
 7332,-0.00005806,0.00001296,0.00194755,-0.00040791,0.00341073,-0.00419
 236,-0.01366830,-0.00112628,-0.08246228,-0.29563027,-0.00015327,-0.000
 00031,0.00079105,-0.00119385,-0.00198815,-0.00312521,0.00015654,-0.000
 64295,0.00178838,-0.00100319,0.00031609,0.00087306,0.00000920,-0.00047
 020,-0.00085641,0.00015021,-0.00001461,0.00036460,-0.00005370,-0.00004
 315,0.00018896,-0.00011750,-0.00414332,-0.00987689,0.00156231,0.089691
 90,0.31508694,0.00000680,0.00000376,-0.00000286,0.00000317,-0.00001538
 ,0.00000166,0.00000238,-0.00000454,0.00000536,0.00000625,0.00000031,0.
 00000967,-0.00005018,0.00013006,0.00001316,-0.00000398,-0.00005198,-0.
 00000288,0.00022927,-0.00008201,-0.00004008,-0.00000160,0.00000002,-0.
 00000240,0.00000318,-0.00000158,0.00000211,-0.00000124,0.00000056,-0.0
 0000080,-0.00000144,0.00000044,0.00000028,0.00000330,0.00000058,-0.000
 00094,-0.00000284,-0.00000102,-0.00000318,0.00000265,-0.00000130,-0.00
 000338,-0.00000075,0.00000083,-0.00000227,-0.00000126,0.00000018,-0.00
 000060,-0.00001403,0.00002004,-0.00000225,-0.00235967,0.00183121,-0.00
 466077,0.00959985,0.02468290,0.00010725,0.00030091,-0.00296632,-0.0490
 6526,0.00054588,0.00122503,0.00145641,0.00094533,0.00119259,0.00065164
 ,0.00000363,-0.00037411,-0.00033718,-0.00008271,-0.00039313,0.00005423
 ,0.00039012,0.00169812,0.00018894,-0.00015810,0.00014183,0.00013452,-0
 .00003200,-0.00025548,-0.00007100,-0.01009308,-0.02400518,0.00197565,0
 .00127878,-0.00187900,0.05109694,-0.00002020,-0.00000989,0.00002088,-0
 .00001112,0.00001783,0.00000407,-0.00001564,0.00001235,0.00000127,-0.0
 0002155,-0.00001048,-0.00001788,0.00027103,-0.00003680,0.00001106,-0.0
 0038603,-0.00000685,-0.00002353,-0.00038938,0.00005996,-0.00002690,0.0
 0000713,-0.00000080,0.00000095,-0.00001574,0.00000308,-0.00000745,0.00
 001041,-0.00000473,0.00000318,0.00001005,0.00000305,-0.00000427,-0.000
 01662,-0.00000351,-0.00000049,0.00000917,0.00000188,0.00000335,-0.0000
 1659,0.00000303,0.00000611,0.00000869,0.00000066,-0.00000365,0.0000112
 7,-0.00000557,-0.00000270,0.00056730,-0.00007779,0.00005450,0.00046537
 ,-0.00072086,0.00074182,-0.01103267,-0.00043182,-0.00000664,-0.3174336
 1,-0.00212126,-0.00263875,0.00080382,-0.00024621,0.00095743,0.00192856
 ,0.00019138,-0.00186347,-0.00061671,0.00018417,-0.00010100,-0.00121503
 ,0.00084904,0.00013974,0.00033765,-0.00002088,-0.00000572,-0.00006855,
 0.00001601,-0.00008671,0.00049010,0.00050919,-0.00005892,-0.00712668,-
 0.00091085,-0.00123981,-0.00648184,0.00158796,0.00010546,0.33871392,0.
 00000334,0.00000252,-0.00000359,0.00000295,0.00001007,-0.00000251,0.00
 000715,-0.00000407,0.00000174,0.00000457,0.00000149,0.00000546,-0.0000
 6229,-0.00017596,-0.00000196,0.00026015,0.00008010,0.00002825,-0.00002
 265,0.00009212,0.00000541,-0.00000133,-0.00000036,-0.00000050,0.000003
 08,0.00000018,0.00000121,-0.00000328,0.00000262,-0.00000158,0.00000012
 ,0.00000019,-0.00000124,0.00000211,0.00000329,-0.00000038,-0.00000059,
 -0.00000029,0.00000029,0.00000308,0.00000002,-0.00000170,-0.00000117,-
 0.00000012,-0.00000074,-0.00000343,0.00000248,0.00000135,-0.00037207,0
 .00003182,-0.00008226,0.00118751,0.00062817,-0.00031379,0.01739650,-0.
 00128742,0.00213787,-0.00291902,-0.04836219,-0.00145365,-0.00048669,0.
 00012291,-0.00107335,-0.00198932,-0.00277916,0.00314401,-0.00001593,0.
 00122331,-0.00068906,0.00137626,-0.00012189,-0.00059885,-0.00019180,0.
 00018357,-0.00018771,0.00005514,-0.00009360,-0.00004893,-0.00034795,-0
 .00042676,0.00052368,0.01481116,0.00008571,0.00151315,-0.02963666,0.00
 356082,0.00004448,0.00130265,0.04697821,-0.00001188,-0.00000403,0.0000
 1140,-0.00000735,-0.00000231,-0.00000131,-0.00001327,0.00000992,-0.000
 00143,-0.00001140,-0.00000264,-0.00001670,0.00012724,0.00012552,-0.000
 01358,-0.00040992,-0.00006662,-0.00001087,-0.00018036,-0.00004434,0.00
 002296,0.00000358,-0.00000007,0.00000165,-0.00000745,0.00000121,-0.000
 00415,0.00000607,-0.00000435,0.00000211,0.00000232,-0.00000082,0.,-0.0
 0000659,-0.00000499,0.00000059,0.00000359,0.00000130,0.00000148,-0.000
 00607,0.00000165,0.00000685,0.00000079,-0.00000308,0.00000291,0.000004
 59,-0.00000251,-0.00000339,0.00059583,-0.00005754,0.00006389,-0.000375
 96,-0.00114590,0.00080308,-0.02876496,0.00012504,-0.00287141,-0.000784
 03,-0.00116705,-0.04692320,-0.00125187,-0.00014856,0.00162283,0.002040
 94,0.00276984,-0.00533334,-0.00103571,-0.00077427,0.00068334,-0.002438
 57,0.00094005,0.00105030,0.00009238,-0.00032135,-0.00001379,0.00017618
 ,0.00007569,-0.00003819,0.00041753,0.00040597,0.00007301,0.02615894,0.
 00195073,0.00215925,-0.00022754,-0.00006682,-0.00101504,0.00460658,-0.
 00262352,0.05007462,-0.00002153,-0.00001062,0.00001780,-0.00001112,0.0
 0001786,-0.00000394,-0.00001563,0.00001236,-0.00000117,-0.00002020,-0.
 00000973,-0.00002094,0.00027096,-0.00003678,-0.00001147,-0.00038582,-0
 .00000699,0.00002366,-0.00038928,0.00005978,0.00002755,0.00000869,0.00
 000063,0.00000365,-0.00001659,0.00000308,-0.00000607,0.00001127,-0.000
 00559,0.00000265,0.00000916,0.00000190,-0.00000334,-0.00001661,-0.0000
 0352,0.00000047,0.00001005,0.00000302,0.00000429,-0.00001574,0.0000030
 2,0.00000748,0.00000712,-0.00000079,-0.00000096,0.00001041,-0.00000471
 ,-0.00000322,0.00056698,-0.00007735,-0.00005532,0.00046519,-0.00071474
 ,-0.00074701,-0.01101823,-0.00043196,0.00000750,0.00080395,-0.00023899
 ,-0.00095881,-0.31743178,-0.00214210,0.00275890,0.00192847,0.00017610,
 0.00186119,-0.00061614,0.00018380,0.00010302,-0.00121388,0.00084959,-0
 .00013228,-0.00006860,0.00001533,0.00008684,0.00033761,-0.00002076,0.0
 0000539,0.00048992,0.00050854,0.00006251,0.00035447,0.00002576,-0.0000
 2717,-0.00006900,0.00006402,0.00004753,0.00034047,-0.00026633,0.000616
 34,0.33870918,0.00000448,0.00000151,-0.00000533,0.00000290,0.00001004,
 0.00000260,0.00000705,-0.00000398,-0.00000176,0.00000325,0.00000246,0.
 00000352,-0.00006134,-0.00017503,0.00000079,0.00025708,0.00007981,-0.0
 0002770,-0.00002400,0.00009183,-0.00000488,-0.00000116,-0.00000014,0.0
 0000072,0.00000303,0.00000002,0.00000165,-0.00000340,0.00000247,-0.000
 00130,-0.00000056,-0.00000028,-0.00000030,0.00000207,0.00000325,0.0000
 0040,0.00000014,0.00000017,0.00000124,0.00000302,0.00000019,-0.0000011
 8,-0.00000130,-0.00000036,0.00000049,-0.00000324,0.00000258,0.00000158
 ,-0.00036759,0.00003078,0.00008219,0.00118483,0.00061730,0.00031181,0.
 01718057,-0.00127055,-0.00213458,-0.00049547,0.00011387,0.00106235,-0.
 00292587,-0.04838168,0.00144428,-0.00197561,-0.00273523,-0.00312367,-0
 .00002331,0.00121237,0.00069302,0.00135835,-0.00011928,0.00058946,0.00
 005648,-0.00009339,0.00004850,-0.00019101,0.00017976,0.00018925,-0.000
 34509,-0.00041980,-0.00052718,0.00000921,-0.00018066,0.00013166,-0.000
 17567,-0.00003502,-0.00004045,-0.00026171,0.00037628,0.00003194,0.0013
 4020,0.04693932,0.00001144,0.00000278,-0.00001673,0.00000738,0.0000023
 9,-0.00000127,0.00001333,-0.00000994,-0.00000152,0.00001192,0.00000396
 ,0.00001146,-0.00012784,-0.00012671,-0.00001444,0.00041204,0.00006730,
 -0.00001079,0.00018039,0.00004482,0.00002315,-0.00000080,0.00000306,0.
 00000293,0.00000611,-0.00000170,0.00000685,-0.00000462,0.00000255,-0.0
 0000338,-0.00000360,-0.00000132,0.00000147,0.00000661,0.00000501,0.000
 00063,-0.00000232,0.00000082,0.00000001,0.00000748,-0.00000118,-0.0000
 0417,-0.00000359,0.00000006,0.00000165,-0.00000610,0.00000436,0.000002
 16,-0.00059885,0.00005734,0.00006524,0.00038498,0.00114488,0.00081414,
 0.02889784,-0.00011271,-0.00290267,0.00124863,0.00013744,0.00163171,0.
 00089830,0.00115727,-0.04690555,-0.00205936,-0.00275056,-0.00537717,0.
 00103621,0.00077811,0.00069372,0.00244990,-0.00094920,0.00104652,-0.00
 017575,-0.00007611,-0.00003834,-0.00009399,0.00032281,-0.00000994,-0.0
 0042032,-0.00040990,0.00006623,-0.00029697,-0.00003966,0.00033688,-0.0
 0001695,0.00007358,-0.00007031,-0.00061876,-0.00002489,-0.00055075,-0.
 00474187,0.00259946,0.05011823,0.00001597,0.00000853,-0.00001133,0.000
 00736,-0.00002838,0.00000371,0.00000734,-0.00000747,0.00000316,0.00001
 477,0.00000663,0.00001601,-0.00018066,0.00025897,0.00001240,0.00007418
 ,-0.00010584,-0.00001512,0.00040597,-0.00016834,-0.00004374,-0.0000060
 5,0.00000030,-0.00000404,0.00001127,-0.00000343,0.00000459,-0.00000580
 ,0.00000153,-0.00000126,-0.00000750,-0.00000158,0.00000361,0.00001248,
 -0.00000003,-0.00000094,-0.00000914,-0.00000306,-0.00000557,0.00001041
 ,-0.00000324,-0.00000610,-0.00000453,0.00000159,0.00000020,-0.00000522
 ,0.00000077,0.00000125,-0.00013730,0.00005899,0.00003013,-0.00072914,0
 .00078852,0.00167478,0.00263603,0.01115564,-0.00022944,0.00004984,-0.0
 0015977,-0.00053874,-0.07735885,-0.08544975,-0.00189620,0.00096371,0.0
 0252751,-0.00032812,-0.00108997,-0.00036794,0.00026172,0.00005988,-0.0
 0064024,0.00020296,-0.00008072,-0.00022266,0.00007791,0.00059175,0.000
 54537,0.00023969,0.00034598,0.00019346,0.00011639,-0.00012598,0.000139
 53,-0.00004272,0.00030690,-0.00012809,-0.00010358,-0.00006902,-0.00017
 578,0.00001564,-0.00648170,-0.02963759,0.00000946,0.07770270,-0.000008
 82,-0.00000704,0.00000351,-0.00000467,0.00002520,-0.00000235,-0.000001
 29,0.00000276,-0.00000292,-0.00000830,-0.00000499,-0.00000926,0.000092
 84,-0.00032110,-0.00001529,0.00009066,0.00015142,0.00001157,-0.0003202
 7,0.00017743,0.00002703,0.00000315,-0.00000015,0.00000415,-0.00000557,
 0.00000248,-0.00000251,0.00000153,0.00000139,0.00000018,0.00000441,0.0
 0000109,-0.00000290,-0.00000663,0.00000128,0.00000066,0.00000559,0.000
 00309,0.00000501,-0.00000471,0.00000258,0.00000436,0.00000151,-0.00000
 230,0.00000045,0.00000077,0.00000253,-0.00000053,-0.00007343,-0.000057
 81,-0.00001334,0.00192822,-0.00036907,-0.00337969,-0.00412012,-0.01349
 196,0.00102701,0.00000435,0.00079132,0.00118891,-0.08245725,-0.2956410
 5,-0.00164258,-0.00198113,-0.00311493,-0.00018363,-0.00064241,0.001777
 99,0.00101927,0.00031546,0.00087015,-0.00000327,-0.00001576,0.00036525
 ,0.00005542,-0.00046736,-0.00084257,-0.00015767,-0.00004333,0.00018617
 ,0.00011943,0.00018861,0.00020461,0.00008919,-0.00012908,0.00049960,-0
 .00043557,0.00006433,-0.00003478,-0.00007335,0.00158869,0.00356023,0.0
 0010011,0.08969943,0.31504556,-0.00000632,-0.00000044,0.00000970,-0.00
 000321,0.00001557,0.00000176,-0.00000239,0.00000453,0.00000537,-0.0000
 0687,-0.00000378,-0.00000297,0.00005097,-0.00013268,0.00001205,0.00000
 462,0.00005318,-0.00000240,-0.00023188,0.00008371,-0.00003913,0.000000
 78,-0.00000081,-0.00000224,-0.00000270,0.00000135,-0.00000339,0.000001
 27,-0.00000017,-0.00000060,0.00000288,0.00000105,-0.00000320,-0.000003
 36,-0.00000056,-0.00000094,0.00000149,-0.00000042,0.00000032,-0.000003
 22,0.00000158,0.00000216,0.00000161,-0.00000002,-0.00000239,0.00000125
 ,-0.00000053,-0.00000081,0.00001355,-0.00002048,-0.00000252,0.00237215
 ,-0.00179962,-0.00470162,-0.00963202,-0.02478991,-0.00006410,-0.000545
 17,-0.00122991,0.00145669,-0.00090110,0.00117197,-0.04905425,-0.000960
 28,-0.00122190,0.00064201,-0.00000803,0.00039006,-0.00032693,0.0000850
 6,0.00039953,0.00005700,0.00015810,-0.00013999,0.00013376,-0.00039382,
 -0.00170608,0.00017518,0.00003147,0.00025730,-0.00006828,0.00013168,0.
 00022644,0.00026387,0.00010208,0.00044529,-0.00079637,-0.00004706,0.00
 004080,-0.00007054,-0.00009088,0.00000451,-0.00101458,-0.00062383,0.00
 380064,0.05114023,0.00001013,0.00000636,-0.00000432,0.00000282,-0.0000
 0736,0.00000421,0.00000677,-0.00000446,0.00000163,0.00000853,0.0000050
 3,0.00000982,-0.00013401,0.00001853,0.00001791,0.00014708,-0.00000126,
 -0.00002324,0.00012891,-0.00002159,-0.00003289,-0.00000583,-0.00000192
 ,-0.00000419,0.00000869,-0.00000117,0.00000079,-0.00000605,0.00000315,
 -0.00000075,-0.00000395,-0.00000052,0.00000114,0.00000796,0.00000116,-
 0.00000075,-0.00000532,-0.00000253,-0.00000259,0.00000712,-0.00000130,
 -0.00000359,-0.00000281,0.00000072,-0.00000049,-0.00000453,0.00000151,
 0.00000161,-0.00020497,0.00003789,0.00003877,-0.00006415,-0.00038690,-
 0.00037823,0.00278401,-0.00597560,0.01029457,-0.00052225,0.00118035,0.
 00169325,-0.07945352,0.04101361,-0.07415834,0.00074580,-0.00075769,0.0
 0133804,0.00001218,0.00002590,-0.00033725,0.00031547,-0.00008256,-0.00
 033726,0.00021240,-0.00011177,-0.00020693,-0.00008224,-0.00015545,0.00
 009271,-0.00004243,0.00011664,-0.00011997,0.00069141,-0.00016197,0.000
 59456,-0.00012602,0.00018954,-0.00013008,0.00035463,0.00000693,0.00029
 702,-0.00713925,0.01500484,-0.02604318,0.00371468,-0.00421915,0.010060
 97,0.07880872,-0.00000139,0.00000468,0.00000981,-0.00000178,-0.0000034
 2,0.00000451,-0.00000296,0.00000369,0.00000475,-0.00000257,0.00000101,
 0.00000044,0.00000539,0.00008188,0.00002542,-0.00009846,-0.00004671,-0
 .00001865,-0.00003268,-0.00003913,-0.00005232,-0.00000195,-0.00000315,
 -0.00000527,0.00000066,-0.00000012,-0.00000308,0.00000028,-0.00000013,
 0.00000083,0.00000032,0.00000037,-0.00000221,0.00000017,-0.00000171,-0
 .00000082,-0.00000115,-0.00000327,-0.00000153,-0.00000079,-0.00000036,
 0.00000006,0.00000072,0.00000123,-0.00000299,0.00000159,-0.00000230,-0
 .00000002,0.00013041,0.00001114,0.00001813,-0.00045214,0.00123973,-0.0
 0079431,-0.00636907,0.00666812,-0.01321603,0.00106946,-0.00138161,-0.0
 0245645,0.04119150,-0.10741497,0.10329699,-0.00008150,0.00111666,0.000
 25106,-0.00038954,-0.00021554,-0.00024526,-0.00040534,-0.00013552,0.00
 013781,0.00020494,-0.00033884,-0.00004922,0.00002206,0.00012222,0.0001
 8927,-0.00006063,-0.00005496,0.00001544,-0.00015791,0.00075535,-0.0007
 6840,0.00013909,0.00020696,-0.00022694,0.00002558,-0.00017994,0.000035
 79,-0.00092110,0.00011173,-0.00196569,0.01181077,-0.01004341,0.0239097
 6,-0.04572328,0.10945605,-0.00000339,-0.00000157,-0.00000514,0.0000016
 3,-0.00000013,-0.00001040,-0.00000136,0.00000045,-0.00000241,0.,-0.000
 00018,-0.00000556,0.00004536,0.00005380,-0.00003670,-0.00001815,-0.000
 03389,0.00005774,0.00003863,-0.00003283,0.00006897,0.00000418,0.000005
 20,0.00000617,-0.00000365,-0.00000074,0.00000291,0.00000405,-0.0000041
 4,-0.00000227,0.00000016,-0.00000216,0.00000248,-0.00000186,-0.0000002
 2,0.00000060,0.00000164,0.00000298,0.00000127,-0.00000095,0.00000049,0
 .00000165,-0.00000049,-0.00000299,0.00000476,0.00000020,0.00000045,-0.
 00000239,0.00000820,0.00000528,-0.00010535,-0.00020818,0.00143202,0.00
 083583,-0.00820168,0.01274569,-0.01969847,0.00291450,-0.00375214,-0.00
 399138,-0.07290231,0.10100591,-0.22886776,-0.00225609,0.00104083,-0.00
 086866,0.00058821,0.00008719,0.00038224,0.00071841,-0.00068938,0.00039
 013,-0.00000018,-0.00096344,0.00022556,0.00021242,-0.00002883,0.000359
 25,0.00003055,-0.00007173,-0.00004591,-0.00059680,0.00078465,-0.001413
 95,0.00004395,-0.00008970,0.00026155,0.00002736,-0.00013552,0.00033600
 ,0.00123766,-0.00153594,0.00214580,0.00105237,-0.00164974,0.00213662,0
 .07731181,-0.10819248,0.24804687,0.00144470,0.00050542,-0.00116874,0.0
 0080424,-0.00466883,-0.00001685,0.00002241,-0.00095114,-0.00000352,0.0
 0144498,0.00049668,0.00117175,-0.00605904,0.04385419,0.00016461,-0.011
 85587,-0.01845763,-0.00006619,0.01453517,-0.02785866,-0.00011065,-0.00
 020499,0.00013046,-0.00000718,0.00056729,-0.00037207,0.00059585,-0.000
 13733,-0.00007332,-0.00001403,-0.00036361,-0.00015418,0.00020657,0.000
 62439,0.00008372,0.00000015,-0.00036373,-0.00015266,-0.00020755,0.0005
 6698,-0.00036759,-0.00059883,-0.00020497,0.00013041,0.00000820,-0.0001
 3730,-0.00007343,0.00001355,0.01690467,0.00195408,0.00000340,0.0014076
 0,-0.00036742,-0.00000162,0.00146426,0.00155273,0.00000670,0.00085073,
 0.00029948,-0.00096370,0.00085093,0.00029232,0.00096562,-0.02162166,-0
 .04964530,-0.00017882,-0.31323094,0.02740260,0.00017339,-0.01236301,0.
 02364261,0.00008962,-0.00016614,-0.00000097,-0.00001818,-0.00016614,-0
 .00000111,0.00001824,0.00058041,0.00048358,0.00000167,-0.00016996,0.00
 010091,0.00004695,-0.00063989,0.00052295,-0.00043795,0.00060742,0.0000
 7359,0.00036736,0.00060720,0.00007643,-0.00036713,-0.00063961,0.000519
 73,0.00044221,-0.00016997,0.00010130,-0.00004621,0.32521079,-0.0002026
 1,-0.00003969,0.00011310,-0.00035118,0.00024287,-0.00000838,-0.0001076
 3,0.00018936,0.00000039,-0.00019903,-0.00003838,-0.00011307,0.00858045
 ,-0.00245574,-0.00001298,-0.00080934,-0.00013346,0.00000525,-0.0082107
 9,-0.01072798,0.00001218,0.00003817,0.00001130,-0.00000443,-0.00007778
 ,0.00003182,-0.00005755,0.00005922,-0.00005806,0.00002004,-0.00001082,
 0.00004467,0.00003780,-0.00005665,-0.00007920,-0.00000016,-0.00001061,
 0.00004518,-0.00003718,-0.00007735,0.00003078,0.00005733,0.00003789,0.
 00001113,0.00000528,0.00005899,-0.00005781,-0.00002048,0.00195411,-0.0
 0303996,-0.00001547,-0.00121828,0.00039939,0.00000040,-0.00024154,-0.0
 0521377,-0.00003801,0.00040749,-0.00015074,0.00015065,0.00041155,-0.00
 015005,-0.00015410,-0.05225239,0.00334978,0.00001172,0.04630996,-0.059
 83297,-0.00012000,0.00527687,0.00213735,0.00003068,-0.00001148,-0.0000
 1196,0.00008800,-0.00001154,-0.00001126,-0.00008792,-0.00010389,-0.000
 38662,-0.00000155,0.00000450,0.00008517,-0.00002061,-0.00009357,0.0002
 6170,-0.00023893,0.00003787,0.00008065,0.00003948,0.00003837,0.0000794
 3,-0.00003855,-0.00009438,0.00025905,0.00024003,0.00000432,0.00008426,
 0.00002281,0.00092109,0.07504376,0.00048652,0.00006317,-0.00002814,-0.
 00000092,-0.00000725,0.00251508,-0.00000038,0.00000060,0.00009334,-0.0
 0048877,-0.00006350,-0.00002981,0.00003344,-0.00002187,0.00046627,-0.0
 0000042,0.00000966,-0.00148578,-0.00003750,0.00001712,-0.01344377,-0.0
 0003844,-0.00001733,-0.00010549,0.00005449,-0.00008225,0.00006388,-0.0
 0002963,0.00001296,-0.00000225,0.00003168,0.00003180,-0.00003703,-0.00
 000038,-0.00000019,-0.00003275,-0.00003160,-0.00003111,-0.00003742,-0.
 00005533,0.00008219,0.00006525,0.00003877,0.00001813,-0.00010534,0.000
 03013,-0.00001334,-0.00000252,0.00000330,-0.00001549,0.00098634,-0.000
 00481,0.00000019,0.00037434,-0.00000002,-0.00003849,0.00499364,0.00055
 390,-0.00006091,0.00028560,-0.00055112,0.00005751,0.00028470,-0.000188
 56,0.00001103,0.00373344,0.00024399,-0.00011521,-0.03078732,0.00002117
 ,0.00002609,-0.00644840,-0.00000141,0.00000595,-0.00002141,0.00000140,
 -0.00000588,-0.00002212,-0.00000053,-0.00000170,0.00003548,-0.00002524
 ,-0.00009946,-0.00021097,-0.00012509,-0.00011689,0.00011819,0.00006993
 ,-0.00020195,-0.00004862,-0.00006997,0.00020287,-0.00004718,0.00012477
 ,0.00011769,0.00012056,0.00002525,0.00010161,-0.00021005,-0.00006867,0
 .00013424,0.03897025\\0.00000002,-0.00000023,0.00000010,0.00000043,-0.
 00000059,0.00000008,0.00000016,-0.00000003,-0.00000003,0.00000004,-0.0
 0000026,-0.00000017,-0.00000085,0.00000125,0.00000010,-0.00000004,-0.0
 0000058,-0.00000007,0.00000055,-0.00000078,-0.00000014,-0.00000008,-0.
 00000017,0.,0.,-0.00000029,-0.00000007,-0.00000017,-0.00000029,-0.0000
 0007,0.00000007,-0.00000026,-0.00000006,0.00000018,-0.00000036,0.,0.00
 000008,-0.00000026,0.00000009,0.00000001,-0.00000031,0.00000006,-0.000
 00008,-0.00000016,0.,-0.00000016,-0.00000029,0.00000007,-0.00000038,-0
 .00000006,0.00000006,-0.00000012,0.00000002,-0.00000003,-0.00000034,0.
 00000061,-0.00000020,-0.00000003,0.00000022,-0.00000013,-0.00000005,0.
 00000033,0.00000024,0.00000067,-0.00000154,0.00000023,0.00000009,0.000
 00078,-0.00000006,-0.00000037,0.00000091,-0.00000013,-0.00000008,0.000
 00025,0.00000009,-0.00000006,0.00000026,-0.00000007,-0.00000017,0.0000
 0037,0.,0.00000007,0.00000016,0.,0.00000017,0.00000030,0.00000007,0.,0
 .00000031,0.00000009,0.,0.00000028,-0.00000006,0.00000016,0.00000027,-
 0.00000007,0.00000008,0.00000018,0.,0.00000016,-0.00000005,0.00000005\
 \\@


 THE WISE MAN HAS THE POWER TO REASON AWAY
 WHAT A FOOL BELIEVES.
                     - DOOBIE BROTHERS
 File lengths (MBytes):  RWF=    236 Int=      0 D2E=      0 Chk=      6 Scr=      1
 Normal termination of Gaussian 16 at Tue Aug  9 16:34:12 2022.
real 1782.38
user 6497.60
sys 41.64
