 Entering Gaussian System, Link 0=g16
 Input=gaussian_test.inp
 Output=gaussian_test.log
 Initial command:
 /sw/restricted/lms/sw/Gaussian/g16_B01/g16/l1.exe "/scratch/user/peterchao1/peterchao1/9982570_1711744467000000612287456/Gau-207065.inp" -scrdir="/scratch/user/peterchao1/peterchao1/9982570_1711744467000000612287456/"
 Entering Link 1 = /sw/restricted/lms/sw/Gaussian/g16_B01/g16/l1.exe PID=    207066.
  
 Copyright (c) 1988-2017, Gaussian, Inc.  All Rights Reserved.
  
 This is part of the Gaussian(R) 16 program.  It is based on
 the Gaussian(R) 09 system (copyright 2009, Gaussian, Inc.),
 the Gaussian(R) 03 system (copyright 2003, Gaussian, Inc.),
 the Gaussian(R) 98 system (copyright 1998, Gaussian, Inc.),
 the Gaussian(R) 94 system (copyright 1995, Gaussian, Inc.),
 the Gaussian 92(TM) system (copyright 1992, Gaussian, Inc.),
 the Gaussian 90(TM) system (copyright 1990, Gaussian, Inc.),
 the Gaussian 88(TM) system (copyright 1988, Gaussian, Inc.),
 the Gaussian 86(TM) system (copyright 1986, Carnegie Mellon
 University), and the Gaussian 82(TM) system (copyright 1983,
 Carnegie Mellon University). Gaussian is a federally registered
 trademark of Gaussian, Inc.
  
 This software contains proprietary and confidential information,
 including trade secrets, belonging to Gaussian, Inc.
  
 This software is provided under written license and may be
 used, copied, transmitted, or stored only in accord with that
 written license.
  
 The following legend is applicable only to US Government
 contracts under FAR:
  
                    RESTRICTED RIGHTS LEGEND
  
 Use, reproduction and disclosure by the US Government is
 subject to restrictions as set forth in subparagraphs (a)
 and (c) of the Commercial Computer Software - Restricted
 Rights clause in FAR 52.227-19.
  
 Gaussian, Inc.
 340 Quinnipiac St., Bldg. 40, Wallingford CT 06492
  
  
 ---------------------------------------------------------------
 Warning -- This program may not be used in any manner that
 competes with the business of Gaussian, Inc. or will provide
 assistance to any competitor of Gaussian, Inc.  The licensee
 of this program is prohibited from giving any competitor of
 Gaussian, Inc. access to this program.  By using this program,
 the user acknowledges that Gaussian, Inc. is engaged in the
 business of creating and licensing software in the field of
 computational chemistry and represents and warrants to the
 licensee that it is not a competitor of Gaussian, Inc. and that
 it will not use this program in any manner prohibited above.
 ---------------------------------------------------------------
  

 Cite this work as:
 Gaussian 16, Revision B.01,
 M. J. Frisch, G. W. Trucks, H. B. Schlegel, G. E. Scuseria, 
 M. A. Robb, J. R. Cheeseman, G. Scalmani, V. Barone, 
 G. A. Petersson, H. Nakatsuji, X. Li, M. Caricato, A. V. Marenich, 
 J. Bloino, B. G. Janesko, R. Gomperts, B. Mennucci, H. P. Hratchian, 
 J. V. Ortiz, A. F. Izmaylov, J. L. Sonnenberg, D. Williams-Young, 
 F. Ding, F. Lipparini, F. Egidi, J. Goings, B. Peng, A. Petrone, 
 T. Henderson, D. Ranasinghe, V. G. Zakrzewski, J. Gao, N. Rega, 
 G. Zheng, W. Liang, M. Hada, M. Ehara, K. Toyota, R. Fukuda, 
 J. Hasegawa, M. Ishida, T. Nakajima, Y. Honda, O. Kitao, H. Nakai, 
 T. Vreven, K. Throssell, J. A. Montgomery, Jr., J. E. Peralta, 
 F. Ogliaro, M. J. Bearpark, J. J. Heyd, E. N. Brothers, K. N. Kudin, 
 V. N. Staroverov, T. A. Keith, R. Kobayashi, J. Normand, 
 K. Raghavachari, A. P. Rendell, J. C. Burant, S. S. Iyengar, 
 J. Tomasi, M. Cossi, J. M. Millam, M. Klene, C. Adamo, R. Cammi, 
 J. W. Ochterski, R. L. Martin, K. Morokuma, O. Farkas, 
 J. B. Foresman, and D. J. Fox, Gaussian, Inc., Wallingford CT, 2016.
 
 ******************************************
 Gaussian 16:  ES64L-G16RevB.01 20-Dec-2017
                29-Mar-2024 
 ******************************************
 %nprocshared=4
 Will use up to    4 processors via shared memory.
 %mem=8000mb
 %chk=monomer.chk
 %nprocshared=4
 Will use up to    4 processors via shared memory.
 %mem=8000mb
 ----------------------------------------------------------------------
 #T wB97XD/def2svpp opt=tight freq int(grid=ultrafine) scf=(verytight,q
 c) Volume=tight
 ----------------------------------------------------------------------
 -------
 Monomer
 -------
 Symbolic Z-matrix:
 Charge =  0 Multiplicity = 1
 C                    -1.78163  -0.74025   0.02546 
 C                    -0.49247   0.00359  -0.33966 
 N                    -0.47006   1.39103   0.10497 
 C                     0.73774  -0.70645   0.25771 
 N                     2.00294  -0.07701  -0.06514 
 H                    -2.64741  -0.2338   -0.39891 
 H                    -1.89919  -0.78034   1.10746 
 H                    -1.75616  -1.75752  -0.35644 
 H                    -0.38862   0.02407  -1.43296 
 H                    -0.57923   1.42926   1.11434 
 H                    -1.23914   1.90819  -0.30702 
 H                     0.76705  -1.74092  -0.09365 
 H                     0.64596  -0.71886   1.34846 
 H                     1.95605   0.9001    0.20888 
 H                     2.14683  -0.09368  -1.07042 
 

 GradGradGradGradGradGradGradGradGradGradGradGradGradGradGradGradGradGrad
 Initialization pass.
                           ----------------------------
                           !    Initial Parameters    !
                           ! (Angstroms and Degrees)  !
 --------------------------                            --------------------------
 ! Name  Definition              Value          Derivative Info.                !
 --------------------------------------------------------------------------------
 ! R1    R(1,2)                  1.5325         estimate D2E/DX2                !
 ! R2    R(1,6)                  1.0891         estimate D2E/DX2                !
 ! R3    R(1,7)                  1.0891         estimate D2E/DX2                !
 ! R4    R(1,8)                  1.0869         estimate D2E/DX2                !
 ! R5    R(2,3)                  1.4571         estimate D2E/DX2                !
 ! R6    R(2,4)                  1.5409         estimate D2E/DX2                !
 ! R7    R(2,9)                  1.0984         estimate D2E/DX2                !
 ! R8    R(3,10)                 1.016          estimate D2E/DX2                !
 ! R9    R(3,11)                 1.0142         estimate D2E/DX2                !
 ! R10   R(4,5)                  1.4495         estimate D2E/DX2                !
 ! R11   R(4,12)                 1.0929         estimate D2E/DX2                !
 ! R12   R(4,13)                 1.0947         estimate D2E/DX2                !
 ! R13   R(5,14)                 1.0159         estimate D2E/DX2                !
 ! R14   R(5,15)                 1.0157         estimate D2E/DX2                !
 ! A1    A(2,1,6)              110.4978         estimate D2E/DX2                !
 ! A2    A(2,1,7)              110.2043         estimate D2E/DX2                !
 ! A3    A(2,1,8)              110.5397         estimate D2E/DX2                !
 ! A4    A(6,1,7)              108.5671         estimate D2E/DX2                !
 ! A5    A(6,1,8)              108.4785         estimate D2E/DX2                !
 ! A6    A(7,1,8)              108.4911         estimate D2E/DX2                !
 ! A7    A(1,2,3)              113.7285         estimate D2E/DX2                !
 ! A8    A(1,2,4)              110.8283         estimate D2E/DX2                !
 ! A9    A(1,2,9)              109.0093         estimate D2E/DX2                !
 ! A10   A(3,2,4)              107.9497         estimate D2E/DX2                !
 ! A11   A(3,2,9)              106.5305         estimate D2E/DX2                !
 ! A12   A(4,2,9)              108.6012         estimate D2E/DX2                !
 ! A13   A(2,3,10)             109.7154         estimate D2E/DX2                !
 ! A14   A(2,3,11)             110.4815         estimate D2E/DX2                !
 ! A15   A(10,3,11)            107.6313         estimate D2E/DX2                !
 ! A16   A(2,4,5)              114.2298         estimate D2E/DX2                !
 ! A17   A(2,4,12)             109.4471         estimate D2E/DX2                !
 ! A18   A(2,4,13)             108.9393         estimate D2E/DX2                !
 ! A19   A(5,4,12)             108.4216         estimate D2E/DX2                !
 ! A20   A(5,4,13)             107.4594         estimate D2E/DX2                !
 ! A21   A(12,4,13)            108.1709         estimate D2E/DX2                !
 ! A22   A(4,5,14)             108.4992         estimate D2E/DX2                !
 ! A23   A(4,5,15)             109.6926         estimate D2E/DX2                !
 ! A24   A(14,5,15)            106.8161         estimate D2E/DX2                !
 ! D1    D(6,1,2,3)             58.1449         estimate D2E/DX2                !
 ! D2    D(6,1,2,4)            179.975          estimate D2E/DX2                !
 ! D3    D(6,1,2,9)            -60.551          estimate D2E/DX2                !
 ! D4    D(7,1,2,3)            -61.8422         estimate D2E/DX2                !
 ! D5    D(7,1,2,4)             59.9879         estimate D2E/DX2                !
 ! D6    D(7,1,2,9)            179.4619         estimate D2E/DX2                !
 ! D7    D(8,1,2,3)            178.2384         estimate D2E/DX2                !
 ! D8    D(8,1,2,4)            -59.9315         estimate D2E/DX2                !
 ! D9    D(8,1,2,9)             59.5425         estimate D2E/DX2                !
 ! D10   D(1,2,3,10)            58.9438         estimate D2E/DX2                !
 ! D11   D(1,2,3,11)           -59.5664         estimate D2E/DX2                !
 ! D12   D(4,2,3,10)           -64.4693         estimate D2E/DX2                !
 ! D13   D(4,2,3,11)           177.0205         estimate D2E/DX2                !
 ! D14   D(9,2,3,10)           179.0497         estimate D2E/DX2                !
 ! D15   D(9,2,3,11)            60.5395         estimate D2E/DX2                !
 ! D16   D(1,2,4,5)            178.8674         estimate D2E/DX2                !
 ! D17   D(1,2,4,12)            57.1047         estimate D2E/DX2                !
 ! D18   D(1,2,4,13)           -60.9819         estimate D2E/DX2                !
 ! D19   D(3,2,4,5)            -55.9764         estimate D2E/DX2                !
 ! D20   D(3,2,4,12)          -177.7392         estimate D2E/DX2                !
 ! D21   D(3,2,4,13)            64.1742         estimate D2E/DX2                !
 ! D22   D(9,2,4,5)             59.1487         estimate D2E/DX2                !
 ! D23   D(9,2,4,12)           -62.614          estimate D2E/DX2                !
 ! D24   D(9,2,4,13)           179.2993         estimate D2E/DX2                !
 ! D25   D(2,4,5,14)            54.2129         estimate D2E/DX2                !
 ! D26   D(2,4,5,15)           -62.1312         estimate D2E/DX2                !
 ! D27   D(12,4,5,14)          176.5377         estimate D2E/DX2                !
 ! D28   D(12,4,5,15)           60.1936         estimate D2E/DX2                !
 ! D29   D(13,4,5,14)          -66.7617         estimate D2E/DX2                !
 ! D30   D(13,4,5,15)          176.8942         estimate D2E/DX2                !
 --------------------------------------------------------------------------------
 Number of steps in this run=     78 maximum allowed number of steps=    100.
 GradGradGradGradGradGradGradGradGradGradGradGradGradGradGradGradGradGrad

                    Distance matrix (angstroms):
                    1          2          3          4          5
     1  C    0.000000
     2  C    1.532502   0.000000
     3  N    2.503775   1.457111   0.000000
     4  C    2.530279   1.540917   2.425183   0.000000
     5  N    3.843318   2.511759   2.880937   1.449538   0.000000
     6  H    1.089105   2.168784   2.763112   3.480483   4.664946
     7  H    1.089109   2.165088   2.786081   2.771454   4.134769
     8  H    1.086887   2.167649   3.432240   2.775149   4.127929
     9  H    2.156771   1.098412   2.059236   2.158870   2.756945
    10  H    2.708912   2.038181   1.015973   2.651323   3.213667
    11  H    2.723798   2.045986   1.014235   3.326153   3.809277
    12  H    2.740679   2.165700   3.373278   1.092907   2.072884
    13  H    2.764771   2.160487   2.691350   1.094677   2.061950
    14  H    4.085904   2.664552   2.477456   2.016840   1.015886
    15  H    4.129385   2.740321   3.230170   2.030997   1.015666
                    6          7          8          9         10
     6  H    0.000000
     7  H    1.768526   0.000000
     8  H    1.765741   1.765884   0.000000
     9  H    2.497574   3.063114   2.490602   0.000000
    10  H    3.054998   2.573846   3.701878   2.915416   0.000000
    11  H    2.565106   3.108798   3.702315   2.353940   1.638626
    12  H    3.744749   3.078026   2.536914   2.498910   3.649905
    13  H    3.759629   2.557271   3.123403   3.059184   2.484016
    14  H    4.779842   4.300486   4.600321   2.993418   2.743632
    15  H    4.843063   4.645964   4.302493   2.563946   3.811030
                   11         12         13         14         15
    11  H    0.000000
    12  H    4.169693   0.000000
    13  H    3.632569   1.771709   0.000000
    14  H    3.389924   2.912082   2.374025   0.000000
    15  H    4.006871   2.360360   2.914526   1.631135   0.000000
 Framework group  C1[X(C3H10N2)]
 Deg. of freedom    39
                         Standard orientation:                         
 ---------------------------------------------------------------------
 Center     Atomic      Atomic             Coordinates (Angstroms)
 Number     Number       Type             X           Y           Z
 ---------------------------------------------------------------------
      1          6           0       -1.759878   -0.694707    0.013516
      2          6           0       -0.453832    0.022331   -0.345185
      3          7           0       -0.409170    1.412082    0.090439
      4          6           0        0.757578   -0.706598    0.267656
      5          7           0        2.037148   -0.103207   -0.048222
      6          1           0       -2.612263   -0.174990   -0.421782
      7          1           0       -1.887536   -0.725245    1.094686
      8          1           0       -1.750247   -1.714836   -0.361407
      9          1           0       -0.340158    0.033439   -1.437642
     10          1           0       -0.526342    1.459205    1.098532
     11          1           0       -1.164783    1.940774   -0.331705
     12          1           0        0.770460   -1.743799   -0.076574
     13          1           0        0.656136   -0.709886    1.357617
     14          1           0        2.006276    0.876444    0.218902
     15          1           0        2.189395   -0.129387   -1.052071
 ---------------------------------------------------------------------
 Rotational constants (GHZ):           7.8918557           3.5453762           2.7197665
    90 basis functions,   165 primitive gaussians,    95 cartesian basis functions
    21 alpha electrons       21 beta electrons
       nuclear repulsion energy       195.7934760531 Hartrees.
 NAtoms=   15 NActive=   15 NUniq=   15 SFac= 1.00D+00 NAtFMM=   60 NAOKFM=F Big=F
 Nuclear repulsion after empirical dispersion term =      195.7856408226 Hartrees.
   1 Symmetry operations used in ECPInt.
 ECPInt:  NShTT=    1275 NPrTT=    5145 LenC2=    1274 LenP2D=    4362.
 LDataN:  DoStor=T MaxTD1= 4 Len=   56
 ExpMin= 1.22D-01 ExpMax= 1.71D+03 ExpMxC= 2.58D+02 IAcc=3 IRadAn=         5 AccDes= 0.00D+00
 Harris functional with IExCor= 4639 and IRadAn=       5 diagonalized for initial guess.
 HarFok:  IExCor= 4639 AccDes= 0.00D+00 IRadAn=         5 IDoV= 1 UseB2=F ITyADJ=14
 ICtDFT=  3500011 ScaDFX=  1.000000  1.000000  1.000000  1.000000
 FoFCou: FMM=F IPFlag=           0 FMFlag=      100000 FMFlg1=           0
         NFxFlg=           0 DoJE=T BraDBF=F KetDBF=T FulRan=T
         wScrn=  0.000000 ICntrl=       500 IOpCl=  0 I1Cent=   200000004 NGrid=           0
         NMat0=    1 NMatS0=      1 NMatT0=    0 NMatD0=    1 NMtDS0=    0 NMtDT0=    0
 Petite list used in FoFCou.
     Accept linear search using points  2 and  3.
     Minimum is close to point  2 DX=  6.06D-02 DF= -2.14D-06 DXR=  7.97D-02 DFR=  6.38D-03 which will be used.
     Minimum is close to point  2 DX=  4.42D-04 DF= -2.13D-12 DXR=  4.42D-04 DFR=  1.94D-07 which will be used.
 SCF Done:  E(RwB97XD) =  -229.568120495     a.u. after    7 cycles
            Convg  =    0.2310D-09                    34 Fock formations.
              S**2 =  0.0000                  -V/T =  2.0092

 **********************************************************************

            Population analysis using the SCF Density.

 **********************************************************************

 Orbital symmetries:
       Occupied  (A) (A) (A) (A) (A) (A) (A) (A) (A) (A) (A) (A)
                 (A) (A) (A) (A) (A) (A) (A) (A) (A)
       Virtual   (A) (A) (A) (A) (A) (A) (A) (A) (A) (A) (A) (A)
                 (A) (A) (A) (A) (A) (A) (A) (A) (A) (A) (A) (A)
                 (A) (A) (A) (A) (A) (A) (A) (A) (A) (A) (A) (A)
                 (A) (A) (A) (A) (A) (A) (A) (A) (A) (A) (A) (A)
                 (A) (A) (A) (A) (A) (A) (A) (A) (A) (A) (A) (A)
                 (A) (A) (A) (A) (A) (A) (A) (A) (A)
 The electronic state is 1-A.
 Alpha  occ. eigenvalues --  -14.41563 -14.39628 -10.31529 -10.30272 -10.27802
 Alpha  occ. eigenvalues --   -0.99278  -0.94637  -0.83064  -0.74654  -0.67330
 Alpha  occ. eigenvalues --   -0.60150  -0.56444  -0.52997  -0.51787  -0.50049
 Alpha  occ. eigenvalues --   -0.46580  -0.45729  -0.43885  -0.42166  -0.32020
 Alpha  occ. eigenvalues --   -0.30164
 Alpha virt. eigenvalues --    0.12885   0.15883   0.17231   0.17961   0.20723
 Alpha virt. eigenvalues --    0.22509   0.22732   0.23812   0.24666   0.27257
 Alpha virt. eigenvalues --    0.31432   0.32730   0.33398   0.33925   0.53377
 Alpha virt. eigenvalues --    0.53576   0.55559   0.59088   0.59491   0.63205
 Alpha virt. eigenvalues --    0.65957   0.72571   0.73383   0.74009   0.77760
 Alpha virt. eigenvalues --    0.78080   0.79694   0.79826   0.80252   0.81472
 Alpha virt. eigenvalues --    0.82427   0.83838   0.85838   0.87484   0.91120
 Alpha virt. eigenvalues --    0.97454   0.98776   1.02905   1.04924   1.10282
 Alpha virt. eigenvalues --    1.20804   1.27275   1.32306   1.42519   1.55572
 Alpha virt. eigenvalues --    1.58285   1.76652   1.87165   1.92562   1.98660
 Alpha virt. eigenvalues --    2.02766   2.05006   2.17737   2.20970   2.23198
 Alpha virt. eigenvalues --    2.26172   2.30370   2.36052   2.39544   2.51105
 Alpha virt. eigenvalues --    2.54583   2.57727   2.62471   2.73623   2.77261
 Alpha virt. eigenvalues --    2.79490   2.87028   3.06260   3.10771
          Condensed to atoms (all electrons):
 Mulliken charges:
               1
     1  C   -0.275236
     2  C   -0.109259
     3  N   -0.505120
     4  C   -0.067493
     5  N   -0.497745
     6  H    0.109055
     7  H    0.101242
     8  H    0.110972
     9  H    0.080868
    10  H    0.212606
    11  H    0.219459
    12  H    0.101532
    13  H    0.087948
    14  H    0.221995
    15  H    0.209177
 Sum of Mulliken charges =   0.00000
 Mulliken charges with hydrogens summed into heavy atoms:
               1
     1  C    0.046032
     2  C   -0.028391
     3  N   -0.073055
     4  C    0.121987
     5  N   -0.066573
 Electronic spatial extent (au):  <R**2>=            507.9354
 Charge=              0.0000 electrons
 Dipole moment (field-independent basis, Debye):
    X=             -2.2575    Y=              0.4854    Z=             -0.4146  Tot=              2.3460
 Evaluate density.
 Using the total density.
 Monte-Carlo method of calculating molar volume:
 based on  0.001 e/bohr**3 density envelope.
 Number of points per bohr**3 =  100 CutOff= 1.00D-04
 Using the SCF density.
 There are      1632 points.  Will hold      1632 in memory.
 LenV=  1048405777 MDV=  1048576000.
 Box volume = 4350.615 fraction occupied=0.178
 Integrated density= 3.3979492910822856D+01 error=-8.0205070891771442D+00
 Molar volume =  773.087 bohr**3/mol ( 68.989 cm**3/mol)
 Recommended a0 for SCRF calculation =  3.82 angstrom (  7.21 bohr)
   1 Symmetry operations used in ECPInt.
 ECPInt:  NShTT=    1275 NPrTT=    5145 LenC2=    1274 LenP2D=    4362.
 LDataN:  DoStor=T MaxTD1= 5 Len=  102
 Calling FoFJK, ICntrl=      2127 FMM=F ISym2X=0 I1Cent= 0 IOpClX= 0 NMat=1 NMatS=1 NMatT=0.

 GradGradGradGradGradGradGradGradGradGradGradGradGradGradGradGradGradGrad
 FormGI is forming the generalized inverse of G from B-inverse, IUseBI=4.
 Internal  Forces:  Max     0.012088395 RMS     0.003283525
 Step number   1 out of a maximum of   78
 All quantities printed in internal units (Hartrees-Bohrs-Radians)
 Mixed Optimization -- RFO/linear search
 Second derivative matrix not updated -- first step.
 ITU=  0
     Eigenvalues ---    0.00230   0.00336   0.00936   0.01036   0.03946
     Eigenvalues ---    0.04048   0.04357   0.04619   0.04704   0.05394
     Eigenvalues ---    0.05594   0.05627   0.06020   0.09723   0.13018
     Eigenvalues ---    0.16000   0.16000   0.16000   0.16000   0.16000
     Eigenvalues ---    0.16000   0.16000   0.16532   0.18247   0.22039
     Eigenvalues ---    0.28438   0.29194   0.33858   0.34278   0.34479
     Eigenvalues ---    0.34916   0.34916   0.35175   0.37328   0.38306
     Eigenvalues ---    0.44987   0.45001   0.45037   0.45271
 Linear search not attempted -- first point.
 Iteration  1 RMS(Cart)=  0.03876387 RMS(Int)=  0.00059647
 Iteration  2 RMS(Cart)=  0.00084660 RMS(Int)=  0.00011782
 Iteration  3 RMS(Cart)=  0.00000035 RMS(Int)=  0.00011782
 Variable       Old X    -DE/DX   Delta X   Delta X   Delta X     New X
                                 (Linear)    (Quad)   (Total)
    R1        2.89601   0.00149   0.00000   0.00504   0.00504   2.90105
    R2        2.05811   0.01030   0.00000   0.02926   0.02926   2.08737
    R3        2.05812   0.01092   0.00000   0.03102   0.03102   2.08914
    R4        2.05392   0.01209   0.00000   0.03408   0.03408   2.08800
    R5        2.75354   0.00437   0.00000   0.01160   0.01160   2.76514
    R6        2.91191  -0.00025   0.00000  -0.00087  -0.00087   2.91105
    R7        2.07570   0.00497   0.00000   0.01456   0.01456   2.09026
    R8        1.91991   0.00531   0.00000   0.01173   0.01173   1.93164
    R9        1.91663   0.00475   0.00000   0.01041   0.01041   1.92704
   R10        2.73923   0.00301   0.00000   0.00780   0.00780   2.74703
   R11        2.06530   0.00749   0.00000   0.02152   0.02152   2.08682
   R12        2.06864   0.00822   0.00000   0.02378   0.02378   2.09242
   R13        1.91975   0.00398   0.00000   0.00879   0.00879   1.92853
   R14        1.91933   0.00392   0.00000   0.00866   0.00866   1.92799
    A1        1.92855   0.00129   0.00000   0.00772   0.00767   1.93622
    A2        1.92343   0.00020   0.00000   0.00019   0.00019   1.92361
    A3        1.92928   0.00256   0.00000   0.01698   0.01692   1.94620
    A4        1.89485  -0.00106   0.00000  -0.00895  -0.00894   1.88591
    A5        1.89331  -0.00176   0.00000  -0.00879  -0.00889   1.88442
    A6        1.89353  -0.00137   0.00000  -0.00801  -0.00803   1.88549
    A7        1.98494  -0.00051   0.00000   0.00861   0.00833   1.99326
    A8        1.93432   0.00131   0.00000   0.01201   0.01175   1.94607
    A9        1.90257  -0.00030   0.00000  -0.01104  -0.01103   1.89154
   A10        1.88408   0.00072   0.00000   0.01402   0.01381   1.89789
   A11        1.85931   0.00052   0.00000   0.00310   0.00325   1.86256
   A12        1.89545  -0.00187   0.00000  -0.02899  -0.02894   1.86651
   A13        1.91489   0.00120   0.00000   0.00757   0.00753   1.92243
   A14        1.92827   0.00258   0.00000   0.01606   0.01602   1.94429
   A15        1.87852  -0.00184   0.00000  -0.01088  -0.01095   1.86757
   A16        1.99369   0.00452   0.00000   0.02779   0.02763   2.02131
   A17        1.91021  -0.00073   0.00000  -0.00260  -0.00298   1.90724
   A18        1.90135  -0.00284   0.00000  -0.02012  -0.02048   1.88087
   A19        1.89231  -0.00104   0.00000   0.00514   0.00503   1.89735
   A20        1.87552   0.00075   0.00000   0.01686   0.01700   1.89252
   A21        1.88794  -0.00088   0.00000  -0.02993  -0.03018   1.85776
   A22        1.89367   0.00053   0.00000   0.00015   0.00015   1.89382
   A23        1.91450   0.00160   0.00000   0.00682   0.00682   1.92132
   A24        1.86429  -0.00166   0.00000  -0.01670  -0.01670   1.84760
    D1        1.01482  -0.00069   0.00000  -0.01308  -0.01314   1.00168
    D2        3.14116   0.00088   0.00000   0.02052   0.02052  -3.12151
    D3       -1.05681  -0.00082   0.00000  -0.01483  -0.01486  -1.07167
    D4       -1.07935  -0.00033   0.00000  -0.00701  -0.00703  -1.08638
    D5        1.04699   0.00123   0.00000   0.02659   0.02663   1.07361
    D6        3.13220  -0.00046   0.00000  -0.00876  -0.00875   3.12346
    D7        3.11085  -0.00039   0.00000  -0.00803  -0.00804   3.10281
    D8       -1.04600   0.00117   0.00000   0.02557   0.02562  -1.02038
    D9        1.03921  -0.00052   0.00000  -0.00978  -0.00975   1.02946
   D10        1.02876   0.00034   0.00000  -0.02098  -0.02092   1.00784
   D11       -1.03963   0.00028   0.00000  -0.02210  -0.02208  -1.06171
   D12       -1.12520  -0.00154   0.00000  -0.05264  -0.05265  -1.17785
   D13        3.08959  -0.00159   0.00000  -0.05376  -0.05381   3.03578
   D14        3.12501   0.00001   0.00000  -0.02747  -0.02746   3.09755
   D15        1.05661  -0.00004   0.00000  -0.02860  -0.02862   1.02799
   D16        3.12183  -0.00092   0.00000  -0.05767  -0.05763   3.06420
   D17        0.99667  -0.00217   0.00000  -0.08168  -0.08164   0.91503
   D18       -1.06434   0.00097   0.00000  -0.03230  -0.03253  -1.09687
   D19       -0.97697  -0.00019   0.00000  -0.02914  -0.02896  -1.00593
   D20       -3.10213  -0.00144   0.00000  -0.05315  -0.05297   3.12808
   D21        1.12005   0.00170   0.00000  -0.00376  -0.00386   1.11619
   D22        1.03234  -0.00016   0.00000  -0.03310  -0.03305   0.99929
   D23       -1.09282  -0.00141   0.00000  -0.05711  -0.05706  -1.14988
   D24        3.12936   0.00173   0.00000  -0.00773  -0.00795   3.12141
   D25        0.94619  -0.00135   0.00000  -0.04560  -0.04552   0.90067
   D26       -1.08439  -0.00055   0.00000  -0.02945  -0.02938  -1.11377
   D27        3.08116   0.00001   0.00000  -0.02626  -0.02614   3.05502
   D28        1.05058   0.00082   0.00000  -0.01012  -0.00999   1.04058
   D29       -1.16521  -0.00117   0.00000  -0.04981  -0.05001  -1.21522
   D30        3.08739  -0.00036   0.00000  -0.03367  -0.03386   3.05353
         Item               Value     Threshold  Converged?
 Maximum Force            0.012088     0.000015     NO 
 RMS     Force            0.003284     0.000010     NO 
 Maximum Displacement     0.125928     0.000060     NO 
 RMS     Displacement     0.038651     0.000040     NO 
 GradGradGradGradGradGradGradGradGradGradGradGradGradGradGradGradGradGrad

                    Distance matrix (angstroms):
                    1          2          3          4          5
     1  C    0.000000
     2  C    1.535171   0.000000
     3  N    2.517916   1.463251   0.000000
     4  C    2.542311   1.540459   2.441830   0.000000
     5  N    3.868597   2.536984   2.946119   1.453664   0.000000
     6  H    1.104589   2.188329   2.785966   3.506817   4.708090
     7  H    1.105523   2.179867   2.811369   2.805609   4.189725
     8  H    1.104920   2.195780   3.468791   2.800764   4.149959
     9  H    2.156611   1.106116   2.072611   2.142344   2.750103
    10  H    2.724717   2.053360   1.022181   2.704466   3.325833
    11  H    2.764273   2.066365   1.019746   3.348757   3.863172
    12  H    2.720390   2.171558   3.396543   1.104296   2.088657
    13  H    2.781325   2.154058   2.695175   1.107262   2.087360
    14  H    4.124352   2.680889   2.541263   2.023974   1.020536
    15  H    4.159177   2.791591   3.330713   2.042693   1.020247
                    6          7          8          9         10
     6  H    0.000000
     7  H    1.788639   0.000000
     8  H    1.787181   1.788635   0.000000
     9  H    2.514279   3.080601   2.507227   0.000000
    10  H    3.067734   2.595786   3.743122   2.937035   0.000000
    11  H    2.611688   3.163893   3.759831   2.371109   1.641458
    12  H    3.744282   3.065832   2.519443   2.503197   3.692290
    13  H    3.790210   2.588387   3.157628   3.050476   2.521733
    14  H    4.831477   4.382755   4.636658   2.961869   2.879303
    15  H    4.893727   4.704226   4.317502   2.582722   3.944722
                   11         12         13         14         15
    11  H    0.000000
    12  H    4.199070   0.000000
    13  H    3.653100   1.771350   0.000000
    14  H    3.433280   2.931240   2.420629   0.000000
    15  H    4.091915   2.378332   2.944002   1.628335   0.000000
 Framework group  C1[X(C3H10N2)]
 Deg. of freedom    39
                         Standard orientation:                         
 ---------------------------------------------------------------------
 Center     Atomic      Atomic             Coordinates (Angstroms)
 Number     Number       Type             X           Y           Z
 ---------------------------------------------------------------------
      1          6           0       -1.752207   -0.729223   -0.001704
      2          6           0       -0.454483    0.023099   -0.328312
      3          7           0       -0.452280    1.425224    0.090189
      4          6           0        0.773597   -0.677777    0.282921
      5          7           0        2.064477   -0.099633   -0.052515
      6          1           0       -2.624008   -0.230386   -0.461314
      7          1           0       -1.911635   -0.758978    1.091858
      8          1           0       -1.721057   -1.770055   -0.371227
      9          1           0       -0.315371    0.018368   -1.425636
     10          1           0       -0.619961    1.492614    1.096268
     11          1           0       -1.192981    1.952507   -0.371565
     12          1           0        0.773070   -1.740801   -0.016162
     13          1           0        0.658376   -0.661955    1.384058
     14          1           0        2.033537    0.900478    0.148269
     15          1           0        2.233201   -0.177520   -1.055695
 ---------------------------------------------------------------------
 Rotational constants (GHZ):           7.7642171           3.4810642           2.6680028
    90 basis functions,   165 primitive gaussians,    95 cartesian basis functions
    21 alpha electrons       21 beta electrons
       nuclear repulsion energy       194.3992103930 Hartrees.
 NAtoms=   15 NActive=   15 NUniq=   15 SFac= 1.00D+00 NAtFMM=   60 NAOKFM=F Big=F
 Nuclear repulsion after empirical dispersion term =      194.3914363574 Hartrees.
   1 Symmetry operations used in ECPInt.
 ECPInt:  NShTT=    1275 NPrTT=    5145 LenC2=    1274 LenP2D=    4348.
 LDataN:  DoStor=T MaxTD1= 4 Len=   56
 Initial guess from the checkpoint file:  "monomer.chk"
 B after Tr=    -0.000000    0.000000   -0.000000
         Rot=    0.999960    0.005437    0.002344   -0.006696 Ang=   1.02 deg.
 ExpMin= 1.22D-01 ExpMax= 1.71D+03 ExpMxC= 2.58D+02 IAcc=3 IRadAn=         5 AccDes= 0.00D+00
 Harris functional with IExCor= 4639 and IRadAn=       5 diagonalized for initial guess.
 HarFok:  IExCor= 4639 AccDes= 0.00D+00 IRadAn=         5 IDoV= 1 UseB2=F ITyADJ=14
 ICtDFT=  3500011 ScaDFX=  1.000000  1.000000  1.000000  1.000000
 FoFCou: FMM=F IPFlag=           0 FMFlag=      100000 FMFlg1=           0
         NFxFlg=           0 DoJE=T BraDBF=F KetDBF=T FulRan=T
         wScrn=  0.000000 ICntrl=       500 IOpCl=  0 I1Cent=   200000004 NGrid=           0
         NMat0=    1 NMatS0=      1 NMatT0=    0 NMatD0=    1 NMtDS0=    0 NMtDT0=    0
 Petite list used in FoFCou.
     Minimum is close to point  4 DX=  4.40D-02 DF= -1.64D-06 DXR=  3.54D-02 DFR=  1.25D-03 which will be used.
     Accept linear search using points  2 and  3.
     Accept linear search using points  1 and  2.
     Minimum is close to point  2 DX= -1.41D-02 DF= -2.07D-08 DXR=  1.30D-02 DFR=  2.00D-04 which will be used.
     Minimum is close to point  2 DX=  3.47D-04 DF= -1.05D-11 DXR=  3.47D-04 DFR=  1.20D-07 which will be used.
 SCF Done:  E(RwB97XD) =  -229.569548320     a.u. after    6 cycles
            Convg  =    0.2639D-08                    31 Fock formations.
              S**2 =  0.0000                  -V/T =  2.0100
   1 Symmetry operations used in ECPInt.
 ECPInt:  NShTT=    1275 NPrTT=    5145 LenC2=    1274 LenP2D=    4348.
 LDataN:  DoStor=T MaxTD1= 5 Len=  102
 Calling FoFJK, ICntrl=      2127 FMM=F ISym2X=0 I1Cent= 0 IOpClX= 0 NMat=1 NMatS=1 NMatT=0.

 GradGradGradGradGradGradGradGradGradGradGradGradGradGradGradGradGradGrad
 Using GEDIIS/GDIIS optimizer.
 FormGI is forming the generalized inverse of G from B-inverse, IUseBI=4.
 Internal  Forces:  Max     0.003484135 RMS     0.000792542
 Step number   2 out of a maximum of   78
 All quantities printed in internal units (Hartrees-Bohrs-Radians)
 Mixed Optimization -- En-DIIS/RFO-DIIS
 Trust test= 9.09D-01 RLast= 2.17D-01 DXMaxT set to 5.05D-01
 ITU=  1  0
 Use linear search instead of GDIIS.
     Eigenvalues ---    0.00241   0.00336   0.00911   0.01020   0.03829
     Eigenvalues ---    0.03863   0.04247   0.04687   0.04784   0.05351
     Eigenvalues ---    0.05464   0.05584   0.06012   0.10006   0.13319
     Eigenvalues ---    0.15724   0.16000   0.16000   0.16000   0.16000
     Eigenvalues ---    0.16000   0.16263   0.17051   0.18460   0.22601
     Eigenvalues ---    0.28065   0.29123   0.32403   0.33948   0.34434
     Eigenvalues ---    0.34632   0.34932   0.35126   0.37695   0.41394
     Eigenvalues ---    0.44654   0.45025   0.45086   0.45497
 Quartic linear search produced a step of -0.03650.
 Iteration  1 RMS(Cart)=  0.02193854 RMS(Int)=  0.00020544
 Iteration  2 RMS(Cart)=  0.00024667 RMS(Int)=  0.00000811
 Iteration  3 RMS(Cart)=  0.00000003 RMS(Int)=  0.00000811
 Variable       Old X    -DE/DX   Delta X   Delta X   Delta X     New X
                                 (Linear)    (Quad)   (Total)
    R1        2.90105  -0.00190  -0.00018  -0.00563  -0.00581   2.89524
    R2        2.08737  -0.00012  -0.00107   0.00333   0.00226   2.08963
    R3        2.08914   0.00040  -0.00113   0.00498   0.00385   2.09298
    R4        2.08800  -0.00019  -0.00124   0.00373   0.00249   2.09049
    R5        2.76514  -0.00278  -0.00042  -0.00572  -0.00615   2.75900
    R6        2.91105  -0.00195   0.00003  -0.00670  -0.00667   2.90438
    R7        2.09026   0.00047  -0.00053   0.00314   0.00261   2.09287
    R8        1.93164   0.00001  -0.00043   0.00148   0.00106   1.93270
    R9        1.92704  -0.00015  -0.00038   0.00097   0.00059   1.92763
   R10        2.74703  -0.00348  -0.00028  -0.00778  -0.00807   2.73896
   R11        2.08682   0.00005  -0.00079   0.00282   0.00204   2.08885
   R12        2.09242   0.00070  -0.00087   0.00494   0.00407   2.09649
   R13        1.92853   0.00093  -0.00032   0.00310   0.00278   1.93131
   R14        1.92799   0.00042  -0.00032   0.00197   0.00165   1.92964
    A1        1.93622  -0.00008  -0.00028   0.00016  -0.00012   1.93610
    A2        1.92361   0.00073  -0.00001   0.00451   0.00449   1.92811
    A3        1.94620   0.00033  -0.00062   0.00429   0.00367   1.94987
    A4        1.88591  -0.00038   0.00033  -0.00380  -0.00347   1.88244
    A5        1.88442  -0.00015   0.00032  -0.00223  -0.00191   1.88251
    A6        1.88549  -0.00049   0.00029  -0.00339  -0.00311   1.88239
    A7        1.99326   0.00047  -0.00030   0.00130   0.00101   1.99427
    A8        1.94607   0.00039  -0.00043   0.00306   0.00263   1.94870
    A9        1.89154  -0.00006   0.00040   0.00367   0.00406   1.89561
   A10        1.89789  -0.00109  -0.00050  -0.00722  -0.00772   1.89017
   A11        1.86256  -0.00013  -0.00012  -0.00339  -0.00351   1.85905
   A12        1.86651   0.00041   0.00106   0.00255   0.00357   1.87009
   A13        1.92243  -0.00022  -0.00027  -0.00131  -0.00159   1.92084
   A14        1.94429  -0.00065  -0.00058  -0.00281  -0.00340   1.94089
   A15        1.86757   0.00028   0.00040  -0.00151  -0.00112   1.86645
   A16        2.02131  -0.00176  -0.00101  -0.00381  -0.00481   2.01650
   A17        1.90724   0.00040   0.00011   0.00243   0.00255   1.90979
   A18        1.88087   0.00127   0.00075   0.00487   0.00563   1.88650
   A19        1.89735   0.00089  -0.00018   0.00597   0.00580   1.90315
   A20        1.89252  -0.00013  -0.00062  -0.00193  -0.00255   1.88997
   A21        1.85776  -0.00061   0.00110  -0.00817  -0.00706   1.85070
   A22        1.89382  -0.00070  -0.00001  -0.00511  -0.00513   1.88869
   A23        1.92132  -0.00075  -0.00025  -0.00455  -0.00482   1.91650
   A24        1.84760   0.00047   0.00061  -0.00127  -0.00069   1.84691
    D1        1.00168   0.00025   0.00048  -0.00616  -0.00568   0.99600
    D2       -3.12151  -0.00053  -0.00075  -0.01239  -0.01314  -3.13466
    D3       -1.07167   0.00016   0.00054  -0.00525  -0.00470  -1.07637
    D4       -1.08638   0.00031   0.00026  -0.00445  -0.00419  -1.09057
    D5        1.07361  -0.00047  -0.00097  -0.01068  -0.01165   1.06196
    D6        3.12346   0.00022   0.00032  -0.00353  -0.00321   3.12024
    D7        3.10281   0.00022   0.00029  -0.00599  -0.00570   3.09711
    D8       -1.02038  -0.00056  -0.00094  -0.01222  -0.01317  -1.03355
    D9        1.02946   0.00014   0.00036  -0.00508  -0.00472   1.02474
   D10        1.00784  -0.00040   0.00076  -0.03306  -0.03229   0.97556
   D11       -1.06171  -0.00019   0.00081  -0.02855  -0.02775  -1.08946
   D12       -1.17785  -0.00040   0.00192  -0.03234  -0.03041  -1.20826
   D13        3.03578  -0.00019   0.00196  -0.02784  -0.02587   3.00991
   D14        3.09755  -0.00028   0.00100  -0.03002  -0.02902   3.06852
   D15        1.02799  -0.00007   0.00104  -0.02552  -0.02448   1.00351
   D16        3.06420   0.00039   0.00210   0.03545   0.03756   3.10176
   D17        0.91503   0.00018   0.00298   0.02834   0.03132   0.94635
   D18       -1.09687   0.00001   0.00119   0.03410   0.03530  -1.06157
   D19       -1.00593   0.00048   0.00106   0.03394   0.03500  -0.97094
   D20        3.12808   0.00026   0.00193   0.02683   0.02876  -3.12634
   D21        1.11619   0.00009   0.00014   0.03259   0.03273   1.14892
   D22        0.99929  -0.00000   0.00121   0.02774   0.02894   1.02823
   D23       -1.14988  -0.00021   0.00208   0.02062   0.02270  -1.12718
   D24        3.12141  -0.00038   0.00029   0.02639   0.02667  -3.13510
   D25        0.90067  -0.00022   0.00166  -0.02921  -0.02754   0.87313
   D26       -1.11377   0.00002   0.00107  -0.02233  -0.02127  -1.13503
   D27        3.05502  -0.00025   0.00095  -0.02395  -0.02300   3.03203
   D28        1.04058  -0.00001   0.00036  -0.01708  -0.01672   1.02386
   D29       -1.21522  -0.00057   0.00183  -0.03148  -0.02964  -1.24486
   D30        3.05353  -0.00033   0.00124  -0.02460  -0.02337   3.03016
         Item               Value     Threshold  Converged?
 Maximum Force            0.003484     0.000015     NO 
 RMS     Force            0.000793     0.000010     NO 
 Maximum Displacement     0.074383     0.000060     NO 
 RMS     Displacement     0.021942     0.000040     NO 
 GradGradGradGradGradGradGradGradGradGradGradGradGradGradGradGradGradGrad

                    Distance matrix (angstroms):
                    1          2          3          4          5
     1  C    0.000000
     2  C    1.532095   0.000000
     3  N    2.513421   1.459998   0.000000
     4  C    2.539122   1.536932   2.429569   0.000000
     5  N    3.859609   2.526567   2.906930   1.449394   0.000000
     6  H    1.105786   2.186438   2.780233   3.504145   4.698197
     7  H    1.107560   2.181973   2.814200   2.802863   4.173705
     8  H    1.106238   2.196698   3.466954   2.808376   4.162202
     9  H    2.157976   1.107499   2.068205   2.142999   2.755478
    10  H    2.706334   2.049815   1.022740   2.705011   3.299629
    11  H    2.769447   2.061427   1.020058   3.335889   3.819573
    12  H    2.734719   2.171152   3.388403   1.105374   2.089984
    13  H    2.768038   2.156801   2.703899   1.109417   2.083424
    14  H    4.092645   2.654718   2.479967   2.017728   1.022005
    15  H    4.161515   2.786224   3.295723   2.036285   1.021120
                    6          7          8          9         10
     6  H    0.000000
     7  H    1.788995   0.000000
     8  H    1.787974   1.789326   0.000000
     9  H    2.518032   3.085774   2.510787   0.000000
    10  H    3.038747   2.583604   3.731819   2.933124   0.000000
    11  H    2.615835   3.183434   3.762043   2.354249   1.641480
    12  H    3.758760   3.084443   2.544877   2.497445   3.699253
    13  H    3.779306   2.571967   3.147117   3.055986   2.543596
    14  H    4.793780   4.345653   4.627250   2.952751   2.832561
    15  H    4.897966   4.699942   4.340549   2.592249   3.922720
                   11         12         13         14         15
    11  H    0.000000
    12  H    4.190353   0.000000
    13  H    3.664183   1.769245   0.000000
    14  H    3.364368   2.930104   2.424596   0.000000
    15  H    4.048151   2.370484   2.939168   1.629780   0.000000
 Framework group  C1[X(C3H10N2)]
 Deg. of freedom    39
                         Standard orientation:                         
 ---------------------------------------------------------------------
 Center     Atomic      Atomic             Coordinates (Angstroms)
 Number     Number       Type             X           Y           Z
 ---------------------------------------------------------------------
      1          6           0       -1.759664   -0.707059    0.003550
      2          6           0       -0.454779    0.022367   -0.331906
      3          7           0       -0.421468    1.418597    0.093567
      4          6           0        0.765653   -0.694043    0.267647
      5          7           0        2.052023   -0.102468   -0.042251
      6          1           0       -2.628634   -0.185864   -0.439180
      7          1           0       -1.910211   -0.747104    1.100100
      8          1           0       -1.757333   -1.745920   -0.376614
      9          1           0       -0.324088    0.025162   -1.431663
     10          1           0       -0.607405    1.483972    1.097136
     11          1           0       -1.141724    1.965413   -0.378389
     12          1           0        0.767294   -1.750894   -0.056257
     13          1           0        0.647249   -0.711694    1.370586
     14          1           0        2.002027    0.897169    0.164436
     15          1           0        2.231683   -0.170733   -1.045121
 ---------------------------------------------------------------------
 Rotational constants (GHZ):           7.8209142           3.5094293           2.6884370
    90 basis functions,   165 primitive gaussians,    95 cartesian basis functions
    21 alpha electrons       21 beta electrons
       nuclear repulsion energy       194.8573178569 Hartrees.
 NAtoms=   15 NActive=   15 NUniq=   15 SFac= 1.00D+00 NAtFMM=   60 NAOKFM=F Big=F
 Nuclear repulsion after empirical dispersion term =      194.8495450738 Hartrees.
   1 Symmetry operations used in ECPInt.
 ECPInt:  NShTT=    1275 NPrTT=    5145 LenC2=    1274 LenP2D=    4354.
 LDataN:  DoStor=T MaxTD1= 4 Len=   56
 Initial guess from the checkpoint file:  "monomer.chk"
 B after Tr=    -0.000000    0.000000   -0.000000
         Rot=    0.999983   -0.003330   -0.000193    0.004845 Ang=  -0.67 deg.
 ExpMin= 1.22D-01 ExpMax= 1.71D+03 ExpMxC= 2.58D+02 IAcc=3 IRadAn=         5 AccDes= 0.00D+00
 Harris functional with IExCor= 4639 and IRadAn=       5 diagonalized for initial guess.
 HarFok:  IExCor= 4639 AccDes= 0.00D+00 IRadAn=         5 IDoV= 1 UseB2=F ITyADJ=14
 ICtDFT=  3500011 ScaDFX=  1.000000  1.000000  1.000000  1.000000
 FoFCou: FMM=F IPFlag=           0 FMFlag=      100000 FMFlg1=           0
         NFxFlg=           0 DoJE=T BraDBF=F KetDBF=T FulRan=T
         wScrn=  0.000000 ICntrl=       500 IOpCl=  0 I1Cent=   200000004 NGrid=           0
         NMat0=    1 NMatS0=      1 NMatT0=    0 NMatD0=    1 NMtDS0=    0 NMtDT0=    0
 Petite list used in FoFCou.
     Accept linear search using points  1 and  2.
     Minimum is close to point  2 DX= -6.34D-05 DF= -2.27D-13 DXR=  6.34D-05 DFR=  3.90D-09 which will be used.
 SCF Done:  E(RwB97XD) =  -229.569681556     a.u. after    5 cycles
            Convg  =    0.8293D-09                    30 Fock formations.
              S**2 =  0.0000                  -V/T =  2.0100
   1 Symmetry operations used in ECPInt.
 ECPInt:  NShTT=    1275 NPrTT=    5145 LenC2=    1274 LenP2D=    4354.
 LDataN:  DoStor=T MaxTD1= 5 Len=  102
 Calling FoFJK, ICntrl=      2127 FMM=F ISym2X=0 I1Cent= 0 IOpClX= 0 NMat=1 NMatS=1 NMatT=0.

 GradGradGradGradGradGradGradGradGradGradGradGradGradGradGradGradGradGrad
 Using GEDIIS/GDIIS optimizer.
 FormGI is forming the generalized inverse of G from B-inverse, IUseBI=4.
 Internal  Forces:  Max     0.000982892 RMS     0.000287719
 Step number   3 out of a maximum of   78
 All quantities printed in internal units (Hartrees-Bohrs-Radians)
 Mixed Optimization -- En-DIIS/RFO-DIIS
 Swapping is turned off.
 Trust test= 1.01D+00 RLast= 1.36D-01 DXMaxT set to 5.05D-01
 ITU=  1  1  0
     Eigenvalues ---    0.00291   0.00341   0.00596   0.00993   0.03857
     Eigenvalues ---    0.03928   0.04286   0.04708   0.04760   0.05313
     Eigenvalues ---    0.05437   0.05563   0.06199   0.09969   0.13412
     Eigenvalues ---    0.15554   0.16000   0.16000   0.16000   0.16000
     Eigenvalues ---    0.16059   0.16238   0.17346   0.18837   0.22547
     Eigenvalues ---    0.28555   0.29452   0.33905   0.34200   0.34515
     Eigenvalues ---    0.34923   0.35056   0.37049   0.38291   0.41304
     Eigenvalues ---    0.44993   0.45029   0.45064   0.45451
 En-DIIS/RFO-DIIS/Sim-DIIS IScMMF=       -3 using points:     3    2
 RFO step:  Lambda=-9.85247521D-05.
 DidBck=F Rises=F RFO-DIIS coefs:    1.05978   -0.05978
 Iteration  1 RMS(Cart)=  0.02333104 RMS(Int)=  0.00030923
 Iteration  2 RMS(Cart)=  0.00033392 RMS(Int)=  0.00000164
 Iteration  3 RMS(Cart)=  0.00000006 RMS(Int)=  0.00000164
 Variable       Old X    -DE/DX   Delta X   Delta X   Delta X     New X
                                 (Linear)    (Quad)   (Total)
    R1        2.89524  -0.00072  -0.00035  -0.00441  -0.00475   2.89049
    R2        2.08963  -0.00078   0.00014  -0.00121  -0.00108   2.08856
    R3        2.09298  -0.00086   0.00023  -0.00092  -0.00069   2.09230
    R4        2.09049  -0.00098   0.00015  -0.00167  -0.00152   2.08897
    R5        2.75900   0.00044  -0.00037  -0.00070  -0.00107   2.75793
    R6        2.90438   0.00064  -0.00040   0.00010  -0.00030   2.90408
    R7        2.09287  -0.00038   0.00016  -0.00014   0.00002   2.09289
    R8        1.93270  -0.00028   0.00006  -0.00015  -0.00009   1.93261
    R9        1.92763  -0.00030   0.00004  -0.00036  -0.00033   1.92730
   R10        2.73896  -0.00018  -0.00048  -0.00307  -0.00355   2.73541
   R11        2.08885  -0.00048   0.00012  -0.00053  -0.00041   2.08845
   R12        2.09649  -0.00039   0.00024   0.00043   0.00067   2.09717
   R13        1.93131  -0.00018   0.00017   0.00061   0.00078   1.93209
   R14        1.92964  -0.00015   0.00010   0.00029   0.00039   1.93003
    A1        1.93610   0.00012  -0.00001   0.00104   0.00103   1.93713
    A2        1.92811   0.00007   0.00027   0.00184   0.00211   1.93022
    A3        1.94987  -0.00007   0.00022   0.00083   0.00105   1.95092
    A4        1.88244  -0.00007  -0.00021  -0.00137  -0.00158   1.88085
    A5        1.88251  -0.00001  -0.00011  -0.00063  -0.00075   1.88176
    A6        1.88239  -0.00005  -0.00019  -0.00191  -0.00210   1.88029
    A7        1.99427  -0.00031   0.00006  -0.00174  -0.00168   1.99259
    A8        1.94870  -0.00013   0.00016   0.00036   0.00052   1.94922
    A9        1.89561   0.00001   0.00024  -0.00064  -0.00040   1.89520
   A10        1.89017   0.00043  -0.00046   0.00075   0.00029   1.89046
   A11        1.85905   0.00001  -0.00021  -0.00061  -0.00082   1.85822
   A12        1.87009   0.00001   0.00021   0.00208   0.00230   1.87238
   A13        1.92084   0.00006  -0.00009  -0.00000  -0.00010   1.92074
   A14        1.94089   0.00006  -0.00020  -0.00057  -0.00077   1.94012
   A15        1.86645  -0.00006  -0.00007  -0.00082  -0.00089   1.86556
   A16        2.01650  -0.00013  -0.00029  -0.00169  -0.00198   2.01453
   A17        1.90979   0.00015   0.00015   0.00082   0.00097   1.91076
   A18        1.88650   0.00001   0.00034   0.00272   0.00305   1.88955
   A19        1.90315  -0.00014   0.00035  -0.00044  -0.00009   1.90306
   A20        1.88997   0.00023  -0.00015   0.00242   0.00226   1.89223
   A21        1.85070  -0.00011  -0.00042  -0.00405  -0.00447   1.84623
   A22        1.88869  -0.00036  -0.00031  -0.00418  -0.00449   1.88419
   A23        1.91650   0.00021  -0.00029  -0.00039  -0.00068   1.91582
   A24        1.84691   0.00003  -0.00004  -0.00065  -0.00070   1.84621
    D1        0.99600  -0.00012  -0.00034  -0.00069  -0.00103   0.99497
    D2       -3.13466   0.00011  -0.00079  -0.00073  -0.00152  -3.13617
    D3       -1.07637   0.00005  -0.00028   0.00164   0.00135  -1.07502
    D4       -1.09057  -0.00016  -0.00025  -0.00084  -0.00109  -1.09166
    D5        1.06196   0.00007  -0.00070  -0.00088  -0.00158   1.06038
    D6        3.12024   0.00001  -0.00019   0.00149   0.00129   3.12154
    D7        3.09711  -0.00010  -0.00034  -0.00022  -0.00056   3.09655
    D8       -1.03355   0.00013  -0.00079  -0.00026  -0.00105  -1.03460
    D9        1.02474   0.00008  -0.00028   0.00210   0.00182   1.02656
   D10        0.97556  -0.00013  -0.00193  -0.02750  -0.02943   0.94612
   D11       -1.08946  -0.00013  -0.00166  -0.02612  -0.02778  -1.11724
   D12       -1.20826  -0.00007  -0.00182  -0.02731  -0.02913  -1.23738
   D13        3.00991  -0.00007  -0.00155  -0.02593  -0.02748   2.98244
   D14        3.06852  -0.00029  -0.00173  -0.02978  -0.03151   3.03701
   D15        1.00351  -0.00030  -0.00146  -0.02840  -0.02986   0.97364
   D16        3.10176  -0.00018   0.00225  -0.03244  -0.03019   3.07156
   D17        0.94635  -0.00001   0.00187  -0.03127  -0.02939   0.91695
   D18       -1.06157   0.00003   0.00211  -0.02838  -0.02627  -1.08784
   D19       -0.97094  -0.00035   0.00209  -0.03387  -0.03177  -1.00271
   D20       -3.12634  -0.00019   0.00172  -0.03270  -0.03098   3.12586
   D21        1.14892  -0.00015   0.00196  -0.02981  -0.02785   1.12107
   D22        1.02823  -0.00013   0.00173  -0.03316  -0.03143   0.99680
   D23       -1.12718   0.00004   0.00136  -0.03199  -0.03063  -1.15781
   D24       -3.13510   0.00008   0.00159  -0.02910  -0.02750   3.12058
   D25        0.87313  -0.00018  -0.00165  -0.02657  -0.02822   0.84492
   D26       -1.13503  -0.00013  -0.00127  -0.02329  -0.02456  -1.15960
   D27        3.03203  -0.00019  -0.00137  -0.02707  -0.02844   3.00358
   D28        1.02386  -0.00014  -0.00100  -0.02379  -0.02479   0.99907
   D29       -1.24486  -0.00027  -0.00177  -0.03079  -0.03256  -1.27743
   D30        3.03016  -0.00022  -0.00140  -0.02751  -0.02891   3.00125
         Item               Value     Threshold  Converged?
 Maximum Force            0.000983     0.000015     NO 
 RMS     Force            0.000288     0.000010     NO 
 Maximum Displacement     0.092403     0.000060     NO 
 RMS     Displacement     0.023307     0.000040     NO 
 GradGradGradGradGradGradGradGradGradGradGradGradGradGradGradGradGradGrad

                    Distance matrix (angstroms):
                    1          2          3          4          5
     1  C    0.000000
     2  C    1.529580   0.000000
     3  N    2.509454   1.459433   0.000000
     4  C    2.537355   1.536773   2.429244   0.000000
     5  N    3.853974   2.523288   2.920190   1.447515   0.000000
     6  H    1.105216   2.184533   2.776087   3.502482   4.692547
     7  H    1.107196   2.181021   2.812030   2.802046   4.178240
     8  H    1.105435   2.194613   3.463396   2.807636   4.149508
     9  H    2.155487   1.107510   2.067110   2.144610   2.740823
    10  H    2.690289   2.049214   1.022694   2.718789   3.343293
    11  H    2.776706   2.060277   1.019885   3.333428   3.818522
    12  H    2.721618   2.171569   3.388223   1.105159   2.088128
    13  H    2.782176   2.159214   2.692819   1.109773   2.083727
    14  H    4.082472   2.636015   2.482265   2.013244   1.022416
    15  H    4.151895   2.792756   3.335361   2.034315   1.021326
                    6          7          8          9         10
     6  H    0.000000
     7  H    1.787209   0.000000
     8  H    1.786378   1.787016   0.000000
     9  H    2.515472   3.084457   2.509289   0.000000
    10  H    3.014245   2.569312   3.719216   2.931210   0.000000
    11  H    2.624613   3.198457   3.765554   2.341564   1.640761
    12  H    3.749482   3.062643   2.533002   2.512254   3.701555
    13  H    3.789712   2.588657   3.167985   3.058954   2.547981
    14  H    4.778611   4.358158   4.609433   2.906171   2.887786
    15  H    4.893336   4.698635   4.313127   2.588712   3.982419
                   11         12         13         14         15
    11  H    0.000000
    12  H    4.189419   0.000000
    13  H    3.660419   1.766376   0.000000
    14  H    3.344970   2.925452   2.434850   0.000000
    15  H    4.070234   2.359203   2.937925   1.629842   0.000000
 Framework group  C1[X(C3H10N2)]
 Deg. of freedom    39
                         Standard orientation:                         
 ---------------------------------------------------------------------
 Center     Atomic      Atomic             Coordinates (Angstroms)
 Number     Number       Type             X           Y           Z
 ---------------------------------------------------------------------
      1          6           0       -1.748990   -0.720895   -0.006179
      2          6           0       -0.451314    0.022071   -0.328135
      3          7           0       -0.439826    1.417394    0.099520
      4          6           0        0.771556   -0.680289    0.282560
      5          7           0        2.053642   -0.095325   -0.048153
      6          1           0       -2.619829   -0.209445   -0.455134
      7          1           0       -1.910809   -0.765774    1.088208
      8          1           0       -1.732822   -1.758547   -0.386970
      9          1           0       -0.311919    0.029270   -1.426814
     10          1           0       -0.664080    1.480775    1.095310
     11          1           0       -1.144935    1.960816   -0.398155
     12          1           0        0.772886   -1.744243   -0.016399
     13          1           0        0.659064   -0.677150    1.386612
     14          1           0        1.990565    0.912705    0.110696
     15          1           0        2.237653   -0.208212   -1.046403
 ---------------------------------------------------------------------
 Rotational constants (GHZ):           7.8107543           3.5095127           2.6905744
    90 basis functions,   165 primitive gaussians,    95 cartesian basis functions
    21 alpha electrons       21 beta electrons
       nuclear repulsion energy       194.9199371846 Hartrees.
 NAtoms=   15 NActive=   15 NUniq=   15 SFac= 1.00D+00 NAtFMM=   60 NAOKFM=F Big=F
 Nuclear repulsion after empirical dispersion term =      194.9121807276 Hartrees.
   1 Symmetry operations used in ECPInt.
 ECPInt:  NShTT=    1275 NPrTT=    5145 LenC2=    1274 LenP2D=    4356.
 LDataN:  DoStor=T MaxTD1= 4 Len=   56
 Initial guess from the checkpoint file:  "monomer.chk"
 B after Tr=    -0.000000   -0.000000    0.000000
         Rot=    0.999990    0.002226    0.001062   -0.003668 Ang=   0.51 deg.
 ExpMin= 1.22D-01 ExpMax= 1.71D+03 ExpMxC= 2.58D+02 IAcc=3 IRadAn=         5 AccDes= 0.00D+00
 Harris functional with IExCor= 4639 and IRadAn=       5 diagonalized for initial guess.
 HarFok:  IExCor= 4639 AccDes= 0.00D+00 IRadAn=         5 IDoV= 1 UseB2=F ITyADJ=14
 ICtDFT=  3500011 ScaDFX=  1.000000  1.000000  1.000000  1.000000
 FoFCou: FMM=F IPFlag=           0 FMFlag=      100000 FMFlg1=           0
         NFxFlg=           0 DoJE=T BraDBF=F KetDBF=T FulRan=T
         wScrn=  0.000000 ICntrl=       500 IOpCl=  0 I1Cent=   200000004 NGrid=           0
         NMat0=    1 NMatS0=      1 NMatT0=    0 NMatD0=    1 NMtDS0=    0 NMtDT0=    0
 Petite list used in FoFCou.
     Accept linear search using points  1 and  2.
     Minimum is close to point  2 DX= -2.54D-06 DF=  0.00D+00 DXR=  2.54D-06 DFR=  0.00D+00 which will be used.
 SCF Done:  E(RwB97XD) =  -229.569716452     a.u. after    5 cycles
            Convg  =    0.1686D-08                    29 Fock formations.
              S**2 =  0.0000                  -V/T =  2.0099
   1 Symmetry operations used in ECPInt.
 ECPInt:  NShTT=    1275 NPrTT=    5145 LenC2=    1274 LenP2D=    4356.
 LDataN:  DoStor=T MaxTD1= 5 Len=  102
 Calling FoFJK, ICntrl=      2127 FMM=F ISym2X=0 I1Cent= 0 IOpClX= 0 NMat=1 NMatS=1 NMatT=0.

 GradGradGradGradGradGradGradGradGradGradGradGradGradGradGradGradGradGrad
 Using GEDIIS/GDIIS optimizer.
 FormGI is forming the generalized inverse of G from B-inverse, IUseBI=4.
 Internal  Forces:  Max     0.001356003 RMS     0.000303694
 Step number   4 out of a maximum of   78
 All quantities printed in internal units (Hartrees-Bohrs-Radians)
 Mixed Optimization -- En-DIIS/RFO-DIIS
 Swapping is turned off.
 Trust test= 6.96D-01 RLast= 1.34D-01 DXMaxT set to 5.05D-01
 ITU=  1  1  1  0
     Eigenvalues ---    0.00295   0.00335   0.00531   0.00994   0.03908
     Eigenvalues ---    0.03966   0.04340   0.04744   0.05027   0.05398
     Eigenvalues ---    0.05448   0.05548   0.06324   0.10111   0.13420
     Eigenvalues ---    0.15584   0.16000   0.16000   0.16000   0.16008
     Eigenvalues ---    0.16037   0.16402   0.17361   0.18894   0.22450
     Eigenvalues ---    0.29450   0.29617   0.33920   0.34351   0.34506
     Eigenvalues ---    0.34926   0.35057   0.36244   0.37850   0.44605
     Eigenvalues ---    0.45017   0.45046   0.45327   0.48982
 En-DIIS/RFO-DIIS/Sim-DIIS IScMMF=       -3 using points:     4    3    2
 RFO step:  Lambda=-4.67692565D-05.
 DidBck=F Rises=F RFO-DIIS coefs:    0.84931    0.55121   -0.40052
 Iteration  1 RMS(Cart)=  0.00999785 RMS(Int)=  0.00004057
 Iteration  2 RMS(Cart)=  0.00005580 RMS(Int)=  0.00000534
 Iteration  3 RMS(Cart)=  0.00000000 RMS(Int)=  0.00000534
 Variable       Old X    -DE/DX   Delta X   Delta X   Delta X     New X
                                 (Linear)    (Quad)   (Total)
    R1        2.89049   0.00068  -0.00161   0.00207   0.00045   2.89094
    R2        2.08856  -0.00037   0.00107  -0.00167  -0.00061   2.08795
    R3        2.09230  -0.00057   0.00165  -0.00249  -0.00084   2.09146
    R4        2.08897  -0.00046   0.00123  -0.00200  -0.00077   2.08819
    R5        2.75793   0.00111  -0.00230   0.00369   0.00139   2.75932
    R6        2.90408   0.00038  -0.00262   0.00330   0.00067   2.90475
    R7        2.09289  -0.00045   0.00104  -0.00166  -0.00062   2.09227
    R8        1.93261  -0.00032   0.00044  -0.00077  -0.00033   1.93228
    R9        1.92730  -0.00014   0.00029  -0.00046  -0.00017   1.92713
   R10        2.73541   0.00136  -0.00270   0.00398   0.00128   2.73669
   R11        2.08845  -0.00026   0.00088  -0.00125  -0.00038   2.08807
   R12        2.09717  -0.00061   0.00153  -0.00225  -0.00072   2.09645
   R13        1.93209  -0.00009   0.00099  -0.00097   0.00003   1.93211
   R14        1.93003  -0.00030   0.00060  -0.00085  -0.00025   1.92978
    A1        1.93713   0.00005  -0.00020   0.00064   0.00044   1.93757
    A2        1.93022  -0.00019   0.00148  -0.00185  -0.00037   1.92985
    A3        1.95092  -0.00010   0.00131  -0.00146  -0.00015   1.95076
    A4        1.88085   0.00009  -0.00115   0.00125   0.00010   1.88095
    A5        1.88176   0.00006  -0.00065   0.00082   0.00017   1.88193
    A6        1.88029   0.00011  -0.00093   0.00075  -0.00018   1.88011
    A7        1.99259   0.00006   0.00066  -0.00018   0.00048   1.99306
    A8        1.94922   0.00015   0.00098  -0.00014   0.00083   1.95004
    A9        1.89520  -0.00002   0.00169  -0.00199  -0.00031   1.89489
   A10        1.89046  -0.00007  -0.00313   0.00351   0.00037   1.89084
   A11        1.85822  -0.00001  -0.00128   0.00075  -0.00052   1.85770
   A12        1.87238  -0.00013   0.00109  -0.00209  -0.00101   1.87137
   A13        1.92074   0.00019  -0.00062   0.00163   0.00101   1.92175
   A14        1.94012   0.00018  -0.00124   0.00216   0.00092   1.94104
   A15        1.86556  -0.00004  -0.00031   0.00084   0.00052   1.86608
   A16        2.01453  -0.00006  -0.00163   0.00113  -0.00049   2.01404
   A17        1.91076   0.00004   0.00088  -0.00034   0.00054   1.91130
   A18        1.88955  -0.00033   0.00179  -0.00334  -0.00154   1.88801
   A19        1.90306   0.00006   0.00234  -0.00164   0.00070   1.90375
   A20        1.89223   0.00016  -0.00136   0.00183   0.00047   1.89270
   A21        1.84623   0.00015  -0.00216   0.00254   0.00038   1.84661
   A22        1.88419   0.00011  -0.00138   0.00169   0.00030   1.88449
   A23        1.91582   0.00030  -0.00183   0.00333   0.00149   1.91731
   A24        1.84621   0.00009  -0.00017   0.00167   0.00148   1.84769
    D1        0.99497  -0.00003  -0.00212   0.00040  -0.00172   0.99325
    D2       -3.13617   0.00004  -0.00504   0.00485  -0.00019  -3.13636
    D3       -1.07502  -0.00004  -0.00209   0.00095  -0.00114  -1.07616
    D4       -1.09166  -0.00005  -0.00151  -0.00037  -0.00189  -1.09355
    D5        1.06038   0.00002  -0.00443   0.00408  -0.00035   1.06003
    D6        3.12154  -0.00006  -0.00148   0.00017  -0.00131   3.12023
    D7        3.09655   0.00001  -0.00220   0.00090  -0.00130   3.09524
    D8       -1.03460   0.00007  -0.00512   0.00535   0.00023  -1.03437
    D9        1.02656  -0.00001  -0.00217   0.00144  -0.00073   1.02583
   D10        0.94612   0.00010  -0.00850   0.00286  -0.00563   0.94050
   D11       -1.11724  -0.00008  -0.00693  -0.00057  -0.00749  -1.12473
   D12       -1.23738  -0.00008  -0.00779   0.00044  -0.00735  -1.24473
   D13        2.98244  -0.00027  -0.00622  -0.00299  -0.00921   2.97322
   D14        3.03701   0.00011  -0.00688   0.00079  -0.00609   3.03092
   D15        0.97364  -0.00008  -0.00531  -0.00264  -0.00796   0.96569
   D16        3.07156   0.00011   0.01959  -0.00229   0.01731   3.08887
   D17        0.91695   0.00005   0.01697  -0.00067   0.01631   0.93326
   D18       -1.08784   0.00003   0.01809  -0.00168   0.01641  -1.07143
   D19       -1.00271   0.00025   0.01880  -0.00002   0.01878  -0.98393
   D20        3.12586   0.00018   0.01619   0.00160   0.01779  -3.13953
   D21        1.12107   0.00016   0.01731   0.00058   0.01789   1.13896
   D22        0.99680   0.00013   0.01633   0.00153   0.01785   1.01465
   D23       -1.15781   0.00007   0.01371   0.00315   0.01685  -1.14096
   D24        3.12058   0.00004   0.01483   0.00213   0.01695   3.13753
   D25        0.84492  -0.00001  -0.00678   0.00068  -0.00609   0.83883
   D26       -1.15960  -0.00034  -0.00482  -0.00397  -0.00879  -1.16838
   D27        3.00358   0.00004  -0.00492  -0.00026  -0.00518   2.99841
   D28        0.99907  -0.00029  -0.00296  -0.00491  -0.00788   0.99119
   D29       -1.27743   0.00033  -0.00697   0.00285  -0.00411  -1.28153
   D30        3.00125   0.00001  -0.00500  -0.00179  -0.00681   2.99444
         Item               Value     Threshold  Converged?
 Maximum Force            0.001356     0.000015     NO 
 RMS     Force            0.000304     0.000010     NO 
 Maximum Displacement     0.030915     0.000060     NO 
 RMS     Displacement     0.010001     0.000040     NO 
 GradGradGradGradGradGradGradGradGradGradGradGradGradGradGradGradGradGrad

                    Distance matrix (angstroms):
                    1          2          3          4          5
     1  C    0.000000
     2  C    1.529821   0.000000
     3  N    2.510658   1.460170   0.000000
     4  C    2.538561   1.537129   2.430453   0.000000
     5  N    3.855857   2.523766   2.911379   1.448192   0.000000
     6  H    1.104895   2.184819   2.776807   3.503399   4.693904
     7  H    1.106751   2.180630   2.813502   2.802706   4.175096
     8  H    1.105025   2.194403   3.464056   2.808567   4.156341
     9  H    2.155221   1.107184   2.067111   2.143914   2.747615
    10  H    2.690152   2.050425   1.022519   2.724283   3.335198
    11  H    2.781913   2.061478   1.019793   3.334160   3.808882
    12  H    2.730511   2.172129   3.389492   1.104960   2.089069
    13  H    2.774207   2.158087   2.701238   1.109393   2.084371
    14  H    4.078515   2.634276   2.468957   2.014057   1.022431
    15  H    4.162438   2.798094   3.327443   2.035833   1.021194
                    6          7          8          9         10
     6  H    0.000000
     7  H    1.786655   0.000000
     8  H    1.785898   1.786207   0.000000
     9  H    2.515888   3.083591   2.508461   0.000000
    10  H    3.011231   2.570206   3.719523   2.931247   0.000000
    11  H    2.630404   3.205688   3.769054   2.339486   1.640865
    12  H    3.756144   3.075413   2.542168   2.505128   3.710791
    13  H    3.783417   2.579577   3.155925   3.057316   2.562131
    14  H    4.774083   4.347487   4.610659   2.914307   2.871398
    15  H    4.903796   4.703649   4.330357   2.601256   3.975567
                   11         12         13         14         15
    11  H    0.000000
    12  H    4.189890   0.000000
    13  H    3.668569   1.766170   0.000000
    14  H    3.330917   2.926031   2.437486   0.000000
    15  H    4.060732   2.358681   2.938577   1.630659   0.000000
 Framework group  C1[X(C3H10N2)]
 Deg. of freedom    39
                         Standard orientation:                         
 ---------------------------------------------------------------------
 Center     Atomic      Atomic             Coordinates (Angstroms)
 Number     Number       Type             X           Y           Z
 ---------------------------------------------------------------------
      1          6           0       -1.753528   -0.714408   -0.002813
      2          6           0       -0.452672    0.021603   -0.329023
      3          7           0       -0.431241    1.417384    0.099266
      4          6           0        0.769672   -0.688345    0.274812
      5          7           0        2.052117   -0.095485   -0.043167
      6          1           0       -2.623304   -0.197394   -0.446638
      7          1           0       -1.910344   -0.760439    1.091805
      8          1           0       -1.744864   -1.751102   -0.385266
      9          1           0       -0.317762    0.028955   -1.427932
     10          1           0       -0.656574    1.483221    1.094472
     11          1           0       -1.129804    1.967398   -0.400207
     12          1           0        0.773663   -1.747681   -0.039399
     13          1           0        0.652622   -0.700851    1.377941
     14          1           0        1.985028    0.910721    0.125397
     15          1           0        2.244373   -0.199216   -1.040721
 ---------------------------------------------------------------------
 Rotational constants (GHZ):           7.8143028           3.5115920           2.6898703
    90 basis functions,   165 primitive gaussians,    95 cartesian basis functions
    21 alpha electrons       21 beta electrons
       nuclear repulsion energy       194.9085781571 Hartrees.
 NAtoms=   15 NActive=   15 NUniq=   15 SFac= 1.00D+00 NAtFMM=   60 NAOKFM=F Big=F
 Nuclear repulsion after empirical dispersion term =      194.9008250056 Hartrees.
   1 Symmetry operations used in ECPInt.
 ECPInt:  NShTT=    1275 NPrTT=    5145 LenC2=    1274 LenP2D=    4355.
 LDataN:  DoStor=T MaxTD1= 4 Len=   56
 Initial guess from the checkpoint file:  "monomer.chk"
 B after Tr=     0.000000    0.000000   -0.000000
         Rot=    0.999998   -0.001314   -0.000076    0.001515 Ang=  -0.23 deg.
 ExpMin= 1.22D-01 ExpMax= 1.71D+03 ExpMxC= 2.58D+02 IAcc=3 IRadAn=         5 AccDes= 0.00D+00
 Harris functional with IExCor= 4639 and IRadAn=       5 diagonalized for initial guess.
 HarFok:  IExCor= 4639 AccDes= 0.00D+00 IRadAn=         5 IDoV= 1 UseB2=F ITyADJ=14
 ICtDFT=  3500011 ScaDFX=  1.000000  1.000000  1.000000  1.000000
 FoFCou: FMM=F IPFlag=           0 FMFlag=      100000 FMFlg1=           0
         NFxFlg=           0 DoJE=T BraDBF=F KetDBF=T FulRan=T
         wScrn=  0.000000 ICntrl=       500 IOpCl=  0 I1Cent=   200000004 NGrid=           0
         NMat0=    1 NMatS0=      1 NMatT0=    0 NMatD0=    1 NMtDS0=    0 NMtDT0=    0
 Petite list used in FoFCou.
     Minimum is close to point  2 DX=  7.43D-05 DF= -1.42D-13 DXR=  7.43D-05 DFR=  5.49D-09 which will be used.
 SCF Done:  E(RwB97XD) =  -229.569738508     a.u. after    4 cycles
            Convg  =    0.1252D-09                    28 Fock formations.
              S**2 =  0.0000                  -V/T =  2.0099
   1 Symmetry operations used in ECPInt.
 ECPInt:  NShTT=    1275 NPrTT=    5145 LenC2=    1274 LenP2D=    4355.
 LDataN:  DoStor=T MaxTD1= 5 Len=  102
 Calling FoFJK, ICntrl=      2127 FMM=F ISym2X=0 I1Cent= 0 IOpClX= 0 NMat=1 NMatS=1 NMatT=0.

 GradGradGradGradGradGradGradGradGradGradGradGradGradGradGradGradGradGrad
 Using GEDIIS/GDIIS optimizer.
 FormGI is forming the generalized inverse of G from B-inverse, IUseBI=4.
 Internal  Forces:  Max     0.000678163 RMS     0.000165731
 Step number   5 out of a maximum of   78
 All quantities printed in internal units (Hartrees-Bohrs-Radians)
 Mixed Optimization -- En-DIIS/RFO-DIIS
 Swapping is turned off.
 Trust test= 1.05D+00 RLast= 5.78D-02 DXMaxT set to 5.05D-01
 ITU=  1  1  1  1  0
     Eigenvalues ---    0.00318   0.00340   0.00555   0.00997   0.03932
     Eigenvalues ---    0.04128   0.04308   0.04763   0.04851   0.05379
     Eigenvalues ---    0.05444   0.05544   0.06327   0.10000   0.13409
     Eigenvalues ---    0.15725   0.15969   0.16000   0.16000   0.16004
     Eigenvalues ---    0.16015   0.16535   0.17379   0.19021   0.22442
     Eigenvalues ---    0.29224   0.29546   0.33698   0.34026   0.34473
     Eigenvalues ---    0.34924   0.34940   0.35413   0.37798   0.43533
     Eigenvalues ---    0.44887   0.45025   0.45134   0.45518
 En-DIIS/RFO-DIIS/Sim-DIIS IScMMF=       -3 using points:     5    4    3    2
 RFO step:  Lambda=-1.54447738D-05.
 DidBck=F Rises=F RFO-DIIS coefs:    2.03926   -0.74166   -0.38937    0.09178
 Iteration  1 RMS(Cart)=  0.00576546 RMS(Int)=  0.00003116
 Iteration  2 RMS(Cart)=  0.00003335 RMS(Int)=  0.00000116
 Iteration  3 RMS(Cart)=  0.00000000 RMS(Int)=  0.00000116
 Variable       Old X    -DE/DX   Delta X   Delta X   Delta X     New X
                                 (Linear)    (Quad)   (Total)
    R1        2.89094   0.00044  -0.00041   0.00176   0.00135   2.89229
    R2        2.08795  -0.00019  -0.00116   0.00042  -0.00074   2.08721
    R3        2.09146  -0.00029  -0.00143   0.00045  -0.00098   2.09048
    R4        2.08819  -0.00019  -0.00149   0.00078  -0.00071   2.08749
    R5        2.75932   0.00055   0.00169  -0.00013   0.00156   2.76088
    R6        2.90475   0.00033   0.00122   0.00002   0.00124   2.90599
    R7        2.09227  -0.00024  -0.00087   0.00002  -0.00086   2.09142
    R8        1.93228  -0.00019  -0.00047  -0.00010  -0.00057   1.93171
    R9        1.92713  -0.00013  -0.00033  -0.00014  -0.00047   1.92666
   R10        2.73669   0.00068   0.00101   0.00053   0.00155   2.73823
   R11        2.08807  -0.00018  -0.00070  -0.00001  -0.00071   2.08736
   R12        2.09645  -0.00033  -0.00092  -0.00013  -0.00105   2.09540
   R13        1.93211  -0.00017   0.00001  -0.00031  -0.00031   1.93181
   R14        1.92978  -0.00026  -0.00030  -0.00048  -0.00077   1.92900
    A1        1.93757  -0.00003   0.00077  -0.00090  -0.00013   1.93744
    A2        1.92985  -0.00013  -0.00017  -0.00054  -0.00071   1.92914
    A3        1.95076  -0.00013  -0.00018  -0.00089  -0.00107   1.94969
    A4        1.88095   0.00010  -0.00005   0.00094   0.00089   1.88184
    A5        1.88193   0.00009   0.00013   0.00068   0.00081   1.88274
    A6        1.88011   0.00012  -0.00053   0.00085   0.00032   1.88043
    A7        1.99306  -0.00002  -0.00010  -0.00015  -0.00025   1.99282
    A8        1.95004  -0.00002   0.00077  -0.00088  -0.00011   1.94993
    A9        1.89489   0.00002  -0.00082   0.00141   0.00059   1.89548
   A10        1.89084   0.00005   0.00118  -0.00138  -0.00019   1.89064
   A11        1.85770   0.00001  -0.00046   0.00060   0.00014   1.85784
   A12        1.87137  -0.00004  -0.00070   0.00054  -0.00015   1.87122
   A13        1.92175   0.00010   0.00116   0.00051   0.00167   1.92342
   A14        1.94104   0.00002   0.00103  -0.00064   0.00040   1.94144
   A15        1.86608   0.00002   0.00038   0.00119   0.00157   1.86765
   A16        2.01404  -0.00002  -0.00066  -0.00095  -0.00161   2.01243
   A17        1.91130  -0.00003   0.00061  -0.00117  -0.00056   1.91074
   A18        1.88801  -0.00016  -0.00121   0.00001  -0.00120   1.88681
   A19        1.90375  -0.00002   0.00017  -0.00021  -0.00005   1.90371
   A20        1.89270   0.00010   0.00140  -0.00022   0.00118   1.89388
   A21        1.84661   0.00014  -0.00028   0.00292   0.00263   1.84924
   A22        1.88449  -0.00002  -0.00055   0.00014  -0.00041   1.88408
   A23        1.91731   0.00011   0.00179  -0.00046   0.00133   1.91864
   A24        1.84769   0.00009   0.00139   0.00152   0.00291   1.85060
    D1        0.99325   0.00000  -0.00157   0.00394   0.00237   0.99563
    D2       -3.13636   0.00004   0.00056   0.00127   0.00183  -3.13453
    D3       -1.07616  -0.00001  -0.00035   0.00230   0.00195  -1.07421
    D4       -1.09355  -0.00002  -0.00190   0.00371   0.00181  -1.09174
    D5        1.06003   0.00001   0.00023   0.00104   0.00127   1.06129
    D6        3.12023  -0.00003  -0.00068   0.00206   0.00138   3.12161
    D7        3.09524   0.00001  -0.00100   0.00358   0.00259   3.09783
    D8       -1.03437   0.00004   0.00113   0.00091   0.00205  -1.03233
    D9        1.02583  -0.00000   0.00022   0.00194   0.00216   1.02799
   D10        0.94050   0.00001  -0.01164  -0.00030  -0.01194   0.92855
   D11       -1.12473  -0.00010  -0.01351  -0.00171  -0.01521  -1.13995
   D12       -1.24473   0.00001  -0.01351   0.00205  -0.01147  -1.25620
   D13        2.97322  -0.00009  -0.01538   0.00064  -0.01474   2.95849
   D14        3.03092   0.00003  -0.01305   0.00178  -0.01126   3.01965
   D15        0.96569  -0.00008  -0.01491   0.00037  -0.01453   0.95115
   D16        3.08887   0.00000   0.00555   0.00079   0.00634   3.09521
   D17        0.93326   0.00006   0.00533   0.00272   0.00804   0.94131
   D18       -1.07143  -0.00001   0.00600  -0.00013   0.00587  -1.06556
   D19       -0.98393  -0.00001   0.00685  -0.00105   0.00580  -0.97812
   D20       -3.13953   0.00005   0.00663   0.00087   0.00750  -3.13203
   D21        1.13896  -0.00001   0.00730  -0.00197   0.00533   1.14429
   D22        1.01465   0.00001   0.00654  -0.00075   0.00579   1.02043
   D23       -1.14096   0.00006   0.00632   0.00117   0.00748  -1.13348
   D24        3.13753   0.00000   0.00699  -0.00168   0.00531  -3.14034
   D25        0.83883   0.00000  -0.01220   0.00026  -0.01194   0.82688
   D26       -1.16838  -0.00015  -0.01449  -0.00138  -0.01588  -1.18426
   D27        2.99841  -0.00006  -0.01174  -0.00216  -0.01390   2.98451
   D28        0.99119  -0.00021  -0.01403  -0.00380  -0.01783   0.97336
   D29       -1.28153   0.00015  -0.01124   0.00106  -0.01018  -1.29171
   D30        2.99444  -0.00001  -0.01353  -0.00058  -0.01411   2.98033
         Item               Value     Threshold  Converged?
 Maximum Force            0.000678     0.000015     NO 
 RMS     Force            0.000166     0.000010     NO 
 Maximum Displacement     0.019394     0.000060     NO 
 RMS     Displacement     0.005770     0.000040     NO 
 GradGradGradGradGradGradGradGradGradGradGradGradGradGradGradGradGradGrad

                    Distance matrix (angstroms):
                    1          2          3          4          5
     1  C    0.000000
     2  C    1.530535   0.000000
     3  N    2.511749   1.460996   0.000000
     4  C    2.539599   1.537784   2.431482   0.000000
     5  N    3.857049   2.523726   2.907893   1.449010   0.000000
     6  H    1.104502   2.185060   2.778417   3.504018   4.694295
     7  H    1.106235   2.180355   2.812785   2.803382   4.174359
     8  H    1.104651   2.193984   3.464400   2.807483   4.157785
     9  H    2.155948   1.106731   2.067588   2.144037   2.749256
    10  H    2.687633   2.052073   1.022219   2.731908   3.339295
    11  H    2.789646   2.062292   1.019544   3.334050   3.800405
    12  H    2.734275   2.172013   3.389951   1.104584   2.089459
    13  H    2.771051   2.157346   2.703456   1.108836   2.085518
    14  H    4.074178   2.628741   2.459642   2.014368   1.022269
    15  H    4.170409   2.805546   3.333454   2.037159   1.020784
                    6          7          8          9         10
     6  H    0.000000
     7  H    1.786498   0.000000
     8  H    1.785802   1.785699   0.000000
     9  H    2.515772   3.083231   2.509096   0.000000
    10  H    3.006229   2.566490   3.717312   2.931565   0.000000
    11  H    2.640361   3.214353   3.774879   2.335226   1.641378
    12  H    3.758056   3.081712   2.544067   2.501701   3.718558
    13  H    3.781000   2.576219   3.149207   3.056195   2.572536
    14  H    4.768061   4.342556   4.606710   2.908799   2.872328
    15  H    4.912528   4.708539   4.337196   2.612059   3.986346
                   11         12         13         14         15
    11  H    0.000000
    12  H    4.189183   0.000000
    13  H    3.672384   1.767182   0.000000
    14  H    3.314398   2.925204   2.442513   0.000000
    15  H    4.060639   2.353794   2.938820   1.631995   0.000000
 Framework group  C1[X(C3H10N2)]
 Deg. of freedom    39
                         Standard orientation:                         
 ---------------------------------------------------------------------
 Center     Atomic      Atomic             Coordinates (Angstroms)
 Number     Number       Type             X           Y           Z
 ---------------------------------------------------------------------
      1          6           0       -1.755405   -0.712772   -0.002221
      2          6           0       -0.452928    0.021362   -0.329542
      3          7           0       -0.428554    1.417442    0.100431
      4          6           0        0.769146   -0.691547    0.273016
      5          7           0        2.051531   -0.094226   -0.040551
      6          1           0       -2.624102   -0.195065   -0.446370
      7          1           0       -1.911100   -0.757514    1.092088
      8          1           0       -1.747117   -1.749431   -0.383693
      9          1           0       -0.318681    0.029447   -1.428071
     10          1           0       -0.663444    1.485301    1.092980
     11          1           0       -1.116695    1.972357   -0.407507
     12          1           0        0.774798   -1.748229   -0.048695
     13          1           0        0.649060   -0.709155    1.375190
     14          1           0        1.978558    0.912309    0.122529
     15          1           0        2.253008   -0.204793   -1.035128
 ---------------------------------------------------------------------
[...]
 ! D27   D(12,4,5,14)          170.8475         -DE/DX =    0.0                 !
 ! D28   D(12,4,5,15)           55.5718         -DE/DX =    0.0                 !
 ! D29   D(13,4,5,14)          -74.122          -DE/DX =    0.0                 !
 ! D30   D(13,4,5,15)          170.6023         -DE/DX =    0.0                 !
 --------------------------------------------------------------------------------
 GradGradGradGradGradGradGradGradGradGradGradGradGradGradGradGradGradGrad


 ----------------------------------------------------------------------

 Electric dipole moment (input orientation):
 (Debye = 10**-18 statcoulomb cm , SI units = C m)
                  (au)            (Debye)         (10**-30 SI)
   Tot        0.972489D+00      0.247182D+01      0.824511D+01
   x         -0.921813D+00     -0.234302D+01     -0.781546D+01
   y          0.178106D+00      0.452701D+00      0.151005D+01
   z         -0.253521D+00     -0.644387D+00     -0.214944D+01

 Dipole polarizability, Alpha (input orientation).
 (esu units = cm**3 , SI units = C**2 m**2 J**-1)
 Alpha(0;0):
               (au)            (10**-24 esu)      (10**-40 SI)
   iso        0.463536D+02      0.686890D+01      0.764268D+01
   aniso      0.530806D+01      0.786574D+00      0.875181D+00
   xx         0.491126D+02      0.727774D+01      0.809757D+01
   yx         0.709967D+00      0.105206D+00      0.117058D+00
   yy         0.461847D+02      0.684386D+01      0.761482D+01
   zx        -0.119444D+01     -0.176998D+00     -0.196937D+00
   zy         0.535490D+00      0.793515D-01      0.882904D-01
   zz         0.437636D+02      0.648510D+01      0.721564D+01

 ----------------------------------------------------------------------

 Dipole orientation:
     6         -1.20261951          1.82540102          2.91262819
     6          0.29402905          0.21051935          1.03652694
     7         -0.16020470         -2.50274358          1.26650017
     6         -0.22709371          0.99584732         -1.71278480
     7          1.20418879         -0.36502373         -3.60967496
     1         -0.80124416          1.25242168          4.87917740
     1         -3.25656630          1.60919412          2.58898444
     1         -0.73865435          3.85240774          2.72794495
     1          2.33529901          0.50074626          1.38691643
     1         -2.05407033         -2.87209795          1.17674962
     1          0.46598638         -3.17470991          2.96008823
     1          0.12501074          3.04168698         -1.93066056
     1         -2.26874092          0.71771219         -2.09335122
     1          1.08988037         -2.24999719         -3.20305718
     1          3.07254110          0.09662363         -3.48053699

 Electric dipole moment (dipole orientation):
 (Debye = 10**-18 statcoulomb cm , SI units = C m)
                  (au)            (Debye)         (10**-30 SI)
   Tot        0.972489D+00      0.247182D+01      0.824511D+01
   x          0.000000D+00      0.000000D+00      0.000000D+00
   y          0.000000D+00      0.000000D+00      0.000000D+00
   z          0.972489D+00      0.247182D+01      0.824511D+01

 Dipole polarizability, Alpha (dipole orientation).
 (esu units = cm**3 , SI units = C**2 m**2 J**-1)
 Alpha(0;0):
               (au)            (10**-24 esu)      (10**-40 SI)
   iso        0.463536D+02      0.686890D+01      0.764268D+01
   aniso      0.530806D+01      0.786574D+00      0.875181D+00
   xx         0.448180D+02      0.664134D+01      0.738948D+01
   yx        -0.360626D+00     -0.534393D-01     -0.594592D-01
   yy         0.464800D+02      0.688762D+01      0.766351D+01
   zx        -0.254687D+01     -0.377407D+00     -0.419922D+00
   zy         0.771431D+00      0.114314D+00      0.127192D+00
   zz         0.477629D+02      0.707773D+01      0.787504D+01

 ----------------------------------------------------------------------
 1\1\GINC-C209\Freq\RwB97XD\def2SVPP\C3H10N2\PETERCHAO1\29-Mar-2024\0\\
 #T Geom=AllCheck Guess=TCheck SCRF=Check GenChk RwB97XD/def2SVPP Freq\
 \Monomer\\0,1\C,-1.7768333522,-0.7456139674,0.0245201958\C,-0.49056268
 17,0.0134436562,-0.3108803238\N,-0.4772624882,1.4002281854,0.148197455
 3\C,0.7520444001,-0.6955033173,0.2536809642\N,2.0202955132,-0.07406399
 45,-0.0706815942\H,-2.6604841812,-0.2306354609,-0.392571073\H,-1.91100
 43223,-0.8152820918,1.1203859798\H,-1.7613646264,-1.7738108965,-0.3791
 775599\H,-0.3771285008,0.0466525685,-1.4112507612\H,-0.6932575615,1.44
 37790015,1.1463423485\H,-1.1826030454,1.9561225372,-0.334412635\H,0.76
 5783781,-1.7447691544,-0.091153413\H,0.6528085607,-0.7378927986,1.3572
 317442\H,1.9363131955,0.9279601393,0.1132457321\H,2.205929598,-0.16319
 65989,-1.0704072324\\Version=ES64L-G16RevB.01\State=1-A\HF=-229.569747
 7\RMSD=5.483e-10\RMSF=8.743e-07\ZeroPoint=0.139788\Thermal=0.1463239\D
 ipole=-0.9218134,0.1781062,-0.2535215\DipoleDeriv=-0.0921467,-0.100618
 7,0.0123124,-0.0139577,-0.0484914,-0.0129751,0.009596,0.0064518,0.0782
 945,0.2442256,-0.0091058,-0.0510138,0.1362082,0.5370993,0.0787699,-0.0
 648749,0.1041321,0.1894425,-0.5615752,-0.2031168,0.0275663,-0.1588859,
 -0.7476848,-0.0534848,-0.0054438,-0.0458405,-0.2103609,0.5396384,0.079
 5053,-0.0507052,0.0598848,0.2392023,-0.0671671,-0.0663177,-0.0538016,0
 .2714467,-0.9666936,-0.0168863,-0.033191,0.0190132,-0.3630083,0.059611
 7,-0.1346566,0.0693822,-0.2571213,-0.1151786,0.0435722,-0.0409439,0.09
 19453,0.0065474,0.0535811,-0.0600664,0.0459409,0.0373291,0.0397988,-0.
 0175484,-0.0166136,-0.0188496,0.0574076,-0.0175573,0.0512713,0.0226221
 ,-0.1428078,0.0475076,0.003224,0.0196574,-0.0412438,-0.1353947,-0.0620
 057,0.0055673,-0.0732962,0.0434494,-0.0056139,-0.0169537,0.043126,-0.0
 082202,-0.0214358,0.0193041,0.0333117,0.003467,-0.1832458,0.2329132,0.
 0861802,0.0984218,0.0287273,0.1640201,0.0727838,0.0508002,-0.0112611,0
 .0220508,0.0817049,0.1900856,-0.083635,0.0578036,0.1835864,-0.0356661,
 -0.0540922,-0.0400995,0.1403366,0.000821,-0.0082878,0.0018536,-0.00590
 9,-0.1501352,-0.034334,-0.0083112,-0.0852719,0.0361254,-0.0313655,-0.0
 129018,0.0629777,0.0093928,0.0478107,-0.0118959,0.0372607,0.0380429,-0
 .1834397,0.3177218,0.0474962,0.0674221,-0.0482734,0.0673645,-0.0083589
 ,0.1186341,0.0315474,0.1842298,0.2682421,-0.0646443,-0.057235,-0.10763
 56,0.1631118,0.0193941,0.0873214,-0.0120155,-0.0257293\Polar=49.112592
 3,0.7099669,46.1846652,-1.1944436,0.5354902,43.7635975\Quadrupole=-2.7
 549643,0.6287221,2.1262422,-0.5572326,-1.9402978,0.779747\PG=C01 [X(C3
 H10N2)]\NImag=0\\0.51804864,-0.04507131,0.56323610,0.02104686,0.013963
 09,0.57321494,-0.16982140,-0.03875534,0.02740318,0.49473556,-0.0451526
 4,-0.10167183,0.01723401,-0.00288997,0.50982446,0.02491351,0.01447318,
 -0.09528537,-0.01326160,-0.00419735,0.63563468,0.00182333,-0.03351167,
 -0.01170523,-0.06969190,0.02695545,-0.00200971,0.33483295,-0.00322304,
 -0.03676863,-0.01210117,-0.01981496,-0.21779942,-0.03180315,-0.1856466
 7,0.49606556,-0.00124534,0.00156208,0.00417069,-0.01894372,-0.04755457
 ,-0.11966093,0.06377585,-0.01872883,0.65712500,-0.02890239,0.00698204,
 -0.00973828,-0.13474818,0.04246639,-0.03353412,-0.00507205,0.00795418,
 0.00083094,0.48392959,-0.01327133,0.01098100,-0.00608637,0.03468472,-0
 .10234825,0.01825555,0.02843186,-0.03368287,0.01502931,0.02504059,0.60
 981131,0.00824241,-0.00528872,0.00375915,-0.03564255,0.02566330,-0.106
 95231,0.00891837,-0.00812978,0.00525228,-0.03202257,0.03922337,0.59936
 977,-0.00516033,0.00655531,-0.00294078,-0.04381561,-0.01702587,0.00910
 950,-0.00012139,-0.00070999,0.00042650,-0.20301949,-0.04732810,0.02511
 450,0.34192217,0.00195650,-0.00057702,0.00048922,0.00374802,0.00699667
 ,-0.00359371,0.00407217,0.00045672,-0.00066951,-0.08853613,-0.12407933
 ,-0.00457282,0.07299376,0.58900599,-0.00220816,0.00186805,-0.00008880,
 -0.00821046,-0.00575692,0.00491800,0.00010707,0.00012494,0.00237448,0.
 06523285,0.00678471,-0.10299595,-0.15500140,0.09232303,0.56038247,-0.2
 1499413,0.10080334,-0.08182193,-0.02247313,0.01574242,-0.01184204,0.00
 332379,0.00095622,0.00050808,-0.00185152,-0.00482829,0.00324149,-0.002
 50094,0.00043302,-0.00083815,0.23213429,0.10220608,-0.10874391,0.04856
 312,-0.01538355,0.00682821,-0.00804351,0.00052884,0.00266115,-0.000209
 97,-0.00146061,-0.00227199,0.00097361,-0.00145083,0.00057188,-0.000105
 58,-0.10735662,0.11231629,-0.08200543,0.04883919,-0.08840246,0.0081775
 4,-0.00458312,0.00311401,-0.00002860,-0.00090519,-0.00039731,0.0006444
 4,0.00097179,-0.00017526,0.00080411,0.00008618,0.00059739,0.08720435,-
 0.05346943,0.08855897,-0.05134860,-0.00150544,0.02788111,-0.00349421,-
 0.00081604,0.03037591,0.00120411,0.00221717,-0.00076074,0.00137407,-0.
 00035208,0.00193369,-0.00006226,0.00014483,-0.00068455,0.00431784,-0.0
 0030766,-0.02517735,0.05364001,-0.00066907,-0.05008310,0.01461575,-0.0
 0216537,-0.00169735,0.01691264,0.00121527,0.00169198,0.00068010,0.0010
 2420,0.00006376,-0.00026798,-0.00005898,-0.00012925,-0.00013665,-0.003
 21959,-0.00089781,0.01494953,0.00431267,0.04787631,0.02847336,0.014504
 44,-0.30741538,0.00098150,-0.00113849,-0.00860586,-0.00047034,0.000376
 86,0.00233277,-0.00128010,0.00018262,0.00036876,0.00030709,0.00007581,
 0.00054004,0.00231832,-0.00051968,-0.00911761,-0.03327860,-0.01730553,
 0.32882257,-0.04993404,0.00664916,0.00290779,0.00528987,-0.02285761,-0
 .01296431,-0.00537600,-0.00583571,0.00091121,0.00031794,-0.00066991,-0
 .00046599,0.00051614,0.00056322,0.00021410,0.00100239,0.02244160,0.011
 03733,-0.00107473,0.00300812,0.00077276,0.04924996,0.00496629,-0.27853
 847,-0.09157913,0.00473672,-0.01231712,-0.00670556,-0.00533804,-0.0032
 6622,0.00088184,0.00109261,-0.00021621,-0.00007886,-0.00040508,0.00046
 180,0.00019727,-0.00133105,-0.01093929,-0.00533042,-0.00014380,0.00455
 438,0.00224720,-0.00422018,0.29827336,0.00210948,-0.09200728,-0.086151
 05,-0.00131520,0.00790484,0.00217570,0.00165315,0.00132083,0.00114388,
 -0.00002567,-0.00043886,0.00001969,-0.00020112,0.00026359,-0.00005756,
 0.00089366,0.01268796,0.00502538,0.00045276,-0.02935964,-0.00822463,-0
 .00311508,0.09945929,0.08529532,-0.00443417,-0.00307722,0.02924167,-0.
 05212206,-0.00174711,0.02572579,0.00066855,0.00120835,-0.00019769,0.00
 009302,0.00171215,-0.02799252,0.00315814,-0.00027103,0.00061264,0.0008
 7657,0.00091424,-0.00009624,-0.00464060,-0.00303974,0.00152294,0.00094
 752,0.00003256,-0.00055016,0.05877213,-0.00182564,-0.00041716,0.015641
 26,-0.00094982,-0.04961081,0.01680088,0.00168512,-0.00631330,-0.039320
 61,-0.00105572,-0.00102419,0.01789660,-0.00140706,-0.00002350,-0.00135
 387,0.00011992,0.00048368,-0.00070863,-0.00302819,-0.00105430,0.000961
 53,0.00048877,0.00022435,0.00007534,0.00185338,0.06335493,0.00020266,0
 .00100761,-0.00614486,0.02617819,0.00878075,-0.29877264,-0.00008399,-0
 .00286277,-0.01132809,0.00184163,0.00141515,-0.01407861,0.00064864,-0.
 00064489,0.00276429,0.00040139,-0.00021982,0.00049247,0.00103177,0.000
 73153,0.00106377,0.00033112,0.00050073,0.00020464,-0.02781814,-0.00771
 617,0.32384785,0.00046477,0.00105460,-0.00185053,-0.00231586,-0.006365
 89,-0.00179294,-0.04418304,0.02478021,0.10628591,0.00057334,-0.0001542
 4,0.00231048,-0.00117639,0.00037259,-0.00097479,-0.00030942,-0.0001146
 5,-0.00024076,0.00032725,-0.00040339,0.00025178,-0.00002005,0.00041862
 ,0.00039760,0.00069186,0.00096792,0.00036088,0.04229534,0.00045112,0.0
 0193936,-0.00121543,0.00743987,-0.00302120,-0.04092374,0.01946765,-0.0
 5568351,0.00457740,-0.00020297,0.00167096,-0.00149760,-0.00034290,-0.0
 0000335,0.00011704,-0.00014009,-0.00006149,0.00018145,-0.00054442,-0.0
 0048522,0.00095038,0.00031894,0.00040441,0.00047789,0.00026074,-0.0064
 7224,-0.00239679,-0.01841764,0.06051423,-0.00042594,0.00194127,0.00214
 133,0.00540988,0.00091153,-0.01408100,0.06108124,-0.01356732,-0.398809
 50,-0.00004195,0.00022071,0.00145353,0.00016281,-0.00027681,-0.0000931
 0,-0.00019619,-0.00016709,-0.00019340,-0.00075082,-0.00065596,0.000024
 18,0.00035688,0.00053751,0.00029114,0.00006031,-0.00310579,0.00105217,
 -0.07505662,0.01585430,0.42442666,0.00199471,-0.00104971,0.00049916,-0
 .00365007,-0.00833852,0.00105593,-0.21641907,0.17653280,-0.14878082,-0
 .00023548,0.00168199,0.00128871,0.00002704,0.00089258,0.00005699,-0.00
 022096,0.00004952,-0.00043155,-0.00006341,-0.00002671,0.00006097,-0.00
 028872,0.00006548,-0.00011736,0.00010236,0.00023342,0.00035153,0.00373
 584,-0.00826211,0.00873529,0.21403259,0.00087445,0.00128310,0.00099720
 ,0.02753610,-0.02070222,0.01898683,0.13823953,-0.14698840,0.08007825,-
 0.00236019,-0.00628491,-0.00378826,-0.00062689,0.00084749,0.00023830,-
 0.00125747,-0.00037369,-0.00011812,-0.00008166,-0.00006485,-0.00006827
 ,-0.00002387,0.00064956,-0.00040813,0.00007439,0.00118105,-0.00033723,
 -0.00242600,0.00146099,-0.00135888,-0.16203018,0.16930857,0.00018282,-
 0.00065669,-0.00065286,0.01050291,-0.00813201,0.00800321,-0.12005073,0
 .08540149,-0.14232798,-0.00025696,-0.00306253,-0.00066891,0.00022765,-
 0.00009241,0.00006280,0.00003221,0.00039770,0.00020996,-0.00007260,0.0
 0018311,-0.00011785,0.00004384,-0.00025461,0.00004807,0.00078810,-0.00
 023113,0.00027491,-0.02950698,0.02190539,-0.01608702,0.13774685,-0.094
 66882,0.15050770,0.00030443,0.00061754,0.00034434,0.00149010,0.0219068
 4,0.01085913,-0.00388383,0.00392004,-0.00359313,-0.05029657,0.01182859
 ,0.00465184,-0.00375011,-0.03453519,-0.01150933,0.00031857,-0.00022334
 ,-0.00006819,-0.00002164,-0.00003576,0.00002251,-0.00092902,-0.0002730
 9,-0.00026827,0.00087671,-0.00049575,-0.00027073,-0.00000630,-0.000292
 72,-0.00003993,-0.00050476,0.00151688,0.00068295,0.06080650,-0.0006834
 3,0.00017100,-0.00023548,-0.00165614,-0.01381769,-0.00710604,0.0030763
 0,-0.00127614,0.00256047,0.00795436,-0.28221721,-0.07967045,-0.0032834
 0,-0.01361744,-0.00414018,0.00002315,0.00033132,0.00023691,0.00007573,
 -0.00001726,0.00009145,0.00032281,0.00070748,0.00009078,-0.00038066,0.
 00032623,0.00033175,-0.00014214,0.00014287,0.00003247,0.00034789,-0.00
 070419,-0.00059511,-0.00337433,0.30704185,0.00047228,-0.00008434,0.000
 21139,-0.00152508,0.01308251,0.00390034,-0.00157638,0.00152206,-0.0002
 5052,0.00253330,-0.08494201,-0.08095160,0.00129153,0.00984322,0.003582
 92,0.00018231,0.00013101,-0.00014315,-0.00003922,-0.00014393,-0.000046
 52,0.00003087,-0.00005272,0.00024009,0.00080742,0.00001517,0.00069395,
 -0.00060658,0.00046063,0.00010783,-0.00028819,0.00064538,0.00057224,-0
 .00313036,0.08560583,0.07818501,0.00164208,0.00023131,-0.00110377,-0.0
 0030939,0.00114409,-0.02793429,0.00130602,-0.00175156,0.00052063,-0.04
 754235,0.00048670,0.01129014,-0.01189183,-0.00014966,0.03492963,0.0002
 1444,0.00004367,0.00037168,-0.00047804,-0.00000502,0.00066527,-0.00002
 652,-0.00002872,-0.00001805,-0.00398488,0.00282413,-0.00196326,-0.0000
 9429,0.00035659,0.00061027,0.00013708,-0.00030950,0.00010929,-0.000147
 47,0.00029814,0.00078307,0.06428554,-0.00086990,-0.00016587,-0.0003101
 9,0.00165791,-0.00084362,0.01790974,-0.00096486,0.00143420,0.00062965,
 0.00119816,-0.05269754,0.00078475,-0.00607122,0.00139466,0.01610954,-0
 .00004889,-0.00006946,-0.00010291,-0.00005673,0.00027727,-0.00030034,0
 .00004139,0.00003805,-0.00010421,0.00226933,-0.00094555,0.00159756,0.0
 0062042,-0.00028335,-0.00035238,-0.00022655,0.00018717,-0.00019629,0.0
 0205437,0.00316749,-0.02911709,0.00219043,0.04989771,0.00056605,0.0002
 1138,0.00044478,0.00064431,-0.00066263,-0.01649828,0.00034322,-0.00059
 015,0.00211812,0.01576285,0.00331292,-0.29833672,0.00700997,0.00117612
 ,-0.00453238,-0.00019891,-0.00004211,0.00043773,-0.00084033,-0.0002744
 1,0.00050102,0.00000057,0.00011448,0.00002438,-0.00237344,0.00149345,0
 .00014110,-0.00075785,0.00119139,-0.00007979,0.00009995,0.00004749,0.0
 0034214,0.00015611,0.00097231,-0.00746161,-0.02090783,-0.00917950,0.32
 223278,0.00022189,0.00038728,0.00037902,-0.00001465,-0.00328892,-0.001
 45415,0.00162928,-0.00071568,0.00100560,-0.00239493,-0.03991625,-0.008
 15596,-0.03766508,0.05219153,0.03410858,0.00003721,0.00012719,-0.00002
 044,0.00006710,-0.00006242,-0.00008928,0.00034127,0.00041730,0.0000374
 7,-0.00015377,0.00030130,-0.00004531,-0.00021710,0.00001760,0.00021402
 ,0.00139060,0.00084409,-0.00046143,-0.00559145,-0.00261830,0.00162513,
 0.00057590,0.00047700,0.00033161,0.04402280,0.00029611,-0.00077701,-0.
 00018069,0.00195915,0.00029454,-0.00011274,0.00117136,-0.00002673,-0.0
 0030943,0.00085561,-0.01997316,-0.00188709,0.01239156,-0.40382687,-0.0
 7938050,0.00015592,0.00017605,-0.00001525,0.00004055,0.00001532,-0.000
 00945,-0.00018074,0.00004645,0.00006403,-0.00012609,0.00001904,-0.0001
 1523,0.00016004,0.00009495,-0.00008843,-0.00014405,0.00007723,0.000096
 77,-0.00289517,-0.00019267,0.00223501,-0.00008020,-0.00004819,0.000081
 26,-0.01550029,0.42489126,0.00005248,-0.00038315,0.00005180,0.00096134
 ,-0.00063045,0.00038880,-0.00006261,0.00001359,-0.00184585,-0.00485850
 ,0.00868560,0.00415007,0.02440952,-0.04421569,-0.06020765,0.00017027,0
 .00006344,-0.00003093,0.00009178,0.00006064,-0.00010551,-0.00008911,0.
 00004543,-0.00001980,-0.00031405,-0.00007816,-0.00034519,0.00134821,0.
 00028521,-0.00014318,-0.00040692,-0.00032775,-0.00011133,0.00229045,0.
 00156208,0.00057105,-0.00016391,0.00067914,-0.00040417,-0.02539367,0.0
 7547031,0.06513763,0.00009521,-0.00030989,-0.00054261,0.00094093,0.000
 26738,0.00275338,-0.00004075,0.00012865,-0.00074326,-0.01222500,0.0026
 5360,0.03728796,-0.03646005,-0.01387621,0.04416499,0.00012501,-0.00001
 388,-0.00017088,0.00025313,0.00012581,-0.00025818,-0.00001601,0.000010
 38,0.00006680,-0.00085140,0.00028822,-0.00116638,0.00023406,-0.0001096
 6,-0.00011925,-0.00003774,0.00003033,0.00003208,0.00133483,0.00004001,
 -0.00056010,-0.00368629,-0.00227086,0.00016372,-0.00224906,0.00189625,
 0.00196473,0.05258314,0.00001584,0.00013244,0.00020481,-0.00014735,-0.
 00011440,-0.00085302,0.00061766,-0.00050440,0.00079380,-0.00095252,0.0
 0226862,0.02063994,-0.01323029,-0.05747844,-0.02688920,-0.00005199,-0.
 00001093,-0.00003197,0.00004507,-0.00004989,-0.00004854,-0.00004598,-0
 .00008253,-0.00002644,0.00031673,0.00027177,-0.00007218,-0.00035045,-0
 .00021742,0.00007489,0.00027416,0.00012310,-0.00009485,0.00028110,-0.0
 0004564,0.00079927,-0.00525041,-0.00134297,0.00214800,0.00733856,-0.00
 077024,-0.04123022,0.01113988,0.05782093,-0.00037703,0.00004989,0.0001
 4672,-0.00136024,-0.00092138,0.00172165,0.00010869,-0.00007140,0.00010
 296,-0.00508786,0.00044802,-0.01021390,0.08863149,-0.05019132,-0.40724
 694,-0.00005487,-0.00003964,0.00002421,-0.00016280,0.00001079,-0.00001
 974,0.00002801,0.00001755,-0.00001525,0.00058339,-0.00036989,0.0001342
 4,-0.00016782,0.00003247,-0.00000987,0.00012945,0.00008200,-0.00005507
 ,-0.00012738,0.00026322,0.00078858,0.00281114,0.00195253,0.00107091,-0
 .00208117,0.00415144,-0.00708574,-0.08287300,0.04458572,0.42065723\\-0
 .00000033,0.00000097,0.00000034,-0.00000019,0.00000033,0.00000025,0.00
 000134,0.00000044,0.00000075,-0.00000010,-0.00000077,-0.00000086,-0.00
 000045,-0.00000135,-0.00000091,-0.00000024,0.00000189,0.00000092,0.000
 00004,0.00000077,0.00000050,-0.00000141,0.00000100,-0.00000004,-0.0000
 0047,0.00000061,0.00000012,0.00000147,-0.00000008,0.00000085,0.0000011
 8,0.00000083,0.00000121,-0.00000117,-0.00000068,-0.00000109,0.00000016
 ,-0.00000101,-0.00000061,0.00000076,-0.00000162,-0.00000049,-0.0000005
 9,-0.00000135,-0.00000093\\\@


            THE IRISH PIG
 'TWAS AN EVENING IN NOVEMBER,
 AS I VERY WELL REMEMBER
 I WAS STROLLING DOWN THE STREET IN DRUNKEN PRIDE,
 BUT MY KNEES WERE ALL A'FLUTTER
 SO I LANDED IN THE GUTTER,
 AND A PIG CAME UP AND LAY DOWN BY MY SIDE.

 YES, I LAY THERE IN THE GUTTER
 THINKING THOUGHTS I COULD NOT UTTER
 WHEN A COLLEEN PASSING BY DID SOFTLY SAY,
 'YE CAN TELL A MAN THAT BOOZES
 BY THE COMPANY THAT HE CHOOSES.' -
 AT THAT, THE PIG GOT UP AND WALKED AWAY!
     -- THE ECONOMIST, AUGUST 23, 1986
 File lengths (MBytes):  RWF=     19 Int=      0 D2E=      0 Chk=      2 Scr=      1
 Normal termination of Gaussian 16 at Fri Mar 29 15:38:20 2024.
real 231.51
user 866.67
sys 10.76
