 Entering Gaussian System, Link 0=g16
 Input=gaussian_test.inp
 Output=gaussian_test.log
 Initial command:
 /sw/restricted/lms/sw/Gaussian/g16_B01/g16/l1.exe "/scratch/user/peterchao1/peterchao1/7003931_1675700538000000435433071/Gau-76685.inp" -scrdir="/scratch/user/peterchao1/peterchao1/7003931_1675700538000000435433071/"
 Entering Link 1 = /sw/restricted/lms/sw/Gaussian/g16_B01/g16/l1.exe PID=     76686.
  
 Copyright (c) 1988-2017, Gaussian, Inc.  All Rights Reserved.
  
 This is part of the Gaussian(R) 16 program.  It is based on
 the Gaussian(R) 09 system (copyright 2009, Gaussian, Inc.),
 the Gaussian(R) 03 system (copyright 2003, Gaussian, Inc.),
 the Gaussian(R) 98 system (copyright 1998, Gaussian, Inc.),
 the Gaussian(R) 94 system (copyright 1995, Gaussian, Inc.),
 the Gaussian 92(TM) system (copyright 1992, Gaussian, Inc.),
 the Gaussian 90(TM) system (copyright 1990, Gaussian, Inc.),
 the Gaussian 88(TM) system (copyright 1988, Gaussian, Inc.),
 the Gaussian 86(TM) system (copyright 1986, Carnegie Mellon
 University), and the Gaussian 82(TM) system (copyright 1983,
 Carnegie Mellon University). Gaussian is a federally registered
 trademark of Gaussian, Inc.
  
 This software contains proprietary and confidential information,
 including trade secrets, belonging to Gaussian, Inc.
  
 This software is provided under written license and may be
 used, copied, transmitted, or stored only in accord with that
 written license.
  
 The following legend is applicable only to US Government
 contracts under FAR:
  
                    RESTRICTED RIGHTS LEGEND
  
 Use, reproduction and disclosure by the US Government is
 subject to restrictions as set forth in subparagraphs (a)
 and (c) of the Commercial Computer Software - Restricted
 Rights clause in FAR 52.227-19.
  
 Gaussian, Inc.
 340 Quinnipiac St., Bldg. 40, Wallingford CT 06492
  
  
 ---------------------------------------------------------------
 Warning -- This program may not be used in any manner that
 competes with the business of Gaussian, Inc. or will provide
 assistance to any competitor of Gaussian, Inc.  The licensee
 of this program is prohibited from giving any competitor of
 Gaussian, Inc. access to this program.  By using this program,
 the user acknowledges that Gaussian, Inc. is engaged in the
 business of creating and licensing software in the field of
 computational chemistry and represents and warrants to the
 licensee that it is not a competitor of Gaussian, Inc. and that
 it will not use this program in any manner prohibited above.
 ---------------------------------------------------------------
  

 Cite this work as:
 Gaussian 16, Revision B.01,
 M. J. Frisch, G. W. Trucks, H. B. Schlegel, G. E. Scuseria, 
 M. A. Robb, J. R. Cheeseman, G. Scalmani, V. Barone, 
 G. A. Petersson, H. Nakatsuji, X. Li, M. Caricato, A. V. Marenich, 
 J. Bloino, B. G. Janesko, R. Gomperts, B. Mennucci, H. P. Hratchian, 
 J. V. Ortiz, A. F. Izmaylov, J. L. Sonnenberg, D. Williams-Young, 
 F. Ding, F. Lipparini, F. Egidi, J. Goings, B. Peng, A. Petrone, 
 T. Henderson, D. Ranasinghe, V. G. Zakrzewski, J. Gao, N. Rega, 
 G. Zheng, W. Liang, M. Hada, M. Ehara, K. Toyota, R. Fukuda, 
 J. Hasegawa, M. Ishida, T. Nakajima, Y. Honda, O. Kitao, H. Nakai, 
 T. Vreven, K. Throssell, J. A. Montgomery, Jr., J. E. Peralta, 
 F. Ogliaro, M. J. Bearpark, J. J. Heyd, E. N. Brothers, K. N. Kudin, 
 V. N. Staroverov, T. A. Keith, R. Kobayashi, J. Normand, 
 K. Raghavachari, A. P. Rendell, J. C. Burant, S. S. Iyengar, 
 J. Tomasi, M. Cossi, J. M. Millam, M. Klene, C. Adamo, R. Cammi, 
 J. W. Ochterski, R. L. Martin, K. Morokuma, O. Farkas, 
 J. B. Foresman, and D. J. Fox, Gaussian, Inc., Wallingford CT, 2016.
 
 ******************************************
 Gaussian 16:  ES64L-G16RevB.01 20-Dec-2017
                 6-Feb-2023 
 ******************************************
 %nprocshared=4
 Will use up to    4 processors via shared memory.
 %mem=8000mb
 %chk=13.chk
 %nprocshared=4
 Will use up to    4 processors via shared memory.
 %mem=8000mb
 ----------------------------------------------------------------------
 #T wB97XD/def2svpp opt=tight freq int(grid=ultrafine) scf=(verytight,q
 c) Volume=tight
 ----------------------------------------------------------------------
 -------
 Monomer
 -------
 Symbolic Z-matrix:
 Charge =  0 Multiplicity = 1
 N                     0.21717   1.40108  -0.72582 
 C                     0.04072   0.71093   0.55284 
 C                    -1.30475  -0.02346   0.5848 
 O                    -1.49784  -0.86555  -0.51515 
 C                     1.21419  -0.27577   0.68185 
 O                     1.30235  -1.03981  -0.49529 
 H                     0.7065    2.28769  -0.62978 
 H                    -0.66519   1.5538   -1.20994 
 H                     0.05519   1.4033    1.41841 
 H                    -2.12728   0.71457   0.5732 
 H                    -1.37636  -0.5726    1.54849 
 H                    -0.67292  -1.36773  -0.64276 
 H                     1.06477  -0.96659   1.52842 
 H                     2.15645   0.28225   0.8652 
 H                     1.20165  -0.36968  -1.20397 
 

 GradGradGradGradGradGradGradGradGradGradGradGradGradGradGradGradGradGrad
 Initialization pass.
                           ----------------------------
                           !    Initial Parameters    !
                           ! (Angstroms and Degrees)  !
 --------------------------                            --------------------------
 ! Name  Definition              Value          Derivative Info.                !
 --------------------------------------------------------------------------------
 ! R1    R(1,2)                  1.4637         estimate D2E/DX2                !
 ! R2    R(1,7)                  1.0172         estimate D2E/DX2                !
 ! R3    R(1,8)                  1.018          estimate D2E/DX2                !
 ! R4    R(2,3)                  1.5332         estimate D2E/DX2                !
 ! R5    R(2,5)                  1.5386         estimate D2E/DX2                !
 ! R6    R(2,9)                  1.1085         estimate D2E/DX2                !
 ! R7    R(3,4)                  1.3987         estimate D2E/DX2                !
 ! R8    R(3,10)                 1.1052         estimate D2E/DX2                !
 ! R9    R(3,11)                 1.1115         estimate D2E/DX2                !
 ! R10   R(4,12)                 0.9742         estimate D2E/DX2                !
 ! R11   R(5,6)                  1.4061         estimate D2E/DX2                !
 ! R12   R(5,13)                 1.1028         estimate D2E/DX2                !
 ! R13   R(5,14)                 1.1103         estimate D2E/DX2                !
 ! R14   R(6,15)                 0.9805         estimate D2E/DX2                !
 ! A1    A(2,1,7)              112.7356         estimate D2E/DX2                !
 ! A2    A(2,1,8)              112.4391         estimate D2E/DX2                !
 ! A3    A(7,1,8)              109.3356         estimate D2E/DX2                !
 ! A4    A(1,2,3)              110.4783         estimate D2E/DX2                !
 ! A5    A(1,2,5)              106.4803         estimate D2E/DX2                !
 ! A6    A(1,2,9)              112.7088         estimate D2E/DX2                !
 ! A7    A(3,2,5)              111.1242         estimate D2E/DX2                !
 ! A8    A(3,2,9)              107.1192         estimate D2E/DX2                !
 ! A9    A(5,2,9)              108.9731         estimate D2E/DX2                !
 ! A10   A(2,3,4)              113.1501         estimate D2E/DX2                !
 ! A11   A(2,3,10)             109.4544         estimate D2E/DX2                !
 ! A12   A(2,3,11)             108.1357         estimate D2E/DX2                !
 ! A13   A(4,3,10)             106.921          estimate D2E/DX2                !
 ! A14   A(4,3,11)             112.0553         estimate D2E/DX2                !
 ! A15   A(10,3,11)            106.9231         estimate D2E/DX2                !
 ! A16   A(3,4,12)             107.2466         estimate D2E/DX2                !
 ! A17   A(2,5,6)              109.0317         estimate D2E/DX2                !
 ! A18   A(2,5,13)             111.2692         estimate D2E/DX2                !
 ! A19   A(2,5,14)             109.8034         estimate D2E/DX2                !
 ! A20   A(6,5,13)             108.1042         estimate D2E/DX2                !
 ! A21   A(6,5,14)             110.9838         estimate D2E/DX2                !
 ! A22   A(13,5,14)            107.6392         estimate D2E/DX2                !
 ! A23   A(5,6,15)             103.1353         estimate D2E/DX2                !
 ! D1    D(7,1,2,3)            144.3921         estimate D2E/DX2                !
 ! D2    D(7,1,2,5)            -94.8331         estimate D2E/DX2                !
 ! D3    D(7,1,2,9)             24.5964         estimate D2E/DX2                !
 ! D4    D(8,1,2,3)             20.2358         estimate D2E/DX2                !
 ! D5    D(8,1,2,5)            141.0106         estimate D2E/DX2                !
 ! D6    D(8,1,2,9)            -99.5599         estimate D2E/DX2                !
 ! D7    D(1,2,3,4)             52.5289         estimate D2E/DX2                !
 ! D8    D(1,2,3,10)           -66.5974         estimate D2E/DX2                !
 ! D9    D(1,2,3,11)           177.2638         estimate D2E/DX2                !
 ! D10   D(5,2,3,4)            -65.4354         estimate D2E/DX2                !
 ! D11   D(5,2,3,10)           175.4383         estimate D2E/DX2                !
 ! D12   D(5,2,3,11)            59.2995         estimate D2E/DX2                !
 ! D13   D(9,2,3,4)            175.637          estimate D2E/DX2                !
 ! D14   D(9,2,3,10)            56.5107         estimate D2E/DX2                !
 ! D15   D(9,2,3,11)           -59.6281         estimate D2E/DX2                !
 ! D16   D(1,2,5,6)            -50.6167         estimate D2E/DX2                !
 ! D17   D(1,2,5,13)          -169.7614         estimate D2E/DX2                !
 ! D18   D(1,2,5,14)            71.175          estimate D2E/DX2                !
 ! D19   D(3,2,5,6)             69.7426         estimate D2E/DX2                !
 ! D20   D(3,2,5,13)           -49.402          estimate D2E/DX2                !
 ! D21   D(3,2,5,14)          -168.4656         estimate D2E/DX2                !
 ! D22   D(9,2,5,6)           -172.4484         estimate D2E/DX2                !
 ! D23   D(9,2,5,13)            68.407          estimate D2E/DX2                !
 ! D24   D(9,2,5,14)           -50.6567         estimate D2E/DX2                !
 ! D25   D(2,3,4,12)            45.4993         estimate D2E/DX2                !
 ! D26   D(10,3,4,12)          166.0761         estimate D2E/DX2                !
 ! D27   D(11,3,4,12)          -77.0814         estimate D2E/DX2                !
 ! D28   D(2,5,6,15)            44.9686         estimate D2E/DX2                !
 ! D29   D(13,5,6,15)          166.0654         estimate D2E/DX2                !
 ! D30   D(14,5,6,15)          -76.1051         estimate D2E/DX2                !
 --------------------------------------------------------------------------------
 Number of steps in this run=     77 maximum allowed number of steps=    100.
 GradGradGradGradGradGradGradGradGradGradGradGradGradGradGradGradGradGrad

                    Distance matrix (angstroms):
                    1          2          3          4          5
     1  N    0.000000
     2  C    1.463702   0.000000
     3  C    2.462370   1.533176   0.000000
     4  O    2.850127   2.448068   1.398675   0.000000
     5  C    2.405697   1.538580   2.533400   3.022535   0.000000
     6  O    2.681175   2.399036   2.999424   2.805675   1.406125
     7  H    1.017226   2.080394   3.295713   3.849046   2.923940
     8  H    1.017969   2.077536   2.473432   2.651277   3.233921
     9  H    2.150337   1.108507   2.140087   3.361280   2.169109
    10  H    2.766803   2.168100   1.105154   2.019270   3.486827
    11  H    3.406945   2.155666   1.111484   2.087870   2.747749
    12  H    2.909546   2.501911   1.926966   0.974151   2.551102
    13  H    3.377263   2.194200   2.719296   3.279234   1.102838
    14  H    2.746618   2.181199   3.485965   4.071434   1.110337
    15  H    2.081683   2.366822   3.098646   2.829769   1.888194
                    6          7          8          9         10
     6  O    0.000000
     7  H    3.383104   0.000000
     8  H    3.332982   1.660339   0.000000
     9  H    3.344608   2.324094   2.729436   0.000000
    10  H    3.997732   3.457194   2.453895   2.439658   0.000000
    11  H    3.401593   4.155054   3.554760   2.443452   1.780979
    12  H    2.007723   3.907053   2.976088   3.529469   2.815970
    13  H    2.038923   3.921295   4.104120   2.578320   3.732018
    14  H    2.080440   2.891212   3.726217   2.445006   4.315377
    15  H    0.980532   2.763419   2.680468   3.366697   3.926281
                   11         12         13         14         15
    11  H    0.000000
    12  H    2.434884   0.000000
    13  H    2.472807   2.809715   0.000000
    14  H    3.698432   3.605779   1.786397   0.000000
    15  H    3.776688   2.196601   2.800177   2.370249   0.000000
 Framework group  C1[X(C3H9NO2)]
 Deg. of freedom    39
                         Standard orientation:                         
 ---------------------------------------------------------------------
 Center     Atomic      Atomic             Coordinates (Angstroms)
 Number     Number       Type             X           Y           Z
 ---------------------------------------------------------------------
      1          7           0        0.217168    1.401081   -0.725818
      2          6           0        0.040719    0.710928    0.552844
      3          6           0       -1.304751   -0.023455    0.584801
      4          8           0       -1.497838   -0.865545   -0.515151
      5          6           0        1.214185   -0.275764    0.681849
      6          8           0        1.302350   -1.039807   -0.495289
      7          1           0        0.706497    2.287694   -0.629775
      8          1           0       -0.665195    1.553803   -1.209939
      9          1           0        0.055192    1.403297    1.418409
     10          1           0       -2.127282    0.714564    0.573198
     11          1           0       -1.376363   -0.572604    1.548494
     12          1           0       -0.672915   -1.367729   -0.642761
     13          1           0        1.064773   -0.966593    1.528421
     14          1           0        2.156445    0.282248    0.865198
     15          1           0        1.201650   -0.369674   -1.203967
 ---------------------------------------------------------------------
 Rotational constants (GHZ):           4.2933096           3.2111608           2.6012018
   102 basis functions,   186 primitive gaussians,   108 cartesian basis functions
    25 alpha electrons       25 beta electrons
       nuclear repulsion energy       272.7294790927 Hartrees.
 NAtoms=   15 NActive=   15 NUniq=   15 SFac= 1.00D+00 NAtFMM=   60 NAOKFM=F Big=F
 Nuclear repulsion after empirical dispersion term =      272.7214211439 Hartrees.
   1 Symmetry operations used in ECPInt.
 ECPInt:  NShTT=    1485 NPrTT=    5991 LenC2=    1481 LenP2D=    4984.
 LDataN:  DoStor=T MaxTD1= 4 Len=   56
 ExpMin= 1.22D-01 ExpMax= 2.27D+03 ExpMxC= 3.41D+02 IAcc=3 IRadAn=         5 AccDes= 0.00D+00
 Harris functional with IExCor= 4639 and IRadAn=       5 diagonalized for initial guess.
 HarFok:  IExCor= 4639 AccDes= 0.00D+00 IRadAn=         5 IDoV= 1 UseB2=F ITyADJ=14
 ICtDFT=  3500011 ScaDFX=  1.000000  1.000000  1.000000  1.000000
 FoFCou: FMM=F IPFlag=           0 FMFlag=      100000 FMFlg1=           0
         NFxFlg=           0 DoJE=T BraDBF=F KetDBF=T FulRan=T
         wScrn=  0.000000 ICntrl=       500 IOpCl=  0 I1Cent=   200000004 NGrid=           0
         NMat0=    1 NMatS0=      1 NMatT0=    0 NMatD0=    1 NMtDS0=    0 NMtDT0=    0
 Petite list used in FoFCou.
     Minimum is close to point  3 DX=  3.22D-02 DF= -9.20D-05 DXR=  5.09D-02 DFR=  2.58D-03 which will be used.
     Accept linear search using points  2 and  3.
     Minimum is close to point  2 DX=  3.77D-03 DF= -2.25D-08 DXR=  5.35D-03 DFR=  2.86D-05 which will be used.
     Accept linear search using points  1 and  2.
     Minimum is close to point  2 DX=  2.01D-04 DF= -1.59D-12 DXR=  2.01D-04 DFR=  3.93D-08 which will be used.
 SCF Done:  E(RwB97XD) =  -324.547334888     a.u. after    7 cycles
            Convg  =    0.6736D-09                    33 Fock formations.
              S**2 =  0.0000                  -V/T =  2.0083

 **********************************************************************

            Population analysis using the SCF Density.

 **********************************************************************

 Orbital symmetries:
       Occupied  (A) (A) (A) (A) (A) (A) (A) (A) (A) (A) (A) (A)
                 (A) (A) (A) (A) (A) (A) (A) (A) (A) (A) (A) (A)
                 (A)
       Virtual   (A) (A) (A) (A) (A) (A) (A) (A) (A) (A) (A) (A)
                 (A) (A) (A) (A) (A) (A) (A) (A) (A) (A) (A) (A)
                 (A) (A) (A) (A) (A) (A) (A) (A) (A) (A) (A) (A)
                 (A) (A) (A) (A) (A) (A) (A) (A) (A) (A) (A) (A)
                 (A) (A) (A) (A) (A) (A) (A) (A) (A) (A) (A) (A)
                 (A) (A) (A) (A) (A) (A) (A) (A) (A) (A) (A) (A)
                 (A) (A) (A) (A) (A)
 The electronic state is 1-A.
 Alpha  occ. eigenvalues --  -19.24870 -19.23495 -14.43631 -10.33798 -10.33716
 Alpha  occ. eigenvalues --  -10.33119  -1.12288  -1.09781  -0.98631  -0.83607
 Alpha  occ. eigenvalues --   -0.76091  -0.68692  -0.61513  -0.60315  -0.57309
 Alpha  occ. eigenvalues --   -0.56485  -0.52781  -0.49262  -0.48981  -0.48455
 Alpha  occ. eigenvalues --   -0.42273  -0.41250  -0.35569  -0.35219  -0.33181
 Alpha virt. eigenvalues --    0.11976   0.16226   0.17489   0.18717   0.19023
 Alpha virt. eigenvalues --    0.20323   0.23140   0.23382   0.24872   0.27406
 Alpha virt. eigenvalues --    0.29449   0.29922   0.33562   0.36286   0.54528
 Alpha virt. eigenvalues --    0.54792   0.56985   0.58163   0.62622   0.63696
 Alpha virt. eigenvalues --    0.67754   0.69392   0.71602   0.72635   0.74080
 Alpha virt. eigenvalues --    0.75067   0.76253   0.77255   0.78268   0.80185
 Alpha virt. eigenvalues --    0.81670   0.84321   0.85848   0.92055   0.96844
 Alpha virt. eigenvalues --    0.99462   1.07248   1.09818   1.13299   1.18053
 Alpha virt. eigenvalues --    1.21636   1.27905   1.30280   1.34312   1.40601
 Alpha virt. eigenvalues --    1.52122   1.59999   1.66095   1.69666   1.82442
 Alpha virt. eigenvalues --    1.88388   1.90313   1.92296   1.98637   2.07892
 Alpha virt. eigenvalues --    2.15291   2.16833   2.17753   2.22121   2.33624
 Alpha virt. eigenvalues --    2.43094   2.46542   2.53398   2.63893   2.68757
 Alpha virt. eigenvalues --    2.75106   2.78932   2.79457   2.94953   2.95994
 Alpha virt. eigenvalues --    3.02643   3.04790   3.07858   3.08690   3.12855
 Alpha virt. eigenvalues --    3.45829   3.47713
          Condensed to atoms (all electrons):
 Mulliken charges:
               1
     1  N   -0.531847
     2  C   -0.168371
     3  C    0.044016
     4  O   -0.507931
     5  C    0.057460
     6  O   -0.511173
     7  H    0.233832
     8  H    0.244005
     9  H    0.095826
    10  H    0.102066
    11  H    0.092521
    12  H    0.318717
    13  H    0.108547
    14  H    0.094064
    15  H    0.328267
 Sum of Mulliken charges =   0.00000
 Mulliken charges with hydrogens summed into heavy atoms:
               1
     1  N   -0.054010
     2  C   -0.072544
     3  C    0.238603
     4  O   -0.189214
     5  C    0.260072
     6  O   -0.182906
 Electronic spatial extent (au):  <R**2>=            574.1173
 Charge=              0.0000 electrons
 Dipole moment (field-independent basis, Debye):
    X=              0.5714    Y=              3.0806    Z=              1.3056  Tot=              3.3943
 Evaluate density.
 Using the total density.
 Monte-Carlo method of calculating molar volume:
 based on  0.001 e/bohr**3 density envelope.
 Number of points per bohr**3 =  100 CutOff= 1.00D-04
 Using the SCF density.
 There are      1581 points.  Will hold      1581 in memory.
 LenV=  1048387789 MDV=  1048576000.
 Box volume = 3952.958 fraction occupied=0.217
 Integrated density= 4.4654841757506972D+01 error=-5.3451582424930280D+00
 Molar volume =  857.599 bohr**3/mol ( 76.531 cm**3/mol)
 Recommended a0 for SCRF calculation =  3.93 angstrom (  7.43 bohr)
   1 Symmetry operations used in ECPInt.
 ECPInt:  NShTT=    1485 NPrTT=    5991 LenC2=    1481 LenP2D=    4984.
 LDataN:  DoStor=T MaxTD1= 5 Len=  102
 Calling FoFJK, ICntrl=      2127 FMM=F ISym2X=0 I1Cent= 0 IOpClX= 0 NMat=1 NMatS=1 NMatT=0.

 GradGradGradGradGradGradGradGradGradGradGradGradGradGradGradGradGradGrad
 FormGI is forming the generalized inverse of G from B-inverse, IUseBI=4.
 Internal  Forces:  Max     0.000002583 RMS     0.000000653
 Step number   1 out of a maximum of   77
 All quantities printed in internal units (Hartrees-Bohrs-Radians)
 Mixed Optimization -- En-DIIS/RFO-DIIS
 Second derivative matrix not updated -- first step.
 ITU=  0
     Eigenvalues ---    0.00256   0.00327   0.00849   0.01611   0.01709
     Eigenvalues ---    0.03588   0.04393   0.04757   0.04766   0.05135
     Eigenvalues ---    0.05652   0.05714   0.05936   0.11392   0.11726
     Eigenvalues ---    0.13749   0.14048   0.16000   0.16000   0.16000
     Eigenvalues ---    0.16000   0.16182   0.17413   0.21973   0.22038
     Eigenvalues ---    0.28645   0.29132   0.32443   0.32564   0.32759
     Eigenvalues ---    0.33119   0.33370   0.36505   0.44620   0.44664
     Eigenvalues ---    0.44784   0.45841   0.51282   0.52538
 Linear search not attempted -- first point.
 Iteration  1 RMS(Cart)=  0.00004192 RMS(Int)=  0.00000000
 Iteration  2 RMS(Cart)=  0.00000000 RMS(Int)=  0.00000000
 Variable       Old X    -DE/DX   Delta X   Delta X   Delta X     New X
                                 (Linear)    (Quad)   (Total)
    R1        2.76600   0.00000   0.00000   0.00001   0.00001   2.76600
    R2        1.92228   0.00000   0.00000   0.00000   0.00000   1.92228
    R3        1.92368   0.00000   0.00000   0.00000   0.00000   1.92368
    R4        2.89728   0.00000   0.00000   0.00000   0.00000   2.89728
    R5        2.90749   0.00000   0.00000   0.00000   0.00000   2.90750
    R6        2.09477  -0.00000   0.00000  -0.00000  -0.00000   2.09477
    R7        2.64311  -0.00000   0.00000  -0.00000  -0.00000   2.64311
    R8        2.08844   0.00000   0.00000   0.00000   0.00000   2.08844
    R9        2.10040   0.00000   0.00000   0.00000   0.00000   2.10040
   R10        1.84088  -0.00000   0.00000  -0.00000  -0.00000   1.84088
   R11        2.65719   0.00000   0.00000   0.00000   0.00000   2.65719
   R12        2.08406   0.00000   0.00000   0.00000   0.00000   2.08406
   R13        2.09823   0.00000   0.00000   0.00000   0.00000   2.09823
   R14        1.85294   0.00000   0.00000   0.00000   0.00000   1.85294
    A1        1.96761  -0.00000   0.00000  -0.00000  -0.00000   1.96760
    A2        1.96243   0.00000   0.00000   0.00000   0.00000   1.96243
    A3        1.90827  -0.00000   0.00000  -0.00001  -0.00001   1.90826
    A4        1.92821  -0.00000   0.00000   0.00000   0.00000   1.92821
    A5        1.85843  -0.00000   0.00000   0.00000   0.00000   1.85843
    A6        1.96714   0.00000   0.00000  -0.00000  -0.00000   1.96714
    A7        1.93948   0.00000   0.00000   0.00001   0.00001   1.93949
    A8        1.86958  -0.00000   0.00000  -0.00000  -0.00000   1.86958
    A9        1.90194  -0.00000   0.00000  -0.00000  -0.00000   1.90194
   A10        1.97484  -0.00000   0.00000  -0.00000  -0.00000   1.97484
   A11        1.91034   0.00000   0.00000  -0.00000  -0.00000   1.91034
   A12        1.88732   0.00000   0.00000   0.00000   0.00000   1.88733
   A13        1.86612  -0.00000   0.00000  -0.00001  -0.00001   1.86612
   A14        1.95573   0.00000   0.00000   0.00001   0.00001   1.95574
   A15        1.86616  -0.00000   0.00000   0.00000   0.00000   1.86616
   A16        1.87181  -0.00000   0.00000  -0.00001  -0.00001   1.87180
   A17        1.90296   0.00000   0.00000   0.00000   0.00000   1.90297
   A18        1.94201  -0.00000   0.00000  -0.00000  -0.00000   1.94201
   A19        1.91643  -0.00000   0.00000  -0.00000  -0.00000   1.91643
   A20        1.88677   0.00000   0.00000   0.00001   0.00001   1.88678
   A21        1.93703  -0.00000   0.00000  -0.00000  -0.00000   1.93703
   A22        1.87866   0.00000   0.00000  -0.00000  -0.00000   1.87866
   A23        1.80005   0.00000   0.00000   0.00001   0.00001   1.80006
    D1        2.52012  -0.00000   0.00000  -0.00001  -0.00001   2.52011
    D2       -1.65515   0.00000   0.00000  -0.00000  -0.00000  -1.65515
    D3        0.42929  -0.00000   0.00000  -0.00001  -0.00001   0.42928
    D4        0.35318  -0.00000   0.00000  -0.00000  -0.00000   0.35318
    D5        2.46110   0.00000   0.00000   0.00000   0.00000   2.46110
    D6       -1.73765   0.00000   0.00000   0.00000   0.00000  -1.73765
    D7        0.91680  -0.00000   0.00000  -0.00006  -0.00006   0.91675
    D8       -1.16234   0.00000   0.00000  -0.00005  -0.00005  -1.16239
    D9        3.09384  -0.00000   0.00000  -0.00005  -0.00005   3.09379
   D10       -1.14206  -0.00000   0.00000  -0.00006  -0.00006  -1.14212
   D11        3.06198   0.00000   0.00000  -0.00005  -0.00005   3.06192
   D12        1.03497  -0.00000   0.00000  -0.00005  -0.00005   1.03492
   D13        3.06544  -0.00000   0.00000  -0.00006  -0.00006   3.06538
   D14        0.98630  -0.00000   0.00000  -0.00005  -0.00005   0.98625
   D15       -1.04071  -0.00000   0.00000  -0.00005  -0.00005  -1.04076
   D16       -0.88343   0.00000   0.00000  -0.00003  -0.00003  -0.88346
   D17       -2.96289  -0.00000   0.00000  -0.00004  -0.00004  -2.96294
   D18        1.24224  -0.00000   0.00000  -0.00004  -0.00004   1.24220
   D19        1.21724   0.00000   0.00000  -0.00003  -0.00003   1.21721
   D20       -0.86223  -0.00000   0.00000  -0.00004  -0.00004  -0.86227
   D21       -2.94028  -0.00000   0.00000  -0.00003  -0.00003  -2.94031
   D22       -3.00979   0.00000   0.00000  -0.00003  -0.00003  -3.00982
   D23        1.19393  -0.00000   0.00000  -0.00004  -0.00004   1.19389
   D24       -0.88413  -0.00000   0.00000  -0.00003  -0.00003  -0.88416
   D25        0.79411  -0.00000   0.00000  -0.00002  -0.00002   0.79410
   D26        2.89857  -0.00000   0.00000  -0.00002  -0.00002   2.89855
   D27       -1.34532  -0.00000   0.00000  -0.00002  -0.00002  -1.34535
   D28        0.78485  -0.00000   0.00000  -0.00001  -0.00001   0.78484
   D29        2.89839  -0.00000   0.00000  -0.00001  -0.00001   2.89838
   D30       -1.32829  -0.00000   0.00000  -0.00001  -0.00001  -1.32830
         Item               Value     Threshold  Converged?
 Maximum Force            0.000003     0.000015     YES
 RMS     Force            0.000001     0.000010     YES
 Maximum Displacement     0.000148     0.000060     NO 
 RMS     Displacement     0.000042     0.000040     NO 
 GradGradGradGradGradGradGradGradGradGradGradGradGradGradGradGradGradGrad

                    Distance matrix (angstroms):
                    1          2          3          4          5
     1  N    0.000000
     2  C    1.463705   0.000000
     3  C    2.462374   1.533177   0.000000
     4  O    2.850098   2.448065   1.398673   0.000000
     5  C    2.405703   1.538582   2.533408   3.022574   0.000000
     6  O    2.681201   2.399040   2.999420   2.805705   1.406126
     7  H    1.017227   2.080396   3.295714   3.849015   2.923945
     8  H    1.017970   2.077541   2.473439   2.651227   3.233929
     9  H    2.150339   1.108507   2.140085   3.361273   2.169109
    10  H    2.766827   2.168099   1.105154   2.019264   3.486830
    11  H    3.406950   2.155669   1.111485   2.087872   2.747735
    12  H    2.909480   2.501896   1.926959   0.974150   2.551146
    13  H    3.377271   2.194200   2.719319   3.279321   1.102838
    14  H    2.746603   2.181200   3.485974   4.071459   1.110338
    15  H    2.081718   2.366833   3.098628   2.829738   1.888205
                    6          7          8          9         10
     6  O    0.000000
     7  H    3.383139   0.000000
     8  H    3.333006   1.660337   0.000000
     9  H    3.344612   2.324092   2.729439   0.000000
    10  H    3.997746   3.457205   2.453935   2.439635   0.000000
    11  H    3.401543   4.155063   3.554771   2.443474   1.780980
    12  H    2.007735   3.906994   2.975997   3.529464   2.815960
    13  H    2.038929   3.921292   4.104136   2.578303   3.732021
    14  H    2.080438   2.891198   3.726205   2.445017   4.315378
    15  H    0.980533   2.763476   2.680487   3.366718   3.926293
                   11         12         13         14         15
    11  H    0.000000
    12  H    2.434891   0.000000
    13  H    2.472802   2.809836   0.000000
    14  H    3.698438   3.605803   1.786397   0.000000
    15  H    3.776638   2.196514   2.800188   2.370261   0.000000
 Framework group  C1[X(C3H9NO2)]
 Deg. of freedom    39
                         Standard orientation:                         
 ---------------------------------------------------------------------
 Center     Atomic      Atomic             Coordinates (Angstroms)
 Number     Number       Type             X           Y           Z
 ---------------------------------------------------------------------
      1          7           0        0.217131    1.401080   -0.725824
      2          6           0        0.040699    0.710925    0.552843
      3          6           0       -1.304748   -0.023502    0.584800
      4          8           0       -1.497832   -0.865546   -0.515185
      5          6           0        1.214204   -0.275722    0.681863
      6          8           0        1.302385   -1.039800   -0.495252
      7          1           0        0.706422    2.287715   -0.629779
      8          1           0       -0.665235    1.553769   -1.209952
      9          1           0        0.055143    1.403300    1.418403
     10          1           0       -2.127301    0.714494    0.573241
     11          1           0       -1.376326   -0.572692    1.548473
     12          1           0       -0.672890   -1.367683   -0.642842
     13          1           0        1.064831   -0.966523    1.528465
     14          1           0        2.156447    0.282332    0.865177
     15          1           0        1.201639   -0.369705   -1.203960
 ---------------------------------------------------------------------
 Rotational constants (GHZ):           4.2933207           3.2111217           2.6011934
   102 basis functions,   186 primitive gaussians,   108 cartesian basis functions
    25 alpha electrons       25 beta electrons
       nuclear repulsion energy       272.7290918333 Hartrees.
 NAtoms=   15 NActive=   15 NUniq=   15 SFac= 1.00D+00 NAtFMM=   60 NAOKFM=F Big=F
 Nuclear repulsion after empirical dispersion term =      272.7210339010 Hartrees.
   1 Symmetry operations used in ECPInt.
 ECPInt:  NShTT=    1485 NPrTT=    5991 LenC2=    1481 LenP2D=    4984.
 LDataN:  DoStor=T MaxTD1= 4 Len=   56
 Initial guess from the checkpoint file:  "13.chk"
 B after Tr=    -0.000000    0.000000   -0.000000
         Rot=    1.000000    0.000001    0.000004   -0.000011 Ang=   0.00 deg.
 SCF Done:  E(RwB97XD) =  -324.547334887     a.u. after    2 cycles
            Convg  =    0.1251D-07                     9 Fock formations.
              S**2 =  0.0000                  -V/T =  2.0083
   1 Symmetry operations used in ECPInt.
 ECPInt:  NShTT=    1485 NPrTT=    5991 LenC2=    1481 LenP2D=    4984.
 LDataN:  DoStor=T MaxTD1= 5 Len=  102
 Calling FoFJK, ICntrl=      2127 FMM=F ISym2X=0 I1Cent= 0 IOpClX= 0 NMat=1 NMatS=1 NMatT=0.

 GradGradGradGradGradGradGradGradGradGradGradGradGradGradGradGradGradGrad
 Using GEDIIS/GDIIS optimizer.
 FormGI is forming the generalized inverse of G from B-inverse, IUseBI=4.
 Internal  Forces:  Max     0.000001984 RMS     0.000000834
 Step number   2 out of a maximum of   77
 All quantities printed in internal units (Hartrees-Bohrs-Radians)
 Mixed Optimization -- En-DIIS/RFO-DIIS
 Swapping is turned off.
 Trust test=-1.86D+00 RLast= 2.01D-04 DXMaxT set to 1.50D-01
 ITU= -1  0
     Eigenvalues ---    0.00264   0.00705   0.00860   0.01636   0.02929
     Eigenvalues ---    0.03479   0.04469   0.04601   0.04774   0.05254
     Eigenvalues ---    0.05655   0.05867   0.06069   0.11349   0.11726
     Eigenvalues ---    0.12879   0.14182   0.15347   0.16000   0.16000
     Eigenvalues ---    0.16170   0.16466   0.17680   0.22010   0.22803
     Eigenvalues ---    0.28952   0.29484   0.32431   0.32487   0.32758
     Eigenvalues ---    0.33116   0.33345   0.34940   0.44126   0.44636
     Eigenvalues ---    0.44734   0.45219   0.51036   0.52242
 En-DIIS/RFO-DIIS/Sim-DIIS IScMMF=       -3 using points:     2    1
 RFO step:  Lambda=-3.07438144D-10.
 DIIS inversion failure, remove point   2.
 Use linear search instead of GDIIS.
 Quartic linear search produced a step of -0.75440.
 Iteration  1 RMS(Cart)=  0.00004347 RMS(Int)=  0.00000000
 Iteration  2 RMS(Cart)=  0.00000000 RMS(Int)=  0.00000000
 Variable       Old X    -DE/DX   Delta X   Delta X   Delta X     New X
                                 (Linear)    (Quad)   (Total)
    R1        2.76600  -0.00000  -0.00001   0.00001   0.00000   2.76601
    R2        1.92228   0.00000  -0.00000   0.00000   0.00000   1.92228
    R3        1.92368   0.00000  -0.00000   0.00000   0.00000   1.92369
    R4        2.89728   0.00000  -0.00000   0.00000   0.00000   2.89729
    R5        2.90750  -0.00000  -0.00000   0.00000   0.00000   2.90750
    R6        2.09477   0.00000   0.00000  -0.00000  -0.00000   2.09477
    R7        2.64311   0.00000   0.00000  -0.00001  -0.00000   2.64311
    R8        2.08844   0.00000  -0.00000   0.00000   0.00000   2.08844
    R9        2.10040  -0.00000  -0.00000   0.00000   0.00000   2.10040
   R10        1.84088  -0.00000   0.00000  -0.00000  -0.00000   1.84088
   R11        2.65719  -0.00000  -0.00000   0.00000   0.00000   2.65719
   R12        2.08406  -0.00000  -0.00000   0.00000   0.00000   2.08406
   R13        2.09823  -0.00000  -0.00000   0.00000   0.00000   2.09824
   R14        1.85294  -0.00000  -0.00000   0.00000   0.00000   1.85294
    A1        1.96760  -0.00000   0.00000  -0.00000  -0.00000   1.96760
    A2        1.96243  -0.00000  -0.00000   0.00000  -0.00000   1.96243
    A3        1.90826   0.00000   0.00000  -0.00001  -0.00000   1.90826
    A4        1.92821  -0.00000  -0.00000  -0.00000  -0.00000   1.92821
    A5        1.85843  -0.00000  -0.00000  -0.00000  -0.00000   1.85843
    A6        1.96714   0.00000   0.00000  -0.00000   0.00000   1.96714
    A7        1.93949   0.00000  -0.00000   0.00001   0.00000   1.93949
    A8        1.86958  -0.00000   0.00000  -0.00001  -0.00000   1.86958
    A9        1.90194   0.00000   0.00000  -0.00000   0.00000   1.90194
   A10        1.97484   0.00000   0.00000  -0.00000  -0.00000   1.97484
   A11        1.91034  -0.00000   0.00000  -0.00000  -0.00000   1.91034
   A12        1.88733   0.00000  -0.00000   0.00000   0.00000   1.88733
   A13        1.86612   0.00000   0.00000  -0.00000  -0.00000   1.86612
   A14        1.95574  -0.00000  -0.00000   0.00000   0.00000   1.95574
   A15        1.86616   0.00000  -0.00000   0.00000   0.00000   1.86616
   A16        1.87180  -0.00000   0.00000  -0.00001  -0.00000   1.87180
   A17        1.90297  -0.00000  -0.00000   0.00000   0.00000   1.90297
   A18        1.94201  -0.00000   0.00000  -0.00000  -0.00000   1.94201
   A19        1.91643   0.00000   0.00000  -0.00000  -0.00000   1.91643
   A20        1.88678   0.00000  -0.00001   0.00001   0.00001   1.88679
   A21        1.93703  -0.00000   0.00000  -0.00001  -0.00001   1.93702
   A22        1.87866   0.00000   0.00000  -0.00000  -0.00000   1.87866
   A23        1.80006  -0.00000  -0.00001   0.00002   0.00001   1.80007
    D1        2.52011  -0.00000   0.00001  -0.00001  -0.00000   2.52010
    D2       -1.65515   0.00000   0.00000  -0.00000  -0.00000  -1.65515
    D3        0.42928   0.00000   0.00001  -0.00000   0.00000   0.42928
    D4        0.35318   0.00000   0.00000  -0.00000   0.00000   0.35318
    D5        2.46110   0.00000  -0.00000   0.00001   0.00001   2.46111
    D6       -1.73765   0.00000  -0.00000   0.00001   0.00001  -1.73764
    D7        0.91675   0.00000   0.00004  -0.00002   0.00003   0.91677
    D8       -1.16239  -0.00000   0.00004  -0.00001   0.00003  -1.16236
    D9        3.09379   0.00000   0.00004  -0.00001   0.00003   3.09382
   D10       -1.14212   0.00000   0.00005  -0.00002   0.00002  -1.14210
   D11        3.06192   0.00000   0.00004  -0.00001   0.00003   3.06195
   D12        1.03492   0.00000   0.00004  -0.00001   0.00003   1.03494
   D13        3.06538   0.00000   0.00005  -0.00002   0.00002   3.06541
   D14        0.98625   0.00000   0.00004  -0.00001   0.00003   0.98627
   D15       -1.04076   0.00000   0.00004  -0.00002   0.00002  -1.04074
   D16       -0.88346   0.00000   0.00002   0.00004   0.00007  -0.88339
   D17       -2.96294   0.00000   0.00003   0.00003   0.00006  -2.96288
   D18        1.24220   0.00000   0.00003   0.00003   0.00006   1.24226
   D19        1.21721   0.00000   0.00002   0.00005   0.00007   1.21728
   D20       -0.86227   0.00000   0.00003   0.00003   0.00006  -0.86220
   D21       -2.94031   0.00000   0.00002   0.00004   0.00006  -2.94025
   D22       -3.00982   0.00000   0.00002   0.00005   0.00007  -3.00975
   D23        1.19389   0.00000   0.00003   0.00003   0.00006   1.19395
   D24       -0.88416   0.00000   0.00003   0.00004   0.00006  -0.88410
   D25        0.79410   0.00000   0.00001  -0.00000   0.00001   0.79410
   D26        2.89855   0.00000   0.00002  -0.00001   0.00001   2.89856
   D27       -1.34535   0.00000   0.00002  -0.00001   0.00001  -1.34534
   D28        0.78484   0.00000   0.00001   0.00000   0.00001   0.78485
   D29        2.89838   0.00000   0.00001   0.00001   0.00002   2.89839
   D30       -1.32830   0.00000   0.00001   0.00001   0.00002  -1.32828
         Item               Value     Threshold  Converged?
 Maximum Force            0.000002     0.000015     YES
 RMS     Force            0.000001     0.000010     YES
 Maximum Displacement     0.000145     0.000060     NO 
 RMS     Displacement     0.000043     0.000040     NO 
 GradGradGradGradGradGradGradGradGradGradGradGradGradGradGradGradGradGrad

                    Distance matrix (angstroms):
                    1          2          3          4          5
     1  N    0.000000
     2  C    1.463707   0.000000
     3  C    2.462376   1.533178   0.000000
     4  O    2.850110   2.448064   1.398671   0.000000
     5  C    2.405703   1.538582   2.533412   3.022564   0.000000
     6  O    2.681164   2.399041   2.999466   2.805749   1.406126
     7  H    1.017228   2.080397   3.295714   3.849027   2.923945
     8  H    1.017971   2.077543   2.473440   2.651250   3.233931
     9  H    2.150341   1.108507   2.140083   3.361271   2.169109
    10  H    2.766814   2.168098   1.105154   2.019262   3.486833
    11  H    3.406954   2.155672   1.111485   2.087871   2.747755
    12  H    2.909504   2.501894   1.926955   0.974149   2.551129
    13  H    3.377267   2.194200   2.719298   3.279257   1.102839
    14  H    2.746635   2.181200   3.485972   4.071463   1.110338
    15  H    2.081682   2.366844   3.098705   2.829850   1.888210
                    6          7          8          9         10
     6  O    0.000000
     7  H    3.383085   0.000000
     8  H    3.332987   1.660336   0.000000
     9  H    3.344609   2.324092   2.729439   0.000000
    10  H    3.997774   3.457192   2.453914   2.439640   0.000000
    11  H    3.401628   4.155061   3.554772   2.443465   1.780980
    12  H    2.007794   3.907017   2.976036   3.529456   2.815957
    13  H    2.038934   3.921302   4.104125   2.578326   3.732013
    14  H    2.080435   2.891228   3.726236   2.444996   4.315375
    15  H    0.980534   2.763402   2.680487   3.366708   3.926342
                   11         12         13         14         15
    11  H    0.000000
    12  H    2.434884   0.000000
    13  H    2.472802   2.809746   0.000000
    14  H    3.698431   3.605809   1.786397   0.000000
    15  H    3.776738   2.196663   2.800197   2.370256   0.000000
 Framework group  C1[X(C3H9NO2)]
 Deg. of freedom    39
                         Standard orientation:                         
 ---------------------------------------------------------------------
 Center     Atomic      Atomic             Coordinates (Angstroms)
 Number     Number       Type             X           Y           Z
 ---------------------------------------------------------------------
      1          7           0        0.217138    1.401064   -0.725832
      2          6           0        0.040704    0.710917    0.552842
      3          6           0       -1.304758   -0.023482    0.584814
      4          8           0       -1.497854   -0.865550   -0.515148
      5          6           0        1.214195   -0.275748    0.681856
      6          8           0        1.302410   -1.039771   -0.495292
      7          1           0        0.706445    2.287691   -0.629793
      8          1           0       -0.665230    1.553770   -1.209952
      9          1           0        0.055166    1.403297    1.418398
     10          1           0       -2.127295    0.714532    0.573230
     11          1           0       -1.376353   -0.572645    1.548501
     12          1           0       -0.672923   -1.367710   -0.642781
     13          1           0        1.064786   -0.966582    1.528425
     14          1           0        2.156438    0.282288    0.865225
     15          1           0        1.201709   -0.369642   -1.203976
 ---------------------------------------------------------------------
 Rotational constants (GHZ):           4.2933630           3.2110678           2.6011821
   102 basis functions,   186 primitive gaussians,   108 cartesian basis functions
    25 alpha electrons       25 beta electrons
       nuclear repulsion energy       272.7287167257 Hartrees.
 NAtoms=   15 NActive=   15 NUniq=   15 SFac= 1.00D+00 NAtFMM=   60 NAOKFM=F Big=F
 Nuclear repulsion after empirical dispersion term =      272.7206587605 Hartrees.
   1 Symmetry operations used in ECPInt.
 ECPInt:  NShTT=    1485 NPrTT=    5991 LenC2=    1481 LenP2D=    4984.
 LDataN:  DoStor=T MaxTD1= 4 Len=   56
 Lowest energy guess from the checkpoint file:  "13.chk"
 B after Tr=     0.000000   -0.000000   -0.000000
         Rot=    1.000000    0.000000   -0.000001   -0.000009 Ang=   0.00 deg.
 B after Tr=     0.000000   -0.000000    0.000000
         Rot=    1.000000   -0.000001   -0.000004    0.000002 Ang=  -0.00 deg.
 SCF Done:  E(RwB97XD) =  -324.547334887     a.u. after    2 cycles
            Convg  =    0.8768D-08                     9 Fock formations.
              S**2 =  0.0000                  -V/T =  2.0083
   1 Symmetry operations used in ECPInt.
 ECPInt:  NShTT=    1485 NPrTT=    5991 LenC2=    1481 LenP2D=    4984.
 LDataN:  DoStor=T MaxTD1= 5 Len=  102
 Calling FoFJK, ICntrl=      2127 FMM=F ISym2X=0 I1Cent= 0 IOpClX= 0 NMat=1 NMatS=1 NMatT=0.

 GradGradGradGradGradGradGradGradGradGradGradGradGradGradGradGradGradGrad
 Using GEDIIS/GDIIS optimizer.
 FormGI is forming the generalized inverse of G from B-inverse, IUseBI=4.
 Internal  Forces:  Max     0.000002692 RMS     0.000001142
 Step number   3 out of a maximum of   77
 All quantities printed in internal units (Hartrees-Bohrs-Radians)
 Mixed Optimization -- En-DIIS/RFO-DIIS
 Swapping is turned off.
 Trust test= 3.07D-01 RLast= 2.11D-04 DXMaxT set to 1.50D-01
 ITU=  0 -1  0
     Eigenvalues ---    0.00478   0.00747   0.00879   0.01675   0.03122
     Eigenvalues ---    0.03362   0.04455   0.04712   0.05200   0.05632
     Eigenvalues ---    0.05846   0.06019   0.06491   0.11221   0.11694
     Eigenvalues ---    0.13654   0.14081   0.15605   0.16000   0.16116
     Eigenvalues ---    0.16179   0.16654   0.18448   0.22744   0.25982
     Eigenvalues ---    0.29466   0.31458   0.32013   0.32459   0.32756
     Eigenvalues ---    0.33080   0.33296   0.33670   0.43671   0.44725
     Eigenvalues ---    0.45008   0.46835   0.51464   0.52144
 En-DIIS/RFO-DIIS/Sim-DIIS IScMMF=       -3 using points:     3    2    1
 RFO step:  Lambda=-2.93028250D-10.
 DIIS inversion failure, remove point   3.
 DIIS inversion failure, remove point   2.
 Use linear search instead of GDIIS.
 Quartic linear search produced a step of -0.40678.
 Iteration  1 RMS(Cart)=  0.00002416 RMS(Int)=  0.00000000
 Iteration  2 RMS(Cart)=  0.00000000 RMS(Int)=  0.00000000
 Variable       Old X    -DE/DX   Delta X   Delta X   Delta X     New X
                                 (Linear)    (Quad)   (Total)
    R1        2.76601  -0.00000  -0.00000  -0.00000  -0.00000   2.76600
    R2        1.92228  -0.00000  -0.00000  -0.00000  -0.00000   1.92228
    R3        1.92369  -0.00000  -0.00000  -0.00000  -0.00000   1.92369
    R4        2.89729  -0.00000  -0.00000  -0.00000  -0.00000   2.89728
    R5        2.90750  -0.00000  -0.00000  -0.00000  -0.00000   2.90750
    R6        2.09477  -0.00000   0.00000   0.00000   0.00000   2.09477
    R7        2.64311   0.00000   0.00000   0.00000   0.00000   2.64311
    R8        2.08844   0.00000  -0.00000   0.00000  -0.00000   2.08844
    R9        2.10040  -0.00000  -0.00000  -0.00000  -0.00000   2.10040
   R10        1.84088   0.00000   0.00000   0.00000   0.00000   1.84088
   R11        2.65719  -0.00000  -0.00000  -0.00000  -0.00000   2.65719
   R12        2.08406  -0.00000  -0.00000  -0.00000  -0.00000   2.08406
   R13        2.09824  -0.00000  -0.00000  -0.00000  -0.00000   2.09823
   R14        1.85294  -0.00000  -0.00000  -0.00000  -0.00000   1.85294
    A1        1.96760  -0.00000   0.00000  -0.00000   0.00000   1.96760
    A2        1.96243  -0.00000   0.00000  -0.00000  -0.00000   1.96243
    A3        1.90826   0.00000   0.00000   0.00000   0.00000   1.90826
    A4        1.92821   0.00000   0.00000  -0.00000  -0.00000   1.92821
    A5        1.85843   0.00000   0.00000  -0.00000  -0.00000   1.85843
    A6        1.96714  -0.00000  -0.00000   0.00000   0.00000   1.96714
    A7        1.93949  -0.00000  -0.00000  -0.00000  -0.00001   1.93949
    A8        1.86958   0.00000   0.00000   0.00000   0.00000   1.86958
    A9        1.90194   0.00000  -0.00000   0.00000   0.00000   1.90194
   A10        1.97484  -0.00000   0.00000  -0.00000  -0.00000   1.97484
   A11        1.91034   0.00000   0.00000   0.00000   0.00000   1.91034
   A12        1.88733   0.00000  -0.00000  -0.00000  -0.00000   1.88733
   A13        1.86612   0.00000   0.00000   0.00000   0.00000   1.86612
   A14        1.95574   0.00000  -0.00000  -0.00000  -0.00000   1.95574
   A15        1.86616  -0.00000  -0.00000   0.00000   0.00000   1.86616
   A16        1.87180   0.00000   0.00000   0.00000   0.00000   1.87180
   A17        1.90297  -0.00000  -0.00000  -0.00000  -0.00000   1.90296
   A18        1.94201   0.00000   0.00000   0.00000   0.00000   1.94201
   A19        1.91643  -0.00000   0.00000   0.00000   0.00000   1.91643
   A20        1.88679  -0.00000  -0.00000  -0.00000  -0.00001   1.88678
   A21        1.93702   0.00000   0.00000   0.00000   0.00001   1.93703
   A22        1.87866  -0.00000   0.00000   0.00000   0.00000   1.87866
   A23        1.80007  -0.00000  -0.00000  -0.00001  -0.00001   1.80006
    D1        2.52010   0.00000   0.00000   0.00000   0.00000   2.52011
    D2       -1.65515  -0.00000   0.00000  -0.00000  -0.00000  -1.65516
    D3        0.42928  -0.00000  -0.00000  -0.00000  -0.00000   0.42928
    D4        0.35318   0.00000  -0.00000   0.00000   0.00000   0.35318
    D5        2.46111  -0.00000  -0.00000  -0.00000  -0.00001   2.46110
    D6       -1.73764  -0.00000  -0.00000  -0.00000  -0.00000  -1.73765
    D7        0.91677   0.00000  -0.00001   0.00003   0.00002   0.91680
    D8       -1.16236   0.00000  -0.00001   0.00003   0.00002  -1.16234
    D9        3.09382  -0.00000  -0.00001   0.00003   0.00002   3.09383
   D10       -1.14210   0.00000  -0.00001   0.00004   0.00003  -1.14207
   D11        3.06195   0.00000  -0.00001   0.00003   0.00002   3.06197
   D12        1.03494  -0.00000  -0.00001   0.00003   0.00002   1.03497
   D13        3.06541   0.00000  -0.00001   0.00004   0.00003   3.06543
   D14        0.98627  -0.00000  -0.00001   0.00003   0.00002   0.98629
   D15       -1.04074  -0.00000  -0.00001   0.00003   0.00002  -1.04071
   D16       -0.88339  -0.00000  -0.00003  -0.00001  -0.00004  -0.88343
   D17       -2.96288   0.00000  -0.00002  -0.00000  -0.00003  -2.96290
   D18        1.24226  -0.00000  -0.00003  -0.00000  -0.00003   1.24224
   D19        1.21728  -0.00000  -0.00003  -0.00001  -0.00004   1.21724
   D20       -0.86220  -0.00000  -0.00003  -0.00001  -0.00003  -0.86223
   D21       -2.94025  -0.00000  -0.00003  -0.00001  -0.00003  -2.94028
   D22       -3.00975  -0.00000  -0.00003  -0.00001  -0.00004  -3.00979
   D23        1.19395   0.00000  -0.00003  -0.00000  -0.00003   1.19392
   D24       -0.88410  -0.00000  -0.00003  -0.00000  -0.00003  -0.88413
   D25        0.79410  -0.00000  -0.00000   0.00000   0.00000   0.79410
   D26        2.89856  -0.00000  -0.00000   0.00001   0.00000   2.89856
   D27       -1.34534   0.00000  -0.00000   0.00001   0.00001  -1.34534
   D28        0.78485  -0.00000  -0.00001   0.00000  -0.00000   0.78485
   D29        2.89839  -0.00000  -0.00001  -0.00000  -0.00001   2.89839
   D30       -1.32828  -0.00000  -0.00001   0.00000  -0.00001  -1.32829
         Item               Value     Threshold  Converged?
 Maximum Force            0.000003     0.000015     YES
 RMS     Force            0.000001     0.000010     YES
 Maximum Displacement     0.000094     0.000060     NO 
 RMS     Displacement     0.000024     0.000040     YES
 GradGradGradGradGradGradGradGradGradGradGradGradGradGradGradGradGradGrad

                    Distance matrix (angstroms):
                    1          2          3          4          5
     1  N    0.000000
     2  C    1.463706   0.000000
     3  C    2.462373   1.533177   0.000000
     4  O    2.850118   2.448063   1.398673   0.000000
     5  C    2.405701   1.538581   2.533405   3.022540   0.000000
     6  O    2.681177   2.399037   2.999431   2.805685   1.406125
     7  H    1.017227   2.080395   3.295712   3.849036   2.923945
     8  H    1.017970   2.077541   2.473435   2.651267   3.233926
     9  H    2.150339   1.108507   2.140086   3.361274   2.169110
    10  H    2.766803   2.168099   1.105154   2.019267   3.486830
    11  H    3.406950   2.155669   1.111484   2.087870   2.747757
    12  H    2.909525   2.501897   1.926959   0.974150   2.551101
    13  H    3.377267   2.194199   2.719302   3.279246   1.102838
    14  H    2.746620   2.181200   3.485970   4.071437   1.110338
    15  H    2.081691   2.366832   3.098655   2.829771   1.888203
                    6          7          8          9         10
     6  O    0.000000
     7  H    3.383110   0.000000
     8  H    3.332988   1.660337   0.000000
     9  H    3.344609   2.324091   2.729438   0.000000
    10  H    3.997739   3.457186   2.453896   2.439653   0.000000
    11  H    3.401599   4.155056   3.554765   2.443458   1.780980
    12  H    2.007726   3.907035   2.976067   3.529456   2.815963
    13  H    2.038928   3.921297   4.104125   2.578318   3.732022
    14  H    2.080439   2.891216   3.726220   2.445009   4.315379
    15  H    0.980533   2.763433   2.680476   3.366707   3.926290
                   11         12         13         14         15
    11  H    0.000000
    12  H    2.434884   0.000000
    13  H    2.472815   2.809727   0.000000
    14  H    3.698441   3.605775   1.786397   0.000000
    15  H    3.776698   2.196591   2.800187   2.370256   0.000000
 Framework group  C1[X(C3H9NO2)]
 Deg. of freedom    39
                         Standard orientation:                         
 ---------------------------------------------------------------------
 Center     Atomic      Atomic             Coordinates (Angstroms)
 Number     Number       Type             X           Y           Z
 ---------------------------------------------------------------------
      1          7           0        0.217153    1.401080   -0.725822
      2          6           0        0.040711    0.710925    0.552845
      3          6           0       -1.304753   -0.023470    0.584803
      4          8           0       -1.497832   -0.865552   -0.515153
      5          6           0        1.214190   -0.275753    0.681851
      6          8           0        1.302367   -1.039796   -0.495286
      7          1           0        0.706464    2.287703   -0.629774
      8          1           0       -0.665213    1.553793   -1.209942
      9          1           0        0.055176    1.403297    1.418408
     10          1           0       -2.127289    0.714545    0.573201
     11          1           0       -1.376362   -0.572624    1.548494
     12          1           0       -0.672900   -1.367718   -0.642768
     13          1           0        1.064788   -0.966577    1.528429
     14          1           0        2.156444    0.282272    0.865196
     15          1           0        1.201656   -0.369672   -1.203973
 ---------------------------------------------------------------------
 Rotational constants (GHZ):           4.2933179           3.2111453           2.6012002
   102 basis functions,   186 primitive gaussians,   108 cartesian basis functions
    25 alpha electrons       25 beta electrons
       nuclear repulsion energy       272.7293448073 Hartrees.
 NAtoms=   15 NActive=   15 NUniq=   15 SFac= 1.00D+00 NAtFMM=   60 NAOKFM=F Big=F
 Nuclear repulsion after empirical dispersion term =      272.7212868661 Hartrees.
   1 Symmetry operations used in ECPInt.
 ECPInt:  NShTT=    1485 NPrTT=    5991 LenC2=    1481 LenP2D=    4984.
 LDataN:  DoStor=T MaxTD1= 4 Len=   56
 Initial guess from the checkpoint file:  "13.chk"
 B after Tr=    -0.000000    0.000000    0.000000
         Rot=    1.000000   -0.000000    0.000001    0.000004 Ang=  -0.00 deg.
 SCF Done:  E(RwB97XD) =  -324.547334888     a.u. after    2 cycles
            Convg  =    0.7203D-08                     9 Fock formations.
              S**2 =  0.0000                  -V/T =  2.0083
   1 Symmetry operations used in ECPInt.
 ECPInt:  NShTT=    1485 NPrTT=    5991 LenC2=    1481 LenP2D=    4984.
 LDataN:  DoStor=T MaxTD1= 5 Len=  102
 Calling FoFJK, ICntrl=      2127 FMM=F ISym2X=0 I1Cent= 0 IOpClX= 0 NMat=1 NMatS=1 NMatT=0.

 GradGradGradGradGradGradGradGradGradGradGradGradGradGradGradGradGradGrad
 Using GEDIIS/GDIIS optimizer.
 FormGI is forming the generalized inverse of G from B-inverse, IUseBI=4.
 Internal  Forces:  Max     0.000000648 RMS     0.000000179
 Step number   4 out of a maximum of   77
 All quantities printed in internal units (Hartrees-Bohrs-Radians)
 Mixed Optimization -- En-DIIS/RFO-DIIS
 Swapping is turned off.
 Trust test= 1.04D+00 RLast= 1.21D-04 DXMaxT set to 1.50D-01
 ITU=  0  0 -1  0
     Eigenvalues ---    0.00592   0.00737   0.00890   0.01678   0.03241
     Eigenvalues ---    0.03336   0.04567   0.04724   0.05231   0.05668
     Eigenvalues ---    0.05916   0.06057   0.06452   0.11398   0.11692
     Eigenvalues ---    0.14016   0.14393   0.15953   0.16000   0.16169
     Eigenvalues ---    0.16525   0.17152   0.19055   0.22784   0.27076
     Eigenvalues ---    0.29414   0.32376   0.32402   0.32728   0.33096
     Eigenvalues ---    0.33209   0.33495   0.34329   0.44176   0.44730
     Eigenvalues ---    0.44986   0.46358   0.51598   0.52429
 En-DIIS/RFO-DIIS/Sim-DIIS IScMMF=       -3 using points:     4    3    2    1
 RFO step:  Lambda=-9.07115092D-12.
 DIIS inversion failure, remove point   4.
 DIIS inversion failure, remove point   3.
 DIIS inversion failure, remove point   2.
 Use linear search instead of GDIIS.
 Quartic linear search produced a step of -0.00144.
 Iteration  1 RMS(Cart)=  0.00000476 RMS(Int)=  0.00000000
 Iteration  2 RMS(Cart)=  0.00000000 RMS(Int)=  0.00000000
 Variable       Old X    -DE/DX   Delta X   Delta X   Delta X     New X
                                 (Linear)    (Quad)   (Total)
    R1        2.76600   0.00000   0.00000   0.00000   0.00000   2.76600
    R2        1.92228   0.00000   0.00000   0.00000   0.00000   1.92228
    R3        1.92369   0.00000   0.00000   0.00000   0.00000   1.92369
    R4        2.89728   0.00000   0.00000   0.00000   0.00000   2.89728
    R5        2.90750  -0.00000   0.00000  -0.00000  -0.00000   2.90750
    R6        2.09477  -0.00000  -0.00000  -0.00000  -0.00000   2.09477
    R7        2.64311   0.00000  -0.00000   0.00000   0.00000   2.64311
    R8        2.08844   0.00000   0.00000   0.00000   0.00000   2.08844
    R9        2.10040   0.00000   0.00000   0.00000   0.00000   2.10040
   R10        1.84088   0.00000  -0.00000   0.00000   0.00000   1.84088
   R11        2.65719  -0.00000   0.00000  -0.00000  -0.00000   2.65719
   R12        2.08406  -0.00000   0.00000  -0.00000  -0.00000   2.08406
   R13        2.09823  -0.00000   0.00000  -0.00000  -0.00000   2.09823
   R14        1.85294  -0.00000   0.00000  -0.00000  -0.00000   1.85294
    A1        1.96760  -0.00000  -0.00000  -0.00000  -0.00000   1.96760
    A2        1.96243  -0.00000   0.00000  -0.00000  -0.00000   1.96243
    A3        1.90826   0.00000  -0.00000  -0.00000  -0.00000   1.90826
    A4        1.92821   0.00000   0.00000   0.00000   0.00000   1.92821
    A5        1.85843  -0.00000   0.00000  -0.00000  -0.00000   1.85843
    A6        1.96714  -0.00000  -0.00000  -0.00000  -0.00000   1.96714
    A7        1.93949   0.00000   0.00000   0.00000   0.00000   1.93949
    A8        1.86958   0.00000  -0.00000   0.00000   0.00000   1.86958
    A9        1.90194  -0.00000  -0.00000  -0.00000  -0.00000   1.90194
   A10        1.97484   0.00000   0.00000   0.00000   0.00000   1.97484
   A11        1.91034  -0.00000  -0.00000  -0.00000  -0.00000   1.91034
   A12        1.88733  -0.00000   0.00000  -0.00000  -0.00000   1.88733
   A13        1.86612  -0.00000  -0.00000   0.00000   0.00000   1.86612
   A14        1.95574  -0.00000   0.00000  -0.00000  -0.00000   1.95574
   A15        1.86616   0.00000  -0.00000  -0.00000  -0.00000   1.86616
   A16        1.87180   0.00000  -0.00000   0.00000   0.00000   1.87180
   A17        1.90296   0.00000   0.00000   0.00000   0.00000   1.90296
   A18        1.94201  -0.00000  -0.00000  -0.00000  -0.00000   1.94201
   A19        1.91643  -0.00000  -0.00000   0.00000   0.00000   1.91643
   A20        1.88678  -0.00000   0.00000  -0.00000  -0.00000   1.88678
   A21        1.93703  -0.00000  -0.00000   0.00000   0.00000   1.93703
   A22        1.87866   0.00000  -0.00000   0.00000   0.00000   1.87866
   A23        1.80006  -0.00000   0.00000  -0.00000  -0.00000   1.80006
    D1        2.52011  -0.00000  -0.00000  -0.00000  -0.00000   2.52010
    D2       -1.65516  -0.00000   0.00000  -0.00000  -0.00000  -1.65516
    D3        0.42928  -0.00000   0.00000  -0.00000  -0.00000   0.42928
    D4        0.35318   0.00000  -0.00000   0.00000   0.00000   0.35318
    D5        2.46110   0.00000   0.00000   0.00000   0.00000   2.46110
    D6       -1.73765   0.00000   0.00000   0.00000   0.00000  -1.73764
    D7        0.91680  -0.00000  -0.00000  -0.00001  -0.00001   0.91679
    D8       -1.16234  -0.00000  -0.00000  -0.00001  -0.00001  -1.16235
    D9        3.09383   0.00000  -0.00000  -0.00001  -0.00001   3.09383
   D10       -1.14207  -0.00000  -0.00000  -0.00001  -0.00001  -1.14208
   D11        3.06197  -0.00000  -0.00000  -0.00001  -0.00001   3.06197
   D12        1.03497  -0.00000  -0.00000  -0.00001  -0.00001   1.03496
   D13        3.06543  -0.00000  -0.00000  -0.00001  -0.00001   3.06543
   D14        0.98629  -0.00000  -0.00000  -0.00001  -0.00001   0.98628
   D15       -1.04071   0.00000  -0.00000  -0.00001  -0.00001  -1.04072
   D16       -0.88343  -0.00000   0.00000  -0.00000  -0.00000  -0.88343
   D17       -2.96290  -0.00000   0.00000  -0.00000  -0.00000  -2.96290
   D18        1.24224  -0.00000   0.00000  -0.00000  -0.00000   1.24223
   D19        1.21724  -0.00000   0.00000  -0.00000  -0.00000   1.21724
   D20       -0.86223   0.00000   0.00000  -0.00000  -0.00000  -0.86223
   D21       -2.94028   0.00000   0.00000  -0.00000  -0.00000  -2.94028
   D22       -3.00979  -0.00000   0.00000  -0.00000  -0.00000  -3.00979
   D23        1.19392   0.00000   0.00000   0.00000   0.00000   1.19392
   D24       -0.88413   0.00000   0.00000   0.00000   0.00000  -0.88413
   D25        0.79410  -0.00000  -0.00000  -0.00000  -0.00000   0.79410
   D26        2.89856  -0.00000  -0.00000  -0.00000  -0.00000   2.89856
   D27       -1.34534  -0.00000  -0.00000  -0.00000  -0.00000  -1.34534
   D28        0.78485   0.00000   0.00000   0.00000   0.00000   0.78485
   D29        2.89839   0.00000   0.00000   0.00000   0.00000   2.89839
   D30       -1.32829  -0.00000   0.00000   0.00000   0.00000  -1.32828
         Item               Value     Threshold  Converged?
 Maximum Force            0.000001     0.000015     YES
 RMS     Force            0.000000     0.000010     YES
 Maximum Displacement     0.000021     0.000060     YES
 RMS     Displacement     0.000005     0.000040     YES
 Optimization completed.
    -- Stationary point found.
                           ----------------------------
                           !   Optimized Parameters   !
                           ! (Angstroms and Degrees)  !
 --------------------------                            --------------------------
 ! Name  Definition              Value          Derivative Info.                !
 --------------------------------------------------------------------------------
 ! R1    R(1,2)                  1.4637         -DE/DX =    0.0                 !
 ! R2    R(1,7)                  1.0172         -DE/DX =    0.0                 !
 ! R3    R(1,8)                  1.018          -DE/DX =    0.0                 !
 ! R4    R(2,3)                  1.5332         -DE/DX =    0.0                 !
 ! R5    R(2,5)                  1.5386         -DE/DX =    0.0                 !
 ! R6    R(2,9)                  1.1085         -DE/DX =    0.0                 !
 ! R7    R(3,4)                  1.3987         -DE/DX =    0.0                 !
 ! R8    R(3,10)                 1.1052         -DE/DX =    0.0                 !
 ! R9    R(3,11)                 1.1115         -DE/DX =    0.0                 !
 ! R10   R(4,12)                 0.9741         -DE/DX =    0.0                 !
 ! R11   R(5,6)                  1.4061         -DE/DX =    0.0                 !
 ! R12   R(5,13)                 1.1028         -DE/DX =    0.0                 !
 ! R13   R(5,14)                 1.1103         -DE/DX =    0.0                 !
 ! R14   R(6,15)                 0.9805         -DE/DX =    0.0                 !
 ! A1    A(2,1,7)              112.7353         -DE/DX =    0.0                 !
 ! A2    A(2,1,8)              112.4391         -DE/DX =    0.0                 !
 ! A3    A(7,1,8)              109.3353         -DE/DX =    0.0                 !
 ! A4    A(1,2,3)              110.4782         -DE/DX =    0.0                 !
 ! A5    A(1,2,5)              106.4802         -DE/DX =    0.0                 !
 ! A6    A(1,2,9)              112.7087         -DE/DX =    0.0                 !
 ! A7    A(3,2,5)              111.1244         -DE/DX =    0.0                 !
 ! A8    A(3,2,9)              107.1191         -DE/DX =    0.0                 !
 ! A9    A(5,2,9)              108.9732         -DE/DX =    0.0                 !
 ! A10   A(2,3,4)              113.1498         -DE/DX =    0.0                 !
 ! A11   A(2,3,10)             109.4543         -DE/DX =    0.0                 !
 ! A12   A(2,3,11)             108.136          -DE/DX =    0.0                 !
 ! A13   A(4,3,10)             106.921          -DE/DX =    0.0                 !
 ! A14   A(4,3,11)             112.0555         -DE/DX =    0.0                 !
 ! A15   A(10,3,11)            106.9232         -DE/DX =    0.0                 !
 ! A16   A(3,4,12)             107.2463         -DE/DX =    0.0                 !
 ! A17   A(2,5,6)              109.0317         -DE/DX =    0.0                 !
 ! A18   A(2,5,13)             111.2691         -DE/DX =    0.0                 !
 ! A19   A(2,5,14)             109.8034         -DE/DX =    0.0                 !
 ! A20   A(6,5,13)             108.1046         -DE/DX =    0.0                 !
 ! A21   A(6,5,14)             110.9836         -DE/DX =    0.0                 !
 ! A22   A(13,5,14)            107.6391         -DE/DX =    0.0                 !
 ! A23   A(5,6,15)             103.1359         -DE/DX =    0.0                 !
 ! D1    D(7,1,2,3)            144.3914         -DE/DX =    0.0                 !
 ! D2    D(7,1,2,5)            -94.8336         -DE/DX =    0.0                 !
 ! D3    D(7,1,2,9)             24.5959         -DE/DX =    0.0                 !
 ! D4    D(8,1,2,3)             20.2358         -DE/DX =    0.0                 !
 ! D5    D(8,1,2,5)            141.0108         -DE/DX =    0.0                 !
 ! D6    D(8,1,2,9)            -99.5597         -DE/DX =    0.0                 !
 ! D7    D(1,2,3,4)             52.5285         -DE/DX =    0.0                 !
 ! D8    D(1,2,3,10)           -66.5975         -DE/DX =    0.0                 !
 ! D9    D(1,2,3,11)           177.2636         -DE/DX =    0.0                 !
 ! D10   D(5,2,3,4)            -65.4358         -DE/DX =    0.0                 !
 ! D11   D(5,2,3,10)           175.4382         -DE/DX =    0.0                 !
 ! D12   D(5,2,3,11)            59.2993         -DE/DX =    0.0                 !
 ! D13   D(9,2,3,4)            175.6363         -DE/DX =    0.0                 !
 ! D14   D(9,2,3,10)            56.5104         -DE/DX =    0.0                 !
 ! D15   D(9,2,3,11)           -59.6286         -DE/DX =    0.0                 !
 ! D16   D(1,2,5,6)            -50.6166         -DE/DX =    0.0                 !
 ! D17   D(1,2,5,13)          -169.7617         -DE/DX =    0.0                 !
 ! D18   D(1,2,5,14)            71.1748         -DE/DX =    0.0                 !
 ! D19   D(3,2,5,6)             69.7427         -DE/DX =    0.0                 !
 ! D20   D(3,2,5,13)           -49.4024         -DE/DX =    0.0                 !
 ! D21   D(3,2,5,14)          -168.4658         -DE/DX =    0.0                 !
 ! D22   D(9,2,5,6)           -172.4482         -DE/DX =    0.0                 !
 ! D23   D(9,2,5,13)            68.4067         -DE/DX =    0.0                 !
 ! D24   D(9,2,5,14)           -50.6567         -DE/DX =    0.0                 !
 ! D25   D(2,3,4,12)            45.4988         -DE/DX =    0.0                 !
 ! D26   D(10,3,4,12)          166.0753         -DE/DX =    0.0                 !
 ! D27   D(11,3,4,12)          -77.082          -DE/DX =    0.0                 !
 ! D28   D(2,5,6,15)            44.9684         -DE/DX =    0.0                 !
 ! D29   D(13,5,6,15)          166.0653         -DE/DX =    0.0                 !
 ! D30   D(14,5,6,15)          -76.1052         -DE/DX =    0.0                 !
 --------------------------------------------------------------------------------
 GradGradGradGradGradGradGradGradGradGradGradGradGradGradGradGradGradGrad

                    Distance matrix (angstroms):
                    1          2          3          4          5
     1  N    0.000000
     2  C    1.463706   0.000000
     3  C    2.462373   1.533177   0.000000
     4  O    2.850118   2.448063   1.398673   0.000000
     5  C    2.405701   1.538581   2.533405   3.022540   0.000000
     6  O    2.681177   2.399037   2.999431   2.805685   1.406125
     7  H    1.017227   2.080395   3.295712   3.849036   2.923945
     8  H    1.017970   2.077541   2.473435   2.651267   3.233926
     9  H    2.150339   1.108507   2.140086   3.361274   2.169110
    10  H    2.766803   2.168099   1.105154   2.019267   3.486830
    11  H    3.406950   2.155669   1.111484   2.087870   2.747757
    12  H    2.909525   2.501897   1.926959   0.974150   2.551101
    13  H    3.377267   2.194199   2.719302   3.279246   1.102838
    14  H    2.746620   2.181200   3.485970   4.071437   1.110338
    15  H    2.081691   2.366832   3.098655   2.829771   1.888203
                    6          7          8          9         10
     6  O    0.000000
     7  H    3.383110   0.000000
     8  H    3.332988   1.660337   0.000000
     9  H    3.344609   2.324091   2.729438   0.000000
    10  H    3.997739   3.457186   2.453896   2.439653   0.000000
    11  H    3.401599   4.155056   3.554765   2.443458   1.780980
    12  H    2.007726   3.907035   2.976067   3.529456   2.815963
    13  H    2.038928   3.921297   4.104125   2.578318   3.732022
    14  H    2.080439   2.891216   3.726220   2.445009   4.315379
    15  H    0.980533   2.763433   2.680476   3.366707   3.926290
                   11         12         13         14         15
    11  H    0.000000
    12  H    2.434884   0.000000
    13  H    2.472815   2.809727   0.000000
    14  H    3.698441   3.605775   1.786397   0.000000
    15  H    3.776698   2.196591   2.800187   2.370256   0.000000
 Framework group  C1[X(C3H9NO2)]
 Deg. of freedom    39
                         Standard orientation:                         
 ---------------------------------------------------------------------
 Center     Atomic      Atomic             Coordinates (Angstroms)
 Number     Number       Type             X           Y           Z
 ---------------------------------------------------------------------
      1          7           0        0.217153    1.401080   -0.725822
      2          6           0        0.040711    0.710925    0.552845
      3          6           0       -1.304753   -0.023470    0.584803
      4          8           0       -1.497832   -0.865552   -0.515153
      5          6           0        1.214190   -0.275753    0.681851
      6          8           0        1.302367   -1.039796   -0.495286
      7          1           0        0.706464    2.287703   -0.629774
      8          1           0       -0.665213    1.553793   -1.209942
      9          1           0        0.055176    1.403297    1.418408
     10          1           0       -2.127289    0.714545    0.573201
     11          1           0       -1.376362   -0.572624    1.548494
     12          1           0       -0.672900   -1.367718   -0.642768
     13          1           0        1.064788   -0.966577    1.528429
     14          1           0        2.156444    0.282272    0.865196
     15          1           0        1.201656   -0.369672   -1.203973
 ---------------------------------------------------------------------
 Rotational constants (GHZ):           4.2933179           3.2111453           2.6012002

 **********************************************************************

            Population analysis using the SCF Density.

 **********************************************************************

 Orbital symmetries:
       Occupied  (A) (A) (A) (A) (A) (A) (A) (A) (A) (A) (A) (A)
                 (A) (A) (A) (A) (A) (A) (A) (A) (A) (A) (A) (A)
                 (A)
       Virtual   (A) (A) (A) (A) (A) (A) (A) (A) (A) (A) (A) (A)
                 (A) (A) (A) (A) (A) (A) (A) (A) (A) (A) (A) (A)
                 (A) (A) (A) (A) (A) (A) (A) (A) (A) (A) (A) (A)
                 (A) (A) (A) (A) (A) (A) (A) (A) (A) (A) (A) (A)
                 (A) (A) (A) (A) (A) (A) (A) (A) (A) (A) (A) (A)
                 (A) (A) (A) (A) (A) (A) (A) (A) (A) (A) (A) (A)
                 (A) (A) (A) (A) (A)
 The electronic state is 1-A.
 Alpha  occ. eigenvalues --  -19.24870 -19.23495 -14.43631 -10.33798 -10.33716
 Alpha  occ. eigenvalues --  -10.33119  -1.12288  -1.09781  -0.98631  -0.83607
 Alpha  occ. eigenvalues --   -0.76091  -0.68692  -0.61513  -0.60315  -0.57309
 Alpha  occ. eigenvalues --   -0.56485  -0.52781  -0.49262  -0.48981  -0.48455
 Alpha  occ. eigenvalues --   -0.42273  -0.41250  -0.35569  -0.35219  -0.33181
 Alpha virt. eigenvalues --    0.11976   0.16226   0.17489   0.18717   0.19023
 Alpha virt. eigenvalues --    0.20323   0.23140   0.23382   0.24872   0.27406
 Alpha virt. eigenvalues --    0.29449   0.29922   0.33562   0.36286   0.54528
 Alpha virt. eigenvalues --    0.54792   0.56985   0.58163   0.62622   0.63696
 Alpha virt. eigenvalues --    0.67754   0.69392   0.71602   0.72635   0.74080
 Alpha virt. eigenvalues --    0.75067   0.76253   0.77254   0.78268   0.80185
 Alpha virt. eigenvalues --    0.81670   0.84321   0.85848   0.92055   0.96844
 Alpha virt. eigenvalues --    0.99462   1.07248   1.09818   1.13299   1.18053
 Alpha virt. eigenvalues --    1.21636   1.27905   1.30280   1.34312   1.40601
 Alpha virt. eigenvalues --    1.52122   1.59999   1.66095   1.69666   1.82442
 Alpha virt. eigenvalues --    1.88388   1.90314   1.92296   1.98637   2.07892
 Alpha virt. eigenvalues --    2.15291   2.16833   2.17754   2.22121   2.33623
 Alpha virt. eigenvalues --    2.43094   2.46543   2.53398   2.63893   2.68757
 Alpha virt. eigenvalues --    2.75106   2.78931   2.79457   2.94953   2.95995
 Alpha virt. eigenvalues --    3.02643   3.04790   3.07858   3.08690   3.12855
 Alpha virt. eigenvalues --    3.45829   3.47714
          Condensed to atoms (all electrons):
 Mulliken charges:
               1
     1  N   -0.531848
     2  C   -0.168374
     3  C    0.044017
     4  O   -0.507929
     5  C    0.057462
     6  O   -0.511173
     7  H    0.233832
     8  H    0.244005
     9  H    0.095827
    10  H    0.102066
    11  H    0.092521
    12  H    0.318715
    13  H    0.108548
    14  H    0.094064
    15  H    0.328268
 Sum of Mulliken charges =  -0.00000
 Mulliken charges with hydrogens summed into heavy atoms:
               1
     1  N   -0.054012
     2  C   -0.072548
     3  C    0.238603
     4  O   -0.189214
     5  C    0.260075
     6  O   -0.182905
 Electronic spatial extent (au):  <R**2>=            574.1180
 Charge=             -0.0000 electrons
 Dipole moment (field-independent basis, Debye):
    X=              0.5713    Y=              3.0806    Z=              1.3056  Tot=              3.3943
 Evaluate density.
 Using the total density.
 Monte-Carlo method of calculating molar volume:
 based on  0.001 e/bohr**3 density envelope.
 Number of points per bohr**3 =  100 CutOff= 1.00D-04
 Using the SCF density.
 There are      1581 points.  Will hold      1581 in memory.
 LenV=  1048387789 MDV=  1048576000.
 Box volume = 3952.958 fraction occupied=0.182
 Integrated density= 3.5266653349548854D+01 error=-1.4733346650451146D+01
 Molar volume =  717.583 bohr**3/mol ( 64.036 cm**3/mol)
 Recommended a0 for SCRF calculation =  3.73 angstrom (  7.06 bohr)
 1\1\GINC-C169\FOpt\RwB97XD\def2SVPP\C3H9N1O2\PETERCHAO1\06-Feb-2023\0\
 \#T wB97XD/def2svpp opt=tight freq int(grid=ultrafine) scf=(verytight,
 qc) Volume=tight\\Monomer\\0,1\N,0.217168637,1.401077043,-0.7258213014
 \C,0.0407190338,0.7109236759,0.5528453203\C,-1.3047531179,-0.023456495
 7,0.58480345\O,-1.4978405041,-0.8655364067,-0.5151529127\C,1.214188008
 2,-0.2757670839,0.6818512919\O,1.3023560164,-1.0398103738,-0.495286212
 6\H,0.7064898526,2.2876949301,-0.6297732761\H,-0.665195554,1.553799908
 5,-1.2099419322\H,0.055191716,1.403295694,1.418407761\H,-2.1272809942,
 0.7145672463,0.5732016631\H,-1.3763680472,-0.5726093423,1.5484943941\H
 ,-0.6729146571,-1.3677116042,-0.6427673359\H,1.0647777107,-0.966589136
 4,1.5284291455\H,2.1564479456,0.2822479917,0.8651966278\H,1.2016529541
 ,-0.3696850465,-1.2039726828\\Version=ES64L-G16RevB.01\State=1-A\HF=-3
 24.5473349\RMSD=1.161e-10\RMSF=2.975e-07\Dipole=0.2247965,1.2119876,0.
 5136633\Quadrupole=-3.0386001,1.7491081,1.289492,0.0840295,-0.4708857,
 -1.4153036\PG=C01 [X(C3H9N1O2)]\\@


 THE LENGTH OF A MEETING IS PROPORTIONAL TO THE
 SQUARE OF THE PARTICIPANTS.
 File lengths (MBytes):  RWF=      6 Int=      0 D2E=      0 Chk=      2 Scr=      1
 Normal termination of Gaussian 16 at Mon Feb  6 10:23:24 2023.
 Link1:  Proceeding to internal job step number  2.
 ---------------------------------------------------------------------
 #T Geom=AllCheck Guess=TCheck SCRF=Check GenChk RwB97XD/def2SVPP Freq
 ---------------------------------------------------------------------
 Structure from the checkpoint file:  "13.chk"
 -------
 Monomer
 -------
 Charge =  0 Multiplicity = 1
 Redundant internal coordinates found in file.  (old form).
 N,0,0.217168637,1.401077043,-0.7258213014
 C,0,0.0407190338,0.7109236759,0.5528453203
 C,0,-1.3047531179,-0.0234564957,0.58480345
 O,0,-1.4978405041,-0.8655364067,-0.5151529127
 C,0,1.2141880082,-0.2757670839,0.6818512919
 O,0,1.3023560164,-1.0398103738,-0.4952862126
 H,0,0.7064898526,2.2876949301,-0.6297732761
 H,0,-0.665195554,1.5537999085,-1.2099419322
 H,0,0.055191716,1.403295694,1.418407761
 H,0,-2.1272809942,0.7145672463,0.5732016631
 H,0,-1.3763680472,-0.5726093423,1.5484943941
 H,0,-0.6729146571,-1.3677116042,-0.6427673359
 H,0,1.0647777107,-0.9665891364,1.5284291455
 H,0,2.1564479456,0.2822479917,0.8651966278
 H,0,1.2016529541,-0.3696850465,-1.2039726828
 Recover connectivity data from disk.

 GradGradGradGradGradGradGradGradGradGradGradGradGradGradGradGradGradGrad
 Initialization pass.
                           ----------------------------
                           !    Initial Parameters    !
                           ! (Angstroms and Degrees)  !
 --------------------------                            --------------------------
 ! Name  Definition              Value          Derivative Info.                !
 --------------------------------------------------------------------------------
 ! R1    R(1,2)                  1.4637         calculate D2E/DX2 analytically  !
 ! R2    R(1,7)                  1.0172         calculate D2E/DX2 analytically  !
 ! R3    R(1,8)                  1.018          calculate D2E/DX2 analytically  !
 ! R4    R(2,3)                  1.5332         calculate D2E/DX2 analytically  !
 ! R5    R(2,5)                  1.5386         calculate D2E/DX2 analytically  !
 ! R6    R(2,9)                  1.1085         calculate D2E/DX2 analytically  !
 ! R7    R(3,4)                  1.3987         calculate D2E/DX2 analytically  !
 ! R8    R(3,10)                 1.1052         calculate D2E/DX2 analytically  !
 ! R9    R(3,11)                 1.1115         calculate D2E/DX2 analytically  !
 ! R10   R(4,12)                 0.9741         calculate D2E/DX2 analytically  !
 ! R11   R(5,6)                  1.4061         calculate D2E/DX2 analytically  !
 ! R12   R(5,13)                 1.1028         calculate D2E/DX2 analytically  !
 ! R13   R(5,14)                 1.1103         calculate D2E/DX2 analytically  !
 ! R14   R(6,15)                 0.9805         calculate D2E/DX2 analytically  !
 ! A1    A(2,1,7)              112.7353         calculate D2E/DX2 analytically  !
 ! A2    A(2,1,8)              112.4391         calculate D2E/DX2 analytically  !
 ! A3    A(7,1,8)              109.3353         calculate D2E/DX2 analytically  !
 ! A4    A(1,2,3)              110.4782         calculate D2E/DX2 analytically  !
 ! A5    A(1,2,5)              106.4802         calculate D2E/DX2 analytically  !
 ! A6    A(1,2,9)              112.7087         calculate D2E/DX2 analytically  !
 ! A7    A(3,2,5)              111.1244         calculate D2E/DX2 analytically  !
[...]
 ! D22   D(9,2,5,6)           -172.4482         -DE/DX =    0.0                 !
 ! D23   D(9,2,5,13)            68.4067         -DE/DX =    0.0                 !
 ! D24   D(9,2,5,14)           -50.6567         -DE/DX =    0.0                 !
 ! D25   D(2,3,4,12)            45.4988         -DE/DX =    0.0                 !
 ! D26   D(10,3,4,12)          166.0753         -DE/DX =    0.0                 !
 ! D27   D(11,3,4,12)          -77.082          -DE/DX =    0.0                 !
 ! D28   D(2,5,6,15)            44.9684         -DE/DX =    0.0                 !
 ! D29   D(13,5,6,15)          166.0653         -DE/DX =    0.0                 !
 ! D30   D(14,5,6,15)          -76.1052         -DE/DX =    0.0                 !
 --------------------------------------------------------------------------------
 GradGradGradGradGradGradGradGradGradGradGradGradGradGradGradGradGradGrad


 ----------------------------------------------------------------------

 Electric dipole moment (input orientation):
 (Debye = 10**-18 statcoulomb cm , SI units = C m)
                  (au)            (Debye)         (10**-30 SI)
   Tot        0.133540D+01      0.339425D+01      0.113220D+02
   x          0.224797D+00      0.571376D+00      0.190590D+01
   y          0.121199D+01      0.308056D+01      0.102757D+02
   z          0.513663D+00      0.130560D+01      0.435502D+01

 Dipole polarizability, Alpha (input orientation).
 (esu units = cm**3 , SI units = C**2 m**2 J**-1)
 Alpha(0;0):
               (au)            (10**-24 esu)      (10**-40 SI)
   iso        0.449797D+02      0.666531D+01      0.741616D+01
   aniso      0.237988D+01      0.352662D+00      0.392389D+00
   xx         0.459990D+02      0.681635D+01      0.758421D+01
   yx        -0.195201D+00     -0.289258D-01     -0.321843D-01
   yy         0.442341D+02      0.655482D+01      0.729322D+01
   zx         0.750892D+00      0.111271D+00      0.123805D+00
   zy        -0.671673D+00     -0.995317D-01     -0.110744D+00
   zz         0.447062D+02      0.662477D+01      0.737105D+01

 ----------------------------------------------------------------------

 Dipole orientation:
     7          0.34074550          2.27216854          1.94445844
     6         -0.24872550         -0.41241236          1.63410106
     6         -2.59630727         -0.74889238         -0.03019948
     8         -2.42823527          0.53322311         -2.33540085
     6          2.08812210         -1.63371521          0.40890856
     8          2.78509342         -0.21813005         -1.72908531
     1          1.03108412          2.68416850          3.69055528
     1         -1.17039758          3.40337382          1.57380253
     1         -0.64164450         -1.36989035          3.45534457
     1         -4.26904279          0.00750943          0.96548544
     1         -2.92092676         -2.80717859         -0.29433136
     1         -0.75595128          0.19564446         -3.02701724
     1          1.68629324         -3.58337782         -0.20807294
     1          3.65762031         -1.71744331          1.79896349
     1          2.68440019          1.53134347         -1.12693270

 Electric dipole moment (dipole orientation):
 (Debye = 10**-18 statcoulomb cm , SI units = C m)
                  (au)            (Debye)         (10**-30 SI)
   Tot        0.133540D+01      0.339425D+01      0.113220D+02
   x          0.000000D+00      0.000000D+00      0.000000D+00
   y          0.000000D+00      0.000000D+00      0.000000D+00
   z          0.133540D+01      0.339425D+01      0.113220D+02

 Dipole polarizability, Alpha (dipole orientation).
 (esu units = cm**3 , SI units = C**2 m**2 J**-1)
 Alpha(0;0):
               (au)            (10**-24 esu)      (10**-40 SI)
   iso        0.449797D+02      0.666531D+01      0.741616D+01
   aniso      0.237988D+01      0.352662D+00      0.392389D+00
   xx         0.457105D+02      0.677359D+01      0.753664D+01
   yx        -0.873523D+00     -0.129443D+00     -0.144025D+00
   yy         0.453062D+02      0.671368D+01      0.746998D+01
   zx         0.483306D+00      0.716186D-01      0.796865D-01
   zy         0.110660D+00      0.163981D-01      0.182453D-01
   zz         0.439226D+02      0.650865D+01      0.724185D+01

 ----------------------------------------------------------------------
 1\1\GINC-C169\Freq\RwB97XD\def2SVPP\C3H9N1O2\PETERCHAO1\06-Feb-2023\0\
 \#T Geom=AllCheck Guess=TCheck SCRF=Check GenChk RwB97XD/def2SVPP Freq
 \\Monomer\\0,1\N,0.217168637,1.401077043,-0.7258213014\C,0.0407190338,
 0.7109236759,0.5528453203\C,-1.3047531179,-0.0234564957,0.58480345\O,-
 1.4978405041,-0.8655364067,-0.5151529127\C,1.2141880082,-0.2757670839,
 0.6818512919\O,1.3023560164,-1.0398103738,-0.4952862126\H,0.7064898526
 ,2.2876949301,-0.6297732761\H,-0.665195554,1.5537999085,-1.2099419322\
 H,0.055191716,1.403295694,1.418407761\H,-2.1272809942,0.7145672463,0.5
 732016631\H,-1.3763680472,-0.5726093423,1.5484943941\H,-0.6729146571,-
 1.3677116042,-0.6427673359\H,1.0647777107,-0.9665891364,1.5284291455\H
 ,2.1564479456,0.2822479917,0.8651966278\H,1.2016529541,-0.3696850465,-
 1.2039726828\\Version=ES64L-G16RevB.01\State=1-A\HF=-324.5473349\RMSD=
 1.161e-10\RMSF=2.975e-07\ZeroPoint=0.1335917\Thermal=0.1404714\Dipole=
 0.2247965,1.2119876,0.5136633\DipoleDeriv=-0.4460592,0.098578,0.172532
 6,0.1041838,-0.5042573,0.0799169,0.094746,0.1005727,-0.6660501,0.06438
 1,-0.078839,-0.0215668,-0.0485572,0.300848,-0.2079079,-0.0145204,-0.03
 91123,0.42828,0.3603514,0.0435389,0.0354441,0.0929449,0.5164175,0.2331
 07,-0.0251805,0.1663753,0.6519571,-0.5557826,-0.1069117,0.0237309,-0.1
 497354,-0.7282903,-0.2555497,0.0071404,-0.207524,-0.7616561,0.3658505,
 0.0125691,-0.0362405,0.052,0.3813021,0.2108497,0.1098919,0.1819434,0.5
 648691,-0.712328,0.1340581,0.0645709,0.0536091,-0.6263785,-0.2264998,-
 0.0216291,-0.2207958,-0.7568446,0.2047556,-0.0281759,-0.0600764,-0.074
 7773,0.0895429,0.050858,-0.0590034,-0.0307214,0.1694824,0.0971029,0.02
 60309,-0.0672241,0.0300858,0.1650839,0.0638027,0.0070995,0.0220092,0.2
 313711,0.0183154,-0.0047959,-0.0018692,-0.00219,-0.0811112,-0.100144,0
 .0163497,-0.071623,-0.1655322,-0.1082737,0.0785123,0.0052446,0.1103548
 ,-0.0748334,-0.0266446,-0.0433865,0.0107137,0.0293558,0.0193126,-0.019
 3215,-0.0220042,-0.039597,-0.0553446,0.0986504,0.0265949,0.0525877,-0.
 2071776,0.434416,0.061501,-0.0226033,0.0703162,0.3691747,0.0259929,-0.
 0419301,0.0170807,0.2687681,0.0486397,-0.029508,0.0425315,0.0042931,-0
 .0457455,0.0965946,0.00746,0.0559157,-0.0808587,-0.1839676,-0.0771584,
 -0.0553686,-0.1119187,-0.060172,-0.0797317,-0.0210757,-0.0331301,-0.00
 94224,0.3932858,-0.1100779,-0.0571016,-0.0910119,0.3537636,0.0367054,-
 0.0425569,-0.0042918,0.3034582\Polar=45.9989873,-0.1952012,44.2340848,
 0.7508916,-0.6716733,44.706157\Quadrupole=-3.0386001,1.7491081,1.28949
 2,0.0840295,-0.4708857,-1.4153036\PG=C01 [X(C3H9N1O2)]\NImag=0\\0.5630
 1698,0.15216160,0.53651546,0.20558881,-0.12762671,0.41406631,-0.094344
 76,-0.03413084,0.00864285,0.50882919,-0.01315291,-0.10723968,0.0428117
 0,0.01331181,0.53786693,-0.01318047,0.07729512,-0.19739857,0.00409935,
 0.06367444,0.58880140,-0.00418887,-0.00513754,0.00275133,-0.17264085,-
 0.03932637,0.01615716,0.55837598,-0.01748959,-0.01798879,0.00625620,-0
 .03653678,-0.10294649,0.00657749,-0.07802798,0.56986065,0.03233952,0.0
 1993119,-0.00927927,0.00311510,0.00066030,-0.08297076,-0.00645875,-0.0
 3151845,0.57376522,0.00145878,-0.00062136,-0.00020358,-0.00007835,-0.0
 2390239,-0.03156604,-0.10158597,0.01035027,-0.00846130,0.45683594,-0.0
 0054544,0.00103597,-0.00008118,-0.00937510,-0.02090285,-0.02575788,-0.
 01628151,-0.14504028,-0.09868760,-0.17598647,0.30037447,-0.00029104,0.
 00369503,0.00381142,-0.00531351,-0.01162647,-0.01209259,-0.04185544,-0
 .08868431,-0.19966150,0.00196208,0.18898688,0.28550248,0.00326546,0.00
 582778,-0.00259443,-0.15215506,0.04329867,-0.01654152,-0.03635457,0.02
 047808,-0.00160552,0.00276887,0.00194856,0.00262858,0.54480108,0.01705
 176,-0.02271420,0.01922100,0.04115348,-0.11379265,0.01034894,-0.008405
 23,0.01900404,0.00166120,0.00424371,-0.00410509,-0.00205793,0.06856514
 ,0.54689080,-0.02313344,0.01909218,-0.02289340,-0.00541520,-0.00225570
 ,-0.07325183,-0.00144579,0.00486438,0.00506084,0.00561162,-0.00292941,
 -0.00343725,0.00510481,-0.07061545,0.60257630,0.00438086,0.00428819,0.
 00086380,0.00207129,0.02266734,0.02805776,0.00201720,-0.00724768,-0.00
 593565,-0.01597197,0.00306023,0.00281091,-0.07410671,0.00691887,0.0034
 0310,0.08984346,0.00577092,-0.00835938,-0.00347633,0.00782907,-0.02703
 969,-0.02858388,-0.00308095,-0.00312287,-0.00209192,-0.00185847,0.0065
 7349,0.00197432,0.00321645,-0.14775345,-0.04760280,-0.05686909,0.42096
 625,-0.00411204,0.01187844,0.00387283,0.00733294,-0.01425548,-0.017818
 00,-0.00238134,-0.00333916,-0.00352848,-0.00253374,0.00335863,0.007040
 71,0.01199642,-0.09429582,-0.20797945,0.01683673,-0.07583844,0.5108088
 2,-0.11959877,-0.14724118,-0.03557055,-0.00401763,-0.00379631,0.002296
 98,-0.00009207,-0.00141984,0.00208194,0.00050274,0.00034833,0.00034283
 ,0.00107203,0.00115359,0.00052678,-0.00195329,0.00125805,-0.00096091,0
 .13509075,-0.18694801,-0.34595921,-0.01615685,-0.00347240,-0.01017278,
 -0.00842513,0.00124570,-0.00028097,0.00107758,-0.00000624,0.00031650,0
 .00033749,-0.00081511,-0.00167652,0.00031703,0.00115200,-0.00042490,0.
 00088494,0.18167764,0.34942378,-0.05182488,-0.03649488,-0.05082090,0.0
 2099435,0.03207777,0.00173747,-0.00082201,0.00283362,-0.00727913,-0.00
 125281,-0.00122466,0.00152063,0.00051206,-0.00016557,-0.00071182,0.001
 23523,-0.00111058,0.00025132,0.03531815,0.02178298,0.05566601,-0.34484
 046,0.02959141,-0.18048703,0.00640198,0.00211579,0.00849859,0.00184165
 ,-0.00311363,0.00119835,-0.00103169,0.00056150,0.00091863,0.00003585,0
 .00001264,-0.00026200,0.00027113,0.00018290,-0.00052816,-0.01296227,0.
 00771277,-0.00418640,0.35136135,0.04898885,-0.05291278,0.05655481,0.01
 748760,-0.00523597,0.00268623,0.00020328,0.00164065,0.00536415,0.00022
 264,0.00157892,-0.00336557,-0.00072372,-0.00267239,0.00573416,-0.00104
 866,-0.00114818,0.00005783,-0.03115711,0.00671282,-0.01870095,-0.03658
 065,0.05263303,-0.14618242,0.04086313,-0.11279731,-0.02754847,0.005556
 76,-0.01751254,-0.00169046,0.00071774,0.00264411,0.00081888,-0.0000573
 1,-0.00092128,0.00200630,0.00035311,-0.00389697,-0.00003237,-0.0016114
 1,0.00099585,-0.00134506,-0.00035232,-0.00168911,0.17335286,-0.0476608
 0,0.13478020,0.00117053,-0.00014945,0.00454491,-0.05282728,-0.00224885
 ,-0.00444316,0.00271610,-0.01768918,-0.02371062,-0.00629261,-0.0052460
 0,-0.00130747,0.00292903,0.01595062,0.01969357,-0.00443679,0.00561922,
 0.00154585,0.00103558,0.00041763,0.00069497,-0.00033749,-0.00017577,-0
 .00017423,0.05475784,0.00041733,0.01201978,0.02050604,-0.00282934,-0.1
 5822380,-0.12289140,0.00378668,-0.00937099,-0.01273578,-0.00422727,-0.
 00141835,-0.00030437,-0.00549326,-0.01078044,-0.01652059,0.00544737,-0
 .00341546,-0.00171924,0.00084410,0.00233095,-0.00034651,-0.00089013,0.
 00025912,0.00140740,0.00296407,0.16639420,0.00106932,-0.00887775,-0.02
 963167,-0.00367815,-0.12112198,-0.18989834,0.00029625,0.00038172,0.000
 38037,0.00007500,-0.00003229,0.00167769,-0.00012148,-0.00045906,0.0020
 6362,-0.00047796,0.00053151,0.00234337,-0.00193173,0.00014023,0.001401
 60,0.00195197,-0.00099178,-0.00239214,0.00325865,0.12925618,0.21435447
 ,0.00237103,0.00021627,-0.00123985,-0.02263786,0.02037834,-0.00234345,
 -0.19885433,0.12940689,-0.00599484,0.00791673,-0.00394445,0.00194081,-
 0.00404230,-0.00547382,-0.00088258,0.00074077,0.00008462,0.00092397,0.
 00013005,-0.00003975,-0.00003866,-0.00028573,-0.00031877,0.00148031,0.
 00066194,-0.00020706,-0.00025134,0.21016078,-0.00000977,0.00167166,-0.
 00133062,-0.01449077,0.01092540,0.00049698,0.12619542,-0.16217471,0.01
 021065,0.01705017,-0.01842365,-0.01162214,-0.00263368,-0.00198669,0.00
 023726,0.00103299,0.00060720,0.00054246,0.00008327,0.00003421,-0.00021
 940,0.00074030,-0.00020885,0.00003914,0.00077087,0.00104992,0.00005412
 ,-0.13774765,0.17943748,0.00057416,-0.00066027,0.00086104,0.00171223,0
 .00018633,-0.00064828,-0.01373794,0.01588269,-0.05268187,0.02569395,-0
 .02861445,-0.00694146,-0.00026140,-0.00003348,0.00012108,0.00053971,0.
 00069432,0.00045542,-0.00012282,-0.00007625,0.00008341,0.00028731,-0.0
 0001116,-0.00043395,-0.00058493,0.00019762,-0.00002614,0.00768010,0.00
 200542,0.06054150,-0.00529782,-0.00377013,-0.00023745,-0.00257064,-0.0
 1579013,0.02499867,-0.05648048,-0.00488704,0.01247119,0.00523797,0.000
 18300,-0.00675221,0.00128662,-0.00105289,0.00152525,-0.00013912,0.0006
 0935,-0.00020030,-0.00046958,-0.00034565,0.00167929,-0.00017537,0.0000
 2385,-0.00035028,0.00074956,0.00005469,-0.00057671,0.00360050,0.013362
 33,-0.01957843,0.05517132,-0.00422719,-0.00130253,0.00039548,0.0021151
 4,-0.00698579,0.01436171,-0.00737291,-0.12647316,0.11137035,-0.0001711
 0,0.01418060,-0.02942337,0.00119111,0.00010221,-0.00031849,0.00014500,
 0.00053187,-0.00000915,-0.00050880,0.00001567,0.00088212,-0.00006871,-
 0.00006377,-0.00113501,0.00018118,-0.00022354,-0.00022384,-0.00253199,
 -0.00931236,0.01636372,0.01182116,0.12829244,0.00003584,0.00054323,0.0
 0206139,-0.00070270,0.00309080,-0.00120493,0.01616897,0.11038758,-0.21
 535393,-0.00073290,-0.00440327,-0.03647226,-0.00110163,-0.00004476,-0.
 00109026,0.00120374,0.00007121,0.00093705,-0.00001210,-0.00013848,-0.0
 0008018,-0.00011954,-0.00072835,-0.00011921,0.00097126,0.00055454,0.00
 044714,0.00014147,0.00189098,0.00108399,-0.01317675,-0.11157605,0.2492
 7733,-0.00164329,0.00101741,0.00054350,0.00248551,-0.00253543,-0.00142
 681,0.00730088,-0.00151150,0.00054143,-0.35101747,0.20568746,0.0475075
 6,0.00028761,-0.00598585,-0.01011198,0.00360210,0.00529447,0.00562058,
 -0.00015034,-0.00000941,0.00013093,0.00037473,0.00076636,-0.00017838,-
 0.00114550,0.00024540,0.00026670,0.00149877,-0.00346172,-0.00204295,-0
 .00058588,-0.00062193,-0.00241200,0.34141992,0.00068967,0.00022989,0.0
 0061637,0.00083419,0.00091475,0.00063054,0.02491861,-0.02082550,-0.008
 25027,0.17406226,-0.13382191,-0.04715661,-0.00292651,-0.00033730,-0.00
 173096,0.00398476,-0.00371974,0.00058827,-0.00036603,0.00026728,0.0004
 2975,0.00024598,-0.00099841,-0.00032986,0.00077828,0.00100403,0.000281
 71,-0.00109104,-0.00223978,-0.00505483,-0.00039010,0.00107174,0.001237
 75,-0.19715104,0.15939926,-0.00031198,-0.00030746,-0.00105895,-0.00115
 457,-0.00127846,0.00265190,0.03088406,-0.02480253,-0.01016881,0.012839
 96,-0.03055480,-0.04029772,-0.00362840,-0.00187378,0.00007303,0.001496
 97,0.00061454,-0.00590953,0.00012665,-0.00007389,-0.00025454,-0.000355
 47,0.00042886,0.00041426,0.00046778,0.00057814,-0.00024333,-0.00118317
 ,-0.00190850,-0.00323295,0.00086782,-0.00011468,-0.00040135,-0.0433826
 0,0.05744612,0.05844801,-0.00332000,0.00275168,-0.00258208,0.00500832,
 0.01325007,-0.01843237,0.00114641,0.00061226,-0.00183857,-0.00015913,-
 0.00022285,0.00055802,-0.05913576,-0.02775362,0.02981151,0.00189280,0.
 00052959,0.00338550,-0.00039651,0.00051842,-0.00029647,0.00015632,0.00
 120599,-0.00072124,0.00032488,-0.00016917,0.00072912,0.00033281,-0.000
 05336,0.00023476,-0.00080530,-0.00016403,0.00043860,-0.00009543,0.0001
 6211,-0.00038228,0.05741707,0.00433383,-0.00117353,0.00248411,-0.00662
 252,-0.00835724,0.01424035,-0.00186696,0.00038123,0.00063200,0.0003648
 9,0.00041264,-0.00007415,-0.02598359,-0.16820202,0.13567196,0.00326783
 ,0.01602765,-0.02358303,-0.00018514,-0.00007414,0.00002470,0.00007566,
 -0.00128386,0.00025974,0.00002873,-0.00002938,-0.00066428,-0.00022234,
 0.00011343,-0.00038976,0.00056358,0.00059109,-0.00058274,0.00019506,-0
 .00015702,0.00018227,0.02566172,0.17166560,0.00030546,0.00043225,0.001
 22503,-0.00048090,0.00137734,-0.00013935,0.00118712,0.00010592,-0.0002
 9523,-0.00047795,-0.00026270,0.00041152,0.02641113,0.12390605,-0.19423
 753,0.00138165,0.01429936,-0.03169633,-0.00013994,0.00008769,-0.000101
 90,0.00012840,-0.00008812,0.00015784,-0.00070288,0.00058762,-0.0001081
 5,0.00002502,-0.00017803,0.00032409,-0.00038894,-0.00028660,0.00041943
 ,0.00084826,0.00041471,-0.00069193,-0.03001888,-0.13442375,0.22351294,
 0.00256844,0.00032412,0.00076673,-0.02261598,-0.01417615,-0.00044331,-
 0.00227537,0.00581764,-0.00008367,0.00057745,-0.00058606,-0.00052823,-
 0.23561176,-0.10285851,-0.02481533,0.01217483,0.00135716,-0.00522242,-
 0.00073246,0.00058792,-0.00039915,0.00011324,-0.00018293,-0.00010529,0
 .00050420,0.00040722,0.00029853,-0.00160818,-0.00063793,-0.00018518,0.
 00033991,0.00009275,-0.00001934,0.00002317,0.00029459,0.00030815,-0.00
 211379,-0.00089917,-0.00034130,0.24881762,-0.00115385,0.00158232,-0.00
 106813,0.02144836,0.01087253,0.00289818,0.00230263,-0.00406755,0.00038
 497,-0.00090101,0.00097905,0.00085012,-0.10299334,-0.11052406,-0.00825
 239,-0.01504214,-0.01253640,-0.01777361,-0.00012600,-0.00006528,-0.000
 03649,-0.00011885,0.00016243,-0.00006100,-0.00098159,0.00117630,-0.000
 07290,0.00117342,0.00068008,-0.00020797,0.00006978,0.00008502,-0.00017
 190,0.00186932,-0.00020352,-0.00011931,-0.01801586,-0.00771503,-0.0020
 4326,0.11158134,0.12073124,0.00004854,-0.00019044,0.00063043,-0.003069
 23,-0.00013049,0.00054109,0.00029029,0.00032196,0.00007412,-0.00053657
 ,0.00030048,0.00042287,-0.02235019,-0.00680410,-0.05563877,-0.02608595
 ,-0.02699418,-0.01751985,-0.00040389,0.00036394,0.00018050,0.00018568,
 -0.00014995,-0.00010141,0.00041315,0.00022547,0.00034773,0.00000497,-0
 .00020869,0.00044133,-0.00025739,-0.00022149,0.00040591,0.00158326,0.0
 0005664,-0.00058885,0.02004271,0.01058889,0.00547995,0.03090298,0.0247
 7900,0.06426690,-0.00499810,-0.00512797,-0.00078697,-0.00090785,-0.000
 09350,0.00426863,-0.00092570,0.00125808,0.00234139,0.00083870,0.000398
 78,-0.00262154,0.00495962,-0.00351991,0.00038968,-0.02038656,0.0300567
 2,-0.03170308,0.00254177,-0.00167551,-0.00174461,-0.00092325,0.0012890
 4,0.00066986,0.00019002,-0.00035063,-0.00090816,0.00001504,-0.00020048
 ,-0.00020856,0.00013833,0.00012033,-0.00068293,-0.00235476,-0.00404573
 ,0.00340707,-0.00025271,0.00128842,0.00226374,-0.00016133,0.00088780,-
 0.00076835,0.02222680,-0.00588720,0.00459502,0.00089411,0.00327810,0.0
 0031733,-0.00755171,0.00084712,0.00140475,0.00199162,0.00138036,-0.001
 73952,-0.00152891,-0.00295659,0.01854777,-0.01569118,0.02824299,-0.237
 18639,0.21350336,-0.00056458,-0.00044742,0.00026808,-0.00046699,0.0015
 3721,0.00201068,-0.00021977,-0.00077234,0.00179841,0.00031733,-0.00017
 336,-0.00028194,-0.00045178,-0.00050950,-0.00013055,-0.00379860,-0.000
 58378,0.00178348,0.00168705,-0.00219943,-0.00392847,-0.00112198,-0.001
 15713,-0.00193703,-0.02028545,0.21836678,-0.00092539,0.00042693,-0.002
 64838,0.00146592,0.00123312,-0.00079669,0.00065654,0.00001516,-0.00070
 568,-0.00123659,-0.00004045,-0.00056326,-0.00045475,0.02085964,-0.0467
 5761,-0.02529766,0.16912429,-0.24225375,-0.00020634,0.00023104,0.00009
 664,-0.00058321,0.00087063,0.00087165,-0.00066685,0.00120488,-0.000716
 21,-0.00026277,-0.00000964,0.00005279,-0.00002375,-0.00006469,0.000089
 87,0.00251251,0.00082068,0.00126076,-0.00092834,-0.00436632,-0.0042603
 8,-0.00013316,0.00089468,0.00105804,0.02608384,-0.19119996,0.29527223\
 \-0.00000052,0.00000019,0.00000054,0.00000027,-0.00000011,-0.00000051,
 0.00000014,-0.00000011,0.00000056,0.00000008,0.00000025,-0.00000016,0.
 00000003,-0.00000036,0.00000026,-0.00000013,0.00000036,-0.00000071,-0.
 00000011,0.00000007,0.00000017,-0.00000022,0.00000018,0.00000025,0.000
 00014,-0.00000023,0.00000030,0.,-0.00000024,0.00000029,0.00000028,-0.0
 0000025,0.00000008,-0.00000021,0.00000028,0.00000027,0.00000026,-0.000
 00015,-0.00000029,0.00000023,-0.00000005,-0.00000036,-0.00000024,0.000
 00017,-0.00000069\\\@


 IF THE FACTS DO NOT CONFORM TO THE THEORY, THEY MUST BE DISPOSED OF.
 File lengths (MBytes):  RWF=     24 Int=      0 D2E=      0 Chk=      2 Scr=      1
 Normal termination of Gaussian 16 at Mon Feb  6 10:24:18 2023.
real 116.53
user 430.37
sys 4.87
