 Entering Gaussian System, Link 0=g16
 Input=gaussian_test.inp
 Output=gaussian_test.log
 Initial command:
 /sw/restricted/lms/sw/Gaussian/g16_B01/g16/l1.exe "/scratch/user/peterchao1/peterchao1/6097823_1659647596000000892845995/Gau-190203.inp" -scrdir="/scratch/user/peterchao1/peterchao1/6097823_1659647596000000892845995/"
 Entering Link 1 = /sw/restricted/lms/sw/Gaussian/g16_B01/g16/l1.exe PID=    190204.
  
 Copyright (c) 1988-2017, Gaussian, Inc.  All Rights Reserved.
  
 This is part of the Gaussian(R) 16 program.  It is based on
 the Gaussian(R) 09 system (copyright 2009, Gaussian, Inc.),
 the Gaussian(R) 03 system (copyright 2003, Gaussian, Inc.),
 the Gaussian(R) 98 system (copyright 1998, Gaussian, Inc.),
 the Gaussian(R) 94 system (copyright 1995, Gaussian, Inc.),
 the Gaussian 92(TM) system (copyright 1992, Gaussian, Inc.),
 the Gaussian 90(TM) system (copyright 1990, Gaussian, Inc.),
 the Gaussian 88(TM) system (copyright 1988, Gaussian, Inc.),
 the Gaussian 86(TM) system (copyright 1986, Carnegie Mellon
 University), and the Gaussian 82(TM) system (copyright 1983,
 Carnegie Mellon University). Gaussian is a federally registered
 trademark of Gaussian, Inc.
  
 This software contains proprietary and confidential information,
 including trade secrets, belonging to Gaussian, Inc.
  
 This software is provided under written license and may be
 used, copied, transmitted, or stored only in accord with that
 written license.
  
 The following legend is applicable only to US Government
 contracts under FAR:
  
                    RESTRICTED RIGHTS LEGEND
  
 Use, reproduction and disclosure by the US Government is
 subject to restrictions as set forth in subparagraphs (a)
 and (c) of the Commercial Computer Software - Restricted
 Rights clause in FAR 52.227-19.
  
 Gaussian, Inc.
 340 Quinnipiac St., Bldg. 40, Wallingford CT 06492
  
  
 ---------------------------------------------------------------
 Warning -- This program may not be used in any manner that
 competes with the business of Gaussian, Inc. or will provide
 assistance to any competitor of Gaussian, Inc.  The licensee
 of this program is prohibited from giving any competitor of
 Gaussian, Inc. access to this program.  By using this program,
 the user acknowledges that Gaussian, Inc. is engaged in the
 business of creating and licensing software in the field of
 computational chemistry and represents and warrants to the
 licensee that it is not a competitor of Gaussian, Inc. and that
 it will not use this program in any manner prohibited above.
 ---------------------------------------------------------------
  

 Cite this work as:
 Gaussian 16, Revision B.01,
 M. J. Frisch, G. W. Trucks, H. B. Schlegel, G. E. Scuseria, 
 M. A. Robb, J. R. Cheeseman, G. Scalmani, V. Barone, 
 G. A. Petersson, H. Nakatsuji, X. Li, M. Caricato, A. V. Marenich, 
 J. Bloino, B. G. Janesko, R. Gomperts, B. Mennucci, H. P. Hratchian, 
 J. V. Ortiz, A. F. Izmaylov, J. L. Sonnenberg, D. Williams-Young, 
 F. Ding, F. Lipparini, F. Egidi, J. Goings, B. Peng, A. Petrone, 
 T. Henderson, D. Ranasinghe, V. G. Zakrzewski, J. Gao, N. Rega, 
 G. Zheng, W. Liang, M. Hada, M. Ehara, K. Toyota, R. Fukuda, 
 J. Hasegawa, M. Ishida, T. Nakajima, Y. Honda, O. Kitao, H. Nakai, 
 T. Vreven, K. Throssell, J. A. Montgomery, Jr., J. E. Peralta, 
 F. Ogliaro, M. J. Bearpark, J. J. Heyd, E. N. Brothers, K. N. Kudin, 
 V. N. Staroverov, T. A. Keith, R. Kobayashi, J. Normand, 
 K. Raghavachari, A. P. Rendell, J. C. Burant, S. S. Iyengar, 
 J. Tomasi, M. Cossi, J. M. Millam, M. Klene, C. Adamo, R. Cammi, 
 J. W. Ochterski, R. L. Martin, K. Morokuma, O. Farkas, 
 J. B. Foresman, and D. J. Fox, Gaussian, Inc., Wallingford CT, 2016.
 
 ******************************************
 Gaussian 16:  ES64L-G16RevB.01 20-Dec-2017
                 4-Aug-2022 
 ******************************************
 %nprocshared=4
 Will use up to    4 processors via shared memory.
 %mem=8000mb
 ----------------------------------------------------------------------
 #T wB97XD/def2svpp opt=tight freq int(grid=ultrafine) scf=(verytight,q
 c)
 ----------------------------------------------------------------------
 --------------
 Comment gs min
 --------------
 Symbolic Z-matrix:
 Charge =  0 Multiplicity = 1
 C                     1.02231   0.09706   0.00907 
 H                     2.11451   0.09706   0.00907 
 H                     0.65825   0.18213  -1.01715 
 H                     0.65825   0.94325   0.59585 
 H                     0.65825  -0.83421   0.4485 
 

 GradGradGradGradGradGradGradGradGradGradGradGradGradGradGradGradGradGrad
 Initialization pass.
                           ----------------------------
                           !    Initial Parameters    !
                           ! (Angstroms and Degrees)  !
 --------------------------                            --------------------------
 ! Name  Definition              Value          Derivative Info.                !
 --------------------------------------------------------------------------------
 ! R1    R(1,2)                  1.0922         estimate D2E/DX2                !
 ! R2    R(1,3)                  1.0922         estimate D2E/DX2                !
 ! R3    R(1,4)                  1.0922         estimate D2E/DX2                !
 ! R4    R(1,5)                  1.0922         estimate D2E/DX2                !
 ! A1    A(2,1,3)              109.4708         estimate D2E/DX2                !
 ! A2    A(2,1,4)              109.471          estimate D2E/DX2                !
 ! A3    A(2,1,5)              109.4708         estimate D2E/DX2                !
 ! A4    A(3,1,4)              109.4716         estimate D2E/DX2                !
 ! A5    A(3,1,5)              109.4713         estimate D2E/DX2                !
 ! A6    A(4,1,5)              109.4718         estimate D2E/DX2                !
 ! D1    D(2,1,4,3)            119.9996         estimate D2E/DX2                !
 ! D2    D(2,1,5,3)           -119.9993         estimate D2E/DX2                !
 ! D3    D(2,1,5,4)            119.9998         estimate D2E/DX2                !
 ! D4    D(3,1,5,4)           -120.0009         estimate D2E/DX2                !
 --------------------------------------------------------------------------------
 Number of steps in this run=     24 maximum allowed number of steps=    100.
 GradGradGradGradGradGradGradGradGradGradGradGradGradGradGradGradGradGrad

                    Distance matrix (angstroms):
                    1          2          3          4          5
     1  C    0.000000
     2  H    1.092200   0.000000
     3  H    1.092201   1.783552   0.000000
     4  H    1.092194   1.783547   1.783556   0.000000
     5  H    1.092201   1.783551   1.783557   1.783557   0.000000
 This structure is nearly, but not quite of a higher symmetry.
 Consider Symm=Loose if the higher symmetry is desired.
 Framework group  C1[X(CH4)]
 Deg. of freedom     9
                         Standard orientation:                         
 ---------------------------------------------------------------------
 Center     Atomic      Atomic             Coordinates (Angstroms)
 Number     Number       Type             X           Y           Z
 ---------------------------------------------------------------------
      1          6           0        0.000002    0.000002   -0.000000
      2          1           0       -0.950951   -0.334386   -0.420446
      3          1           0       -0.057306   -0.019094    1.090530
      4          1           0        0.208614    1.018128   -0.335840
      5          1           0        0.799633   -0.664659   -0.334243
 ---------------------------------------------------------------------
 Rotational constants (GHZ):         157.6379350         157.6378628         157.6369116
    22 basis functions,    41 primitive gaussians,    23 cartesian basis functions
     5 alpha electrons        5 beta electrons
       nuclear repulsion energy        13.4083381737 Hartrees.
 NAtoms=    5 NActive=    5 NUniq=    5 SFac= 1.00D+00 NAtFMM=   60 NAOKFM=F Big=F
 Nuclear repulsion after empirical dispersion term =       13.4079361776 Hartrees.
   1 Symmetry operations used in ECPInt.
 ECPInt:  NShTT=     105 NPrTT=     431 LenC2=     106 LenP2D=     417.
 LDataN:  DoStor=T MaxTD1= 4 Len=   56
 ExpMin= 1.22D-01 ExpMax= 1.24D+03 ExpMxC= 1.86D+02 IAcc=3 IRadAn=         5 AccDes= 0.00D+00
 Harris functional with IExCor= 4639 and IRadAn=       5 diagonalized for initial guess.
 HarFok:  IExCor= 4639 AccDes= 0.00D+00 IRadAn=         5 IDoV= 1 UseB2=F ITyADJ=14
 ICtDFT=  3500011 ScaDFX=  1.000000  1.000000  1.000000  1.000000
 FoFCou: FMM=F IPFlag=           0 FMFlag=      100000 FMFlg1=           0
         NFxFlg=           0 DoJE=T BraDBF=F KetDBF=T FulRan=T
         wScrn=  0.000000 ICntrl=       500 IOpCl=  0 I1Cent=   200000004 NGrid=           0
         NMat0=    1 NMatS0=      1 NMatT0=    0 NMatD0=    1 NMtDS0=    0 NMtDT0=    0
 Petite list used in FoFCou.
     Accept linear search using points  1 and  2.
     Minimum is close to point  2 DX= -8.11D-04 DF= -2.97D-11 DXR=  8.11D-04 DFR=  6.58D-07 which will be used.
 SCF Done:  E(RwB97XD) =  -40.4631153931     a.u. after    5 cycles
            Convg  =    0.7100D-08                    21 Fock formations.
              S**2 =  0.0000                  -V/T =  2.0118

 **********************************************************************

            Population analysis using the SCF Density.

 **********************************************************************

 Orbital symmetries:
       Occupied  (A) (A) (A) (A) (A)
       Virtual   (A) (A) (A) (A) (A) (A) (A) (A) (A) (A) (A) (A)
                 (A) (A) (A) (A) (A)
 The electronic state is 1-A.
 Alpha  occ. eigenvalues --  -10.27054  -0.78204  -0.47580  -0.47580  -0.47580
 Alpha virt. eigenvalues --    0.15886   0.22925   0.22925   0.22925   0.51029
 Alpha virt. eigenvalues --    0.51029   0.51029   0.77195   0.81437   0.81437
 Alpha virt. eigenvalues --    0.81437   0.87955   1.73234   1.73235   2.22798
 Alpha virt. eigenvalues --    2.22799   2.22799
          Condensed to atoms (all electrons):
 Mulliken charges:
               1
     1  C   -0.524706
     2  H    0.131176
     3  H    0.131176
     4  H    0.131178
     5  H    0.131176
 Sum of Mulliken charges =   0.00000
 Mulliken charges with hydrogens summed into heavy atoms:
               1
     1  C    0.000000
 Electronic spatial extent (au):  <R**2>=             35.4606
 Charge=              0.0000 electrons
 Dipole moment (field-independent basis, Debye):
    X=             -0.0000    Y=              0.0000    Z=             -0.0000  Tot=              0.0000
   1 Symmetry operations used in ECPInt.
 ECPInt:  NShTT=     105 NPrTT=     431 LenC2=     106 LenP2D=     417.
 LDataN:  DoStor=T MaxTD1= 5 Len=  102
 Calling FoFJK, ICntrl=      2127 FMM=F ISym2X=0 I1Cent= 0 IOpClX= 0 NMat=1 NMatS=1 NMatT=0.

 GradGradGradGradGradGradGradGradGradGradGradGradGradGradGradGradGradGrad
 FormGI is forming the generalized inverse of G from B-inverse, IUseBI=4.
 Internal  Forces:  Max     0.006556972 RMS     0.003502460
 Step number   1 out of a maximum of   24
 All quantities printed in internal units (Hartrees-Bohrs-Radians)
 Mixed Optimization -- RFO/linear search
 Second derivative matrix not updated -- first step.
 ITU=  0
     Eigenvalues ---    0.05082   0.05715   0.08641   0.16000   0.16000
     Eigenvalues ---    0.34559   0.34560   0.34560   0.34560
 Linear search not attempted -- first point.
 Iteration  1 RMS(Cart)=  0.01011998 RMS(Int)=  0.00000013
 Iteration  2 RMS(Cart)=  0.00000009 RMS(Int)=  0.00000000
 Variable       Old X    -DE/DX   Delta X   Delta X   Delta X     New X
                                 (Linear)    (Quad)   (Total)
    R1        2.06396   0.00655   0.00000   0.01893   0.01893   2.08289
    R2        2.06396   0.00655   0.00000   0.01893   0.01893   2.08289
    R3        2.06395   0.00656   0.00000   0.01895   0.01895   2.08289
    R4        2.06396   0.00655   0.00000   0.01893   0.01893   2.08289
    A1        1.91063  -0.00000   0.00000  -0.00002  -0.00002   1.91061
    A2        1.91063   0.00000   0.00000   0.00003   0.00003   1.91066
    A3        1.91063   0.00000   0.00000   0.00001   0.00001   1.91063
    A4        1.91064  -0.00000   0.00000  -0.00001  -0.00001   1.91063
    A5        1.91063   0.00000   0.00000  -0.00001  -0.00001   1.91063
    A6        1.91064  -0.00000   0.00000  -0.00000  -0.00000   1.91064
    D1        2.09439  -0.00000   0.00000  -0.00001  -0.00001   2.09438
    D2       -2.09438   0.00000   0.00000   0.00002   0.00002  -2.09436
    D3        2.09439   0.00000   0.00000   0.00003   0.00003   2.09443
    D4       -2.09441   0.00000   0.00000   0.00002   0.00002  -2.09440
         Item               Value     Threshold  Converged?
 Maximum Force            0.006557     0.000015     NO 
 RMS     Force            0.003502     0.000010     NO 
 Maximum Displacement     0.018937     0.000060     NO 
 RMS     Displacement     0.010120     0.000040     NO 
 GradGradGradGradGradGradGradGradGradGradGradGradGradGradGradGradGradGrad

                    Distance matrix (angstroms):
                    1          2          3          4          5
     1  C    0.000000
     2  H    1.102217   0.000000
     3  H    1.102217   1.799898   0.000000
     4  H    1.102220   1.799929   1.799914   0.000000
     5  H    1.102219   1.799913   1.799911   1.799920   0.000000
 Framework group  C1[X(CH4)]
 Deg. of freedom     9
                         Standard orientation:                         
 ---------------------------------------------------------------------
 Center     Atomic      Atomic             Coordinates (Angstroms)
 Number     Number       Type             X           Y           Z
 ---------------------------------------------------------------------
      1          6           0        0.000002   -0.000000   -0.000002
      2          1           0       -0.718137    0.321418   -0.771914
      3          1           0       -0.258644    0.472131    0.961806
      4          1           0        1.017639    0.302787   -0.296015
      5          1           0       -0.040872   -1.096335    0.106137
 ---------------------------------------------------------------------
 Rotational constants (GHZ):         154.7863716         154.7849439         154.7832442
    22 basis functions,    41 primitive gaussians,    23 cartesian basis functions
     5 alpha electrons        5 beta electrons
       nuclear repulsion energy        13.2864610637 Hartrees.
 NAtoms=    5 NActive=    5 NUniq=    5 SFac= 1.00D+00 NAtFMM=   60 NAOKFM=F Big=F
 Nuclear repulsion after empirical dispersion term =       13.2860383646 Hartrees.
   1 Symmetry operations used in ECPInt.
 ECPInt:  NShTT=     105 NPrTT=     431 LenC2=     106 LenP2D=     417.
 LDataN:  DoStor=T MaxTD1= 4 Len=   56
 Initial guess from the checkpoint file:  "/scratch/user/peterchao1/peterchao1/6097823_1659647596000000892845995/Gau-190204.chk"
 B after Tr=    -0.000000    0.000000   -0.000000
         Rot=    0.868266    0.139319    0.181227    0.440298 Ang=  59.48 deg.
     Accept linear search using points  1 and  2.
     Minimum is close to point  2 DX= -9.38D-04 DF= -4.92D-11 DXR=  9.39D-04 DFR=  8.82D-07 which will be used.
 SCF Done:  E(RwB97XD) =  -40.4633532997     a.u. after    3 cycles
            Convg  =    0.6422D-08                    14 Fock formations.
              S**2 =  0.0000                  -V/T =  2.0131
   1 Symmetry operations used in ECPInt.
 ECPInt:  NShTT=     105 NPrTT=     431 LenC2=     106 LenP2D=     417.
 LDataN:  DoStor=T MaxTD1= 5 Len=  102
 Calling FoFJK, ICntrl=      2127 FMM=F ISym2X=0 I1Cent= 0 IOpClX= 0 NMat=1 NMatS=1 NMatT=0.

 GradGradGradGradGradGradGradGradGradGradGradGradGradGradGradGradGradGrad
 Using GEDIIS/GDIIS optimizer.
 FormGI is forming the generalized inverse of G from B-inverse, IUseBI=4.
 Internal  Forces:  Max     0.000207697 RMS     0.000109943
 Step number   2 out of a maximum of   24
 All quantities printed in internal units (Hartrees-Bohrs-Radians)
 Mixed Optimization -- En-DIIS/RFO-DIIS
 Trust test= 9.57D-01 RLast= 3.79D-02 DXMaxT set to 3.00D-01
 ITU=  1  0
 Use linear search instead of GDIIS.
     Eigenvalues ---    0.05082   0.05715   0.08641   0.16000   0.16000
     Eigenvalues ---    0.34559   0.34560   0.34560   0.35696
 Quartic linear search produced a step of -0.03129.
 Iteration  1 RMS(Cart)=  0.00031681 RMS(Int)=  0.00000000
 Iteration  2 RMS(Cart)=  0.00000000 RMS(Int)=  0.00000000
 Variable       Old X    -DE/DX   Delta X   Delta X   Delta X     New X
                                 (Linear)    (Quad)   (Total)
    R1        2.08289  -0.00020  -0.00059   0.00000  -0.00059   2.08230
    R2        2.08289  -0.00020  -0.00059   0.00001  -0.00058   2.08230
    R3        2.08289  -0.00021  -0.00059  -0.00000  -0.00060   2.08230
    R4        2.08289  -0.00021  -0.00059  -0.00001  -0.00060   2.08229
    A1        1.91061   0.00000   0.00000   0.00001   0.00001   1.91063
    A2        1.91066  -0.00000  -0.00000  -0.00003  -0.00003   1.91063
    A3        1.91063   0.00000  -0.00000   0.00001   0.00001   1.91064
    A4        1.91063  -0.00000   0.00000  -0.00001  -0.00001   1.91062
    A5        1.91063   0.00000   0.00000   0.00001   0.00001   1.91064
    A6        1.91064   0.00000   0.00000  -0.00000  -0.00000   1.91064
    D1        2.09438  -0.00000   0.00000  -0.00000  -0.00000   2.09438
    D2       -2.09436  -0.00000  -0.00000  -0.00003  -0.00003  -2.09440
    D3        2.09443  -0.00000  -0.00000  -0.00003  -0.00003   2.09440
    D4       -2.09440   0.00000  -0.00000   0.00001   0.00000  -2.09439
         Item               Value     Threshold  Converged?
 Maximum Force            0.000208     0.000015     NO 
 RMS     Force            0.000110     0.000010     NO 
 Maximum Displacement     0.000591     0.000060     NO 
 RMS     Displacement     0.000317     0.000040     NO 
 GradGradGradGradGradGradGradGradGradGradGradGradGradGradGradGradGradGrad

                    Distance matrix (angstroms):
                    1          2          3          4          5
     1  C    0.000000
     2  H    1.101905   0.000000
     3  H    1.101907   1.799400   0.000000
     4  H    1.101904   1.799400   1.799397   0.000000
     5  H    1.101902   1.799406   1.799407   1.799403   0.000000
 Framework group  C1[X(CH4)]
 Deg. of freedom     9
                         Standard orientation:                         
 ---------------------------------------------------------------------
 Center     Atomic      Atomic             Coordinates (Angstroms)
 Number     Number       Type             X           Y           Z
 ---------------------------------------------------------------------
      1          6           0        0.000003   -0.000001    0.000000
      2          1           0       -0.332295   -1.047853   -0.076003
      3          1           0       -0.565310    0.507627    0.798082
      4          1           0       -0.178145    0.512309   -0.959163
      5          1           0        1.075735    0.027921    0.237083
 ---------------------------------------------------------------------
 Rotational constants (GHZ):         154.8735311         154.8728127         154.8724476
    22 basis functions,    41 primitive gaussians,    23 cartesian basis functions
     5 alpha electrons        5 beta electrons
       nuclear repulsion energy        13.2902407239 Hartrees.
 NAtoms=    5 NActive=    5 NUniq=    5 SFac= 1.00D+00 NAtFMM=   60 NAOKFM=F Big=F
 Nuclear repulsion after empirical dispersion term =       13.2898186824 Hartrees.
   1 Symmetry operations used in ECPInt.
 ECPInt:  NShTT=     105 NPrTT=     431 LenC2=     106 LenP2D=     417.
 LDataN:  DoStor=T MaxTD1= 4 Len=   56
 Initial guess from the checkpoint file:  "/scratch/user/peterchao1/peterchao1/6097823_1659647596000000892845995/Gau-190204.chk"
 B after Tr=     0.000000    0.000000    0.000000
         Rot=    0.673901    0.308436   -0.233045   -0.629615 Ang=  95.26 deg.
     Minimum is close to point  2 DX=  4.00D-05 DF=  0.00D+00 DXR=  4.00D-05 DFR=  0.00D+00 which will be used.
 SCF Done:  E(RwB97XD) =  -40.4633538463     a.u. after    2 cycles
            Convg  =    0.1087D-07                     9 Fock formations.
              S**2 =  0.0000                  -V/T =  2.0131
   1 Symmetry operations used in ECPInt.
 ECPInt:  NShTT=     105 NPrTT=     431 LenC2=     106 LenP2D=     417.
 LDataN:  DoStor=T MaxTD1= 5 Len=  102
 Calling FoFJK, ICntrl=      2127 FMM=F ISym2X=0 I1Cent= 0 IOpClX= 0 NMat=1 NMatS=1 NMatT=0.

 GradGradGradGradGradGradGradGradGradGradGradGradGradGradGradGradGradGrad
 Using GEDIIS/GDIIS optimizer.
 FormGI is forming the generalized inverse of G from B-inverse, IUseBI=4.
 Internal  Forces:  Max     0.000003734 RMS     0.000001583
 Step number   3 out of a maximum of   24
 All quantities printed in internal units (Hartrees-Bohrs-Radians)
 Mixed Optimization -- En-DIIS/RFO-DIIS
 Swapping is turned off.
 Trust test= 2.31D+00 RLast= 1.19D-03 DXMaxT set to 3.00D-01
 ITU=  0  1  0
     Eigenvalues ---    0.05082   0.05715   0.08644   0.15999   0.16000
     Eigenvalues ---    0.34227   0.34560   0.34560   0.34712
 En-DIIS/RFO-DIIS/Sim-DIIS IScMMF=       -3 using points:     3    2
 RFO step:  Lambda= 0.00000000D+00.
 DidBck=F Rises=F RFO-DIIS coefs:    1.00945   -0.00945
 Iteration  1 RMS(Cart)=  0.00000816 RMS(Int)=  0.00000000
 Iteration  2 RMS(Cart)=  0.00000000 RMS(Int)=  0.00000000
 Variable       Old X    -DE/DX   Delta X   Delta X   Delta X     New X
                                 (Linear)    (Quad)   (Total)
    R1        2.08230  -0.00000  -0.00001  -0.00000  -0.00001   2.08229
    R2        2.08230  -0.00000  -0.00001  -0.00001  -0.00001   2.08229
    R3        2.08230  -0.00000  -0.00001  -0.00000  -0.00001   2.08229
    R4        2.08229  -0.00000  -0.00001   0.00001  -0.00000   2.08229
    A1        1.91063   0.00000   0.00000   0.00001   0.00001   1.91063
    A2        1.91063   0.00000  -0.00000   0.00001   0.00001   1.91064
    A3        1.91064  -0.00000   0.00000  -0.00001  -0.00001   1.91063
    A4        1.91062   0.00000  -0.00000   0.00002   0.00002   1.91064
    A5        1.91064  -0.00000   0.00000  -0.00002  -0.00002   1.91062
    A6        1.91064  -0.00000  -0.00000  -0.00000  -0.00000   1.91064
    D1        2.09438   0.00000  -0.00000   0.00002   0.00002   2.09440
    D2       -2.09440   0.00000  -0.00000   0.00001   0.00001  -2.09439
    D3        2.09440   0.00000  -0.00000   0.00000   0.00000   2.09440
    D4       -2.09439  -0.00000   0.00000  -0.00001  -0.00001  -2.09440
         Item               Value     Threshold  Converged?
 Maximum Force            0.000004     0.000015     YES
 RMS     Force            0.000002     0.000010     YES
 Maximum Displacement     0.000016     0.000060     YES
 RMS     Displacement     0.000008     0.000040     YES
 Optimization completed.
    -- Stationary point found.
                           ----------------------------
                           !   Optimized Parameters   !
                           ! (Angstroms and Degrees)  !
 --------------------------                            --------------------------
 ! Name  Definition              Value          Derivative Info.                !
 --------------------------------------------------------------------------------
 ! R1    R(1,2)                  1.1019         -DE/DX =    0.0                 !
 ! R2    R(1,3)                  1.1019         -DE/DX =    0.0                 !
 ! R3    R(1,4)                  1.1019         -DE/DX =    0.0                 !
 ! R4    R(1,5)                  1.1019         -DE/DX =    0.0                 !
 ! A1    A(2,1,3)              109.4708         -DE/DX =    0.0                 !
 ! A2    A(2,1,4)              109.471          -DE/DX =    0.0                 !
 ! A3    A(2,1,5)              109.4717         -DE/DX =    0.0                 !
 ! A4    A(3,1,4)              109.4706         -DE/DX =    0.0                 !
 ! A5    A(3,1,5)              109.4717         -DE/DX =    0.0                 !
 ! A6    A(4,1,5)              109.4715         -DE/DX =    0.0                 !
 ! D1    D(2,1,4,3)            119.999          -DE/DX =    0.0                 !
 ! D2    D(2,1,5,3)           -120.0            -DE/DX =    0.0                 !
 ! D3    D(2,1,5,4)            120.0003         -DE/DX =    0.0                 !
 ! D4    D(3,1,5,4)           -119.9997         -DE/DX =    0.0                 !
 --------------------------------------------------------------------------------
 GradGradGradGradGradGradGradGradGradGradGradGradGradGradGradGradGradGrad

                    Distance matrix (angstroms):
                    1          2          3          4          5
     1  C    0.000000
     2  H    1.101905   0.000000
     3  H    1.101907   1.799400   0.000000
     4  H    1.101904   1.799400   1.799397   0.000000
     5  H    1.101902   1.799406   1.799407   1.799403   0.000000
 Framework group  C1[X(CH4)]
 Deg. of freedom     9
                         Standard orientation:                         
 ---------------------------------------------------------------------
 Center     Atomic      Atomic             Coordinates (Angstroms)
 Number     Number       Type             X           Y           Z
 ---------------------------------------------------------------------
      1          6           0        0.000003   -0.000001    0.000000
      2          1           0       -0.332295   -1.047853   -0.076003
      3          1           0       -0.565310    0.507627    0.798082
      4          1           0       -0.178145    0.512309   -0.959163
      5          1           0        1.075735    0.027921    0.237083
 ---------------------------------------------------------------------
 Rotational constants (GHZ):         154.8735311         154.8728127         154.8724476

 **********************************************************************

            Population analysis using the SCF Density.

 **********************************************************************

 Orbital symmetries:
       Occupied  (A) (A) (A) (A) (A)
       Virtual   (A) (A) (A) (A) (A) (A) (A) (A) (A) (A) (A) (A)
                 (A) (A) (A) (A) (A)
 The electronic state is 1-A.
 Alpha  occ. eigenvalues --  -10.27467  -0.77918  -0.47412  -0.47412  -0.47412
 Alpha virt. eigenvalues --    0.15714   0.22688   0.22688   0.22688   0.51096
 Alpha virt. eigenvalues --    0.51096   0.51097   0.76612   0.80744   0.80744
 Alpha virt. eigenvalues --    0.80744   0.86977   1.73418   1.73419   2.21922
 Alpha virt. eigenvalues --    2.21922   2.21922
          Condensed to atoms (all electrons):
 Mulliken charges:
               1
     1  C   -0.532217
     2  H    0.133054
     3  H    0.133053
     4  H    0.133054
     5  H    0.133055
 Sum of Mulliken charges =   0.00000
 Mulliken charges with hydrogens summed into heavy atoms:
               1
     1  C    0.000000
 Electronic spatial extent (au):  <R**2>=             35.8264
 Charge=              0.0000 electrons
 Dipole moment (field-independent basis, Debye):
    X=             -0.0000    Y=             -0.0000    Z=              0.0000  Tot=              0.0000
 1\1\GINC-C244\FOpt\RwB97XD\def2SVPP\C1H4\PETERCHAO1\04-Aug-2022\0\\#T 
 wB97XD/def2svpp opt=tight freq int(grid=ultrafine) scf=(verytight,qc)\
 \Comment gs min\\0,1\C,1.022313403,0.0970537658,0.0090709372\H,2.12421
 81302,0.0970613653,0.0090674732\H,0.6550149803,0.1828904148,-1.0262663
 265\H,0.6550114118,0.9507683389,0.6010609372\H,0.6550120746,-0.8424838
 848,0.4524069789\\Version=ES64L-G16RevB.01\State=1-A\HF=-40.4633538\RM
 SD=8.338e-10\RMSF=2.519e-06\Dipole=0.0000014,0.0000022,-0.0000021\Quad
 rupole=-0.0000008,0.0000079,-0.0000071,0.0000069,-0.0000056,-0.000014\
 PG=C01 [X(C1H4)]\\@


 STEINBACH'S GUIDELINES FOR SYSTEMS PROGRAMMING:
 NEVER TEST FOR AN ERROR CONDITION YOU DON'T KNOW HOW
 TO HANDLE.
 File lengths (MBytes):  RWF=      6 Int=      0 D2E=      0 Chk=      1 Scr=      1
 Normal termination of Gaussian 16 at Thu Aug  4 16:13:29 2022.
 Link1:  Proceeding to internal job step number  2.
 ---------------------------------------------------------------------
 #T Geom=AllCheck Guess=TCheck SCRF=Check GenChk RwB97XD/def2SVPP Freq
 ---------------------------------------------------------------------
 Structure from the checkpoint file:  "/scratch/user/peterchao1/peterchao1/6097823_1659647596000000892845995/Gau-190204.chk"
 --------------
 Comment gs min
 --------------
 Charge =  0 Multiplicity = 1
 Redundant internal coordinates found in file.  (old form).
 C,0,1.022313403,0.0970537658,0.0090709372
 H,0,2.1242181302,0.0970613653,0.0090674732
 H,0,0.6550149803,0.1828904148,-1.0262663265
 H,0,0.6550114118,0.9507683389,0.6010609372
 H,0,0.6550120746,-0.8424838848,0.4524069789
 Recover connectivity data from disk.

 GradGradGradGradGradGradGradGradGradGradGradGradGradGradGradGradGradGrad
 Initialization pass.
                           ----------------------------
                           !    Initial Parameters    !
                           ! (Angstroms and Degrees)  !
 --------------------------                            --------------------------
 ! Name  Definition              Value          Derivative Info.                !
 --------------------------------------------------------------------------------
 ! R1    R(1,2)                  1.1019         calculate D2E/DX2 analytically  !
 ! R2    R(1,3)                  1.1019         calculate D2E/DX2 analytically  !
 ! R3    R(1,4)                  1.1019         calculate D2E/DX2 analytically  !
 ! R4    R(1,5)                  1.1019         calculate D2E/DX2 analytically  !
 ! A1    A(2,1,3)              109.4708         calculate D2E/DX2 analytically  !
 ! A2    A(2,1,4)              109.471          calculate D2E/DX2 analytically  !
 ! A3    A(2,1,5)              109.4717         calculate D2E/DX2 analytically  !
 ! A4    A(3,1,4)              109.4706         calculate D2E/DX2 analytically  !
 ! A5    A(3,1,5)              109.4717         calculate D2E/DX2 analytically  !
 ! A6    A(4,1,5)              109.4715         calculate D2E/DX2 analytically  !
 ! D1    D(2,1,4,3)            119.999          calculate D2E/DX2 analytically  !
 ! D2    D(2,1,5,3)           -120.0            calculate D2E/DX2 analytically  !
 ! D3    D(2,1,5,4)            120.0003         calculate D2E/DX2 analytically  !
 ! D4    D(3,1,5,4)           -119.9997         calculate D2E/DX2 analytically  !
 --------------------------------------------------------------------------------
 Number of steps in this run=      2 maximum allowed number of steps=      2.
 GradGradGradGradGradGradGradGradGradGradGradGradGradGradGradGradGradGrad

                    Distance matrix (angstroms):
                    1          2          3          4          5
     1  C    0.000000
     2  H    1.101905   0.000000
     3  H    1.101907   1.799400   0.000000
     4  H    1.101904   1.799400   1.799397   0.000000
     5  H    1.101902   1.799406   1.799407   1.799403   0.000000
 Framework group  C1[X(CH4)]
 Deg. of freedom     9
                         Standard orientation:                         
 ---------------------------------------------------------------------
 Center     Atomic      Atomic             Coordinates (Angstroms)
 Number     Number       Type             X           Y           Z
 ---------------------------------------------------------------------
      1          6           0        0.000003   -0.000001    0.000000
      2          1           0       -0.332295   -1.047853   -0.076003
      3          1           0       -0.565310    0.507627    0.798082
      4          1           0       -0.178145    0.512309   -0.959163
      5          1           0        1.075735    0.027921    0.237083
 ---------------------------------------------------------------------
 Rotational constants (GHZ):         154.8735311         154.8728127         154.8724476
    22 basis functions,    41 primitive gaussians,    23 cartesian basis functions
     5 alpha electrons        5 beta electrons
       nuclear repulsion energy        13.2902407239 Hartrees.
 NAtoms=    5 NActive=    5 NUniq=    5 SFac= 1.00D+00 NAtFMM=   60 NAOKFM=F Big=F
 Nuclear repulsion after empirical dispersion term =       13.2898186824 Hartrees.
   1 Symmetry operations used in ECPInt.
 ECPInt:  NShTT=     105 NPrTT=     431 LenC2=     106 LenP2D=     417.
 LDataN:  DoStor=T MaxTD1= 4 Len=   56
 Initial guess from the checkpoint file:  "/scratch/user/peterchao1/peterchao1/6097823_1659647596000000892845995/Gau-190204.chk"
 B after Tr=    -0.000000    0.000000   -0.000000
         Rot=    1.000000    0.000000    0.000000   -0.000000 Ang=   0.00 deg.
 SCF Done:  E(RwB97XD) =  -40.4633538463     a.u. after    1 cycles
            Convg  =    0.1087D-07                     1 Fock formations.
              S**2 =  0.0000                  -V/T =  2.0131
 DoSCS=F DFT=T ScalE2(SS,OS)=  1.000000  1.000000
 NROrb=     22 NOA=     5 NOB=     5 NVA=    17 NVB=    17
   1 Symmetry operations used in ECPInt.
 ECPInt:  NShTT=     105 NPrTT=     431 LenC2=     106 LenP2D=     417.
 LDataN:  DoStor=T MaxTD1= 5 Len=  102
 Symmetrizing basis deriv contribution to polar:
 IMax=3 JMax=2 DiffMx= 0.00D+00
 Calling FoFCou, ICntrl=  3107 FMM=F I1Cent=   0 AccDes= 0.00D+00.
 End of G2Drv F.D. properties file   721 does not exist.
 End of G2Drv F.D. properties file   722 does not exist.
 End of G2Drv F.D. properties file   788 does not exist.
          IDoAtm=11111
 End of Minotr F.D. properties file   721 does not exist.
 End of Minotr F.D. properties file   722 does not exist.
 End of Minotr F.D. properties file   788 does not exist.

 **********************************************************************

            Population analysis using the SCF Density.

 **********************************************************************

 Orbital symmetries:
       Occupied  (A) (A) (A) (A) (A)
       Virtual   (A) (A) (A) (A) (A) (A) (A) (A) (A) (A) (A) (A)
                 (A) (A) (A) (A) (A)
 The electronic state is 1-A.
 Alpha  occ. eigenvalues --  -10.27467  -0.77918  -0.47412  -0.47412  -0.47412
 Alpha virt. eigenvalues --    0.15714   0.22688   0.22688   0.22688   0.51096
 Alpha virt. eigenvalues --    0.51096   0.51097   0.76612   0.80744   0.80744
 Alpha virt. eigenvalues --    0.80744   0.86977   1.73418   1.73419   2.21922
 Alpha virt. eigenvalues --    2.21922   2.21922
          Condensed to atoms (all electrons):
 Mulliken charges:
               1
     1  C   -0.532217
     2  H    0.133054
     3  H    0.133053
     4  H    0.133054
     5  H    0.133055
 Sum of Mulliken charges =   0.00000
 Mulliken charges with hydrogens summed into heavy atoms:
               1
     1  C    0.000000
 APT charges:
               1
     1  C   -0.073441
     2  H    0.018418
     3  H    0.018325
     4  H    0.018334
     5  H    0.018364
 Sum of APT charges =  -0.00000
 APT charges with hydrogens summed into heavy atoms:
               1
     1  C   -0.000000
 Electronic spatial extent (au):  <R**2>=             35.8264
 Charge=              0.0000 electrons
 Dipole moment (field-independent basis, Debye):
    X=             -0.0000    Y=             -0.0000    Z=              0.0000  Tot=              0.0000
  Exact polarizability:  12.260  -0.002  12.258  -0.001  -0.001  12.263
 Approx polarizability:  11.160  -0.000  11.160  -0.000   0.000  11.160
   1 Symmetry operations used in ECPInt.
 ECPInt:  NShTT=     105 NPrTT=     431 LenC2=     106 LenP2D=     417.
 LDataN:  DoStor=T MaxTD1= 6 Len=  172
 Calling FoFJK, ICntrl=    100127 FMM=F ISym2X=0 I1Cent= 0 IOpClX= 0 NMat=1 NMatS=1 NMatT=0.
 Full mass-weighted force constant matrix:
 Low frequencies ---  -49.3030   -0.0006   -0.0004    0.0012   22.5877   38.1748
 Low frequencies --- 1340.2260 1340.3356 1340.5466
 Diagonal vibrational polarizability:
        0.3628439       0.3628747       0.3629088
 Harmonic frequencies (cm**-1), IR intensities (KM/Mole), Raman scattering
 activities (A**4/AMU), depolarization ratios for plane and unpolarized
 incident light, reduced masses (AMU), force constants (mDyne/A),
 and normal coordinates:
                      1                      2                      3
                      A                      A                      A
 Frequencies --   1340.2260              1340.3356              1340.5466
 Red. masses --      1.1750                 1.1750                 1.1750
 Frc consts  --      1.2435                 1.2437                 1.2441
 IR Inten    --     21.6549                21.6621                21.6757
  Atom  AN      X      Y      Z        X      Y      Z        X      Y      Z
     1   6     0.02  -0.02  -0.12    -0.11   0.04  -0.03    -0.05  -0.11   0.01
     2   1    -0.15  -0.01   0.58     0.55  -0.18   0.15     0.02  -0.11  -0.09
     3   1     0.20  -0.19   0.14     0.38  -0.07   0.38     0.30   0.50  -0.13
     4   1    -0.20   0.34   0.13     0.48  -0.04  -0.18     0.28   0.42   0.22
     5   1    -0.13   0.09   0.58    -0.09  -0.23   0.01    -0.03   0.55  -0.10
                      4                      5                      6
                      A                      A                      A
 Frequencies --   1548.2893              1548.3486              3020.4791
 Red. masses --      1.0078                 1.0078                 1.0078
 Frc consts  --      1.4234                 1.4236                 5.4174
 IR Inten    --      0.0000                 0.0000                 0.0001
  Atom  AN      X      Y      Z        X      Y      Z        X      Y      Z
     1   6    -0.00  -0.00   0.00     0.00   0.00  -0.00     0.00   0.00  -0.00
     2   1     0.19  -0.09   0.45    -0.44   0.12   0.21    -0.15  -0.48  -0.03
     3   1    -0.42  -0.04  -0.27    -0.09  -0.44   0.21    -0.26   0.23   0.36
     4   1     0.13   0.44   0.21     0.48  -0.08  -0.13    -0.08   0.23  -0.43
     5   1     0.09  -0.30  -0.39     0.05   0.40  -0.29     0.49   0.01   0.11
                      7                      8                      9
                      A                      A                      A
 Frequencies --   3167.1497              3167.4020              3167.8389
 Red. masses --      1.1051                 1.1051                 1.1051
 Frc consts  --      6.5313                 6.5324                 6.5342
 IR Inten    --     14.2510                14.3207                14.3385
  Atom  AN      X      Y      Z        X      Y      Z        X      Y      Z
     1   6    -0.02  -0.09  -0.03    -0.09   0.01   0.03    -0.03   0.04  -0.08
     2   1     0.25   0.79   0.05     0.02   0.10   0.01    -0.06  -0.18  -0.02
     3   1    -0.24   0.20   0.32     0.34  -0.32  -0.50    -0.15   0.13   0.19
     4   1    -0.02   0.03  -0.08    -0.02   0.04  -0.06     0.14  -0.40   0.74
     5   1     0.29  -0.00   0.06     0.69   0.02   0.16     0.38   0.01   0.07
 
 Temperature   298.150 Kelvin.  Pressure   1.00000 Atm.
 Zero-point correction=                           0.044745 (Hartree/Particle)
 Thermal correction to Energy=                    0.047614
 Thermal correction to Enthalpy=                  0.048558
 Thermal correction to Gibbs Free Energy=         0.025052
 Sum of electronic and zero-point Energies=            -40.418609
 Sum of electronic and thermal Energies=               -40.415740
 Sum of electronic and thermal Enthalpies=             -40.414796
 Sum of electronic and thermal Free Energies=          -40.438302
 FormGI is forming the generalized inverse of G from B-inverse, IUseBI=4.

 GradGradGradGradGradGradGradGradGradGradGradGradGradGradGradGradGradGrad
 Internal  Forces:  Max     0.000003734 RMS     0.000001583
 Step number   1 out of a maximum of    2
 All quantities printed in internal units (Hartrees-Bohrs-Radians)
 Second derivative matrix not updated -- analytic derivatives used.
 ITU=  0
     Eigenvalues ---    0.03810   0.04294   0.06536   0.13075   0.13118
     Eigenvalues ---    0.34711   0.34720   0.34738   0.34797
 Angle between quadratic step and forces=  39.29 degrees.
 Linear search not attempted -- first point.
 Iteration  1 RMS(Cart)=  0.00001024 RMS(Int)=  0.00000000
 Iteration  2 RMS(Cart)=  0.00000000 RMS(Int)=  0.00000000
 Variable       Old X    -DE/DX   Delta X   Delta X   Delta X     New X
                                 (Linear)    (Quad)   (Total)
    R1        2.08230  -0.00000   0.00000  -0.00001  -0.00001   2.08229
    R2        2.08230  -0.00000   0.00000  -0.00001  -0.00001   2.08229
    R3        2.08230  -0.00000   0.00000  -0.00001  -0.00001   2.08229
    R4        2.08229  -0.00000   0.00000   0.00000   0.00000   2.08229
    A1        1.91063   0.00000   0.00000   0.00001   0.00001   1.91064
    A2        1.91063   0.00000   0.00000   0.00001   0.00001   1.91064
    A3        1.91064  -0.00000   0.00000  -0.00002  -0.00002   1.91063
    A4        1.91062   0.00000   0.00000   0.00002   0.00002   1.91065
    A5        1.91064  -0.00000   0.00000  -0.00002  -0.00002   1.91062
    A6        1.91064  -0.00000   0.00000  -0.00000  -0.00000   1.91063
    D1        2.09438   0.00000   0.00000   0.00003   0.00003   2.09441
    D2       -2.09440   0.00000   0.00000   0.00001   0.00001  -2.09438
    D3        2.09440   0.00000   0.00000   0.00000   0.00000   2.09440
    D4       -2.09439  -0.00000   0.00000  -0.00001  -0.00001  -2.09440
         Item               Value     Threshold  Converged?
 Maximum Force            0.000004     0.000015     YES
 RMS     Force            0.000002     0.000010     YES
 Maximum Displacement     0.000020     0.000060     YES
 RMS     Displacement     0.000010     0.000040     YES
 Optimization completed.
    -- Stationary point found.
                           ----------------------------
                           !   Optimized Parameters   !
                           ! (Angstroms and Degrees)  !
 --------------------------                            --------------------------
 ! Name  Definition              Value          Derivative Info.                !
 --------------------------------------------------------------------------------
 ! R1    R(1,2)                  1.1019         -DE/DX =    0.0                 !
 ! R2    R(1,3)                  1.1019         -DE/DX =    0.0                 !
 ! R3    R(1,4)                  1.1019         -DE/DX =    0.0                 !
 ! R4    R(1,5)                  1.1019         -DE/DX =    0.0                 !
 ! A1    A(2,1,3)              109.4708         -DE/DX =    0.0                 !
 ! A2    A(2,1,4)              109.471          -DE/DX =    0.0                 !
 ! A3    A(2,1,5)              109.4717         -DE/DX =    0.0                 !
 ! A4    A(3,1,4)              109.4706         -DE/DX =    0.0                 !
 ! A5    A(3,1,5)              109.4717         -DE/DX =    0.0                 !
 ! A6    A(4,1,5)              109.4715         -DE/DX =    0.0                 !
 ! D1    D(2,1,4,3)            119.999          -DE/DX =    0.0                 !
 ! D2    D(2,1,5,3)           -120.0            -DE/DX =    0.0                 !
 ! D3    D(2,1,5,4)            120.0003         -DE/DX =    0.0                 !
 ! D4    D(3,1,5,4)           -119.9997         -DE/DX =    0.0                 !
 --------------------------------------------------------------------------------
 GradGradGradGradGradGradGradGradGradGradGradGradGradGradGradGradGradGrad


 ----------------------------------------------------------------------

 Electric dipole moment (input orientation):
 (Debye = 10**-18 statcoulomb cm , SI units = C m)
                  (au)            (Debye)         (10**-30 SI)
   Tot        0.000000D+00      0.000000D+00      0.000000D+00
   x          0.000000D+00      0.000000D+00      0.000000D+00
   y          0.000000D+00      0.000000D+00      0.000000D+00
   z          0.000000D+00      0.000000D+00      0.000000D+00

 Dipole polarizability, Alpha (input orientation).
 (esu units = cm**3 , SI units = C**2 m**2 J**-1)
 Alpha(0;0):
               (au)            (10**-24 esu)      (10**-40 SI)
   iso        0.122604D+02      0.181680D+01      0.202147D+01
   aniso      0.550021D-02      0.815047D-03      0.906862D-03
   xx         0.122572D+02      0.181634D+01      0.202095D+01
   yx        -0.123689D-02     -0.183288D-03     -0.203935D-03
   yy         0.122610D+02      0.181690D+01      0.202157D+01
   zx         0.858758D-04      0.127255D-04      0.141590D-04
   zy         0.408091D-03      0.604728D-04      0.672851D-04
   zz         0.122629D+02      0.181718D+01      0.202188D+01

 ----------------------------------------------------------------------

 Dipole orientation:
     6          1.70087445          0.18725258          0.91547903
     1          3.56040843          0.54465312          1.78171447
     1          0.23929972          1.25643337          1.94340713
     1          1.26949325         -1.84755468          1.01256761
     1          1.73428304          0.79546900         -1.07572691

 Electric dipole moment (dipole orientation):
 (Debye = 10**-18 statcoulomb cm , SI units = C m)
                  (au)            (Debye)         (10**-30 SI)
   Tot        0.000000D+00      0.000000D+00      0.000000D+00
   x          0.000000D+00      0.000000D+00      0.000000D+00
   y          0.000000D+00      0.000000D+00      0.000000D+00
   z          0.000000D+00      0.000000D+00      0.000000D+00

 Dipole polarizability, Alpha (dipole orientation).
 (esu units = cm**3 , SI units = C**2 m**2 J**-1)
 Alpha(0;0):
               (au)            (10**-24 esu)      (10**-40 SI)
   iso        0.122604D+02      0.181680D+01      0.202147D+01
   aniso      0.550021D-02      0.815047D-03      0.906862D-03
   xx         0.122587D+02      0.181655D+01      0.202119D+01
   yx        -0.390424D-03     -0.578549D-04     -0.643722D-04
   yy         0.122624D+02      0.181711D+01      0.202180D+01
   zx        -0.242015D-02     -0.358629D-03     -0.399028D-03
   zy         0.705933D-03      0.104608D-03      0.116393D-03
   zz         0.122600D+02      0.181675D+01      0.202141D+01

 ----------------------------------------------------------------------
 1\1\GINC-C244\Freq\RwB97XD\def2SVPP\C1H4\PETERCHAO1\04-Aug-2022\0\\#T 
 Geom=AllCheck Guess=TCheck SCRF=Check GenChk RwB97XD/def2SVPP Freq\\Co
 mment gs min\\0,1\C,1.022313403,0.0970537658,0.0090709372\H,2.12421813
 02,0.0970613653,0.0090674732\H,0.6550149803,0.1828904148,-1.0262663265
 \H,0.6550114118,0.9507683389,0.6010609372\H,0.6550120746,-0.8424838848
 ,0.4524069789\\Version=ES64L-G16RevB.01\State=1-A\HF=-40.4633538\RMSD=
 8.338e-10\RMSF=2.519e-06\ZeroPoint=0.0447446\Thermal=0.0476137\Dipole=
 0.0000014,0.0000022,-0.0000021\DipoleDeriv=-0.073747,-0.0001345,-0.000
 0632,-0.0000794,-0.0733581,0.0000554,-0.000007,0.0000485,-0.0732167,-0
 .1144475,0.0000671,0.0000582,0.000086,0.0848537,0.0000386,0.0000047,0.
 0000616,0.0848484,0.0627048,0.0052682,-0.0624072,0.0052092,0.0836705,0
 .0146409,-0.0624726,0.014589,-0.0914016,0.0627146,0.0514198,0.0357045,
 0.0514484,-0.0349688,-0.0831943,0.0358095,-0.0831794,0.0272572,0.06277
 51,-0.0566206,0.0267078,-0.0566642,-0.0601973,0.0684595,0.0266653,0.06
 84803,0.0525127\Polar=12.2572378,-0.0012369,12.2610344,0.0000859,0.000
 4081,12.2629216\Quadrupole=-0.0000008,0.0000079,-0.0000071,0.0000069,-
 0.0000056,-0.000014\PG=C01 [X(C1H4)]\NImag=0\\0.56463282,-0.00009158,0
 .56473952,-0.00005356,0.00000447,0.56467996,-0.32785140,0.00001589,-0.
 00001165,0.34685842,0.00001000,-0.04778239,0.00000515,-0.00001702,0.04
 428943,-0.00001040,-0.00000139,-0.04778193,0.00001058,-0.00001297,0.04
 428645,-0.07892381,0.00727198,-0.08771977,-0.00633169,0.00251785,-0.03
 036850,0.07792067,0.00728193,-0.04948693,0.02049801,-0.00015509,-0.001
 40734,-0.00041776,-0.00786323,0.04609454,-0.08771038,0.02050562,-0.295
 09859,0.00188040,-0.00042557,0.00373423,0.09476199,-0.02215137,0.31147
 985,-0.07895115,0.07241457,0.05021947,-0.00633944,0.02503797,0.0173682
 7,0.00366938,-0.01051852,-0.00537128,0.07795814,0.07239892,-0.21602195
 ,-0.11664607,-0.00155126,0.00207885,0.00244235,-0.00253847,0.00420162,
 0.00347234,-0.07821456,0.22602689,0.05020080,-0.11664416,-0.12865454,-
 0.00107031,0.00244158,0.00025929,0.01153681,-0.02297975,-0.01185783,-0
 .05424573,0.12603861,0.13162426,-0.07890646,-0.07961087,0.03756551,-0.
 00633590,-0.02754880,0.01300005,0.00366544,0.01125491,-0.00356072,0.00
 366306,0.00990537,-0.00642157,0.07791386,-0.07959928,-0.25144824,0.096
 13843,0.00170748,0.00282146,-0.00201023,0.00061188,0.00059811,-0.00140
 103,-0.00871946,-0.01628540,0.01114372,0.08599939,0.26431408,0.0375735
 4,0.09613546,-0.09314491,-0.00080902,-0.00200819,-0.00049804,0.0117894
 7,0.02505086,-0.00825766,-0.00797074,-0.01530724,0.00862881,-0.0405832
 6,-0.10387089,0.09327180\\-0.00000064,-0.00000664,0.00000307,0.0000020
 7,0.00000107,0.00000090,0.00000077,0.00000347,-0.00000396,-0.00000134,
 0.00000202,0.00000017,-0.00000086,0.00000008,-0.00000019\\\@


 TIMES HAVE CHANGED. IN THE BIBLE WHEN AN ASS
 SPOKE IT WAS CONSIDERED A MIRACLE.
 File lengths (MBytes):  RWF=      6 Int=      0 D2E=      0 Chk=      1 Scr=      1
 Normal termination of Gaussian 16 at Thu Aug  4 16:13:37 2022.
real 20.58
user 43.07
sys 3.59
