      -----------------------------------------------------------      
     |                   =====================                   |     
     |                           x T B                           |     
     |                   =====================                   |     
     |                         S. Grimme                         |     
     |          Mulliken Center for Theoretical Chemistry        |     
     |                    University of Bonn                     |     
      -----------------------------------------------------------      

   * xtb version 6.5.1 (b24c23e) compiled by 'conda@728c89f4b128' on 2022-07-12

   xtb is free software: you can redistribute it and/or modify it under
   the terms of the GNU Lesser General Public License as published by
   the Free Software Foundation, either version 3 of the License, or
   (at your option) any later version.
   
   xtb is distributed in the hope that it will be useful,
   but WITHOUT ANY WARRANTY; without even the implied warranty of
   MERCHANTABILITY or FITNESS FOR A PARTICULAR PURPOSE.  See the
   GNU Lesser General Public License for more details.
   
   Cite this work as:
   * C. Bannwarth, E. Caldeweyher, S. Ehlert, A. Hansen, P. Pracht,
     J. Seibert, S. Spicher, S. Grimme, WIREs Comput. Mol. Sci., 2020, 11,
     e01493. DOI: 10.1002/wcms.1493
   
   for GFN2-xTB:
   * C. Bannwarth, S. Ehlert and S. Grimme., J. Chem. Theory Comput., 2019,
     15, 1652-1671. DOI: 10.1021/acs.jctc.8b01176
   for GFN1-xTB:
   * S. Grimme, C. Bannwarth, P. Shushkov, J. Chem. Theory Comput., 2017,
     13, 1989-2009. DOI: 10.1021/acs.jctc.7b00118
   for GFN0-xTB:
   * P. Pracht, E. Caldeweyher, S. Ehlert, S. Grimme, ChemRxiv, 2019, preprint.
     DOI: 10.26434/chemrxiv.8326202.v1
   for GFN-FF:
   * S. Spicher and S. Grimme, Angew. Chem. Int. Ed., 2020, 59, 15665-15673.
     DOI: 10.1002/anie.202004239
   
   for ALPB and GBSA implicit solvation:
   * S. Ehlert, M. Stahn, S. Spicher, S. Grimme, J. Chem. Theory Comput.,
     2021, 17, 4250-4261. DOI: 10.1021/acs.jctc.1c00471
   
   for DFT-D4:
   * E. Caldeweyher, C. Bannwarth and S. Grimme, J. Chem. Phys., 2017,
     147, 034112. DOI: 10.1063/1.4993215
   * E. Caldeweyher, S. Ehlert, A. Hansen, H. Neugebauer, S. Spicher,
     C. Bannwarth and S. Grimme, J. Chem. Phys., 2019, 150, 154122.
     DOI: 10.1063/1.5090222
   * E. Caldeweyher, J.-M. Mewes, S. Ehlert and S. Grimme, Phys. Chem. Chem. Phys.
     2020, 22, 8499-8512. DOI: 10.1039/D0CP00502A
   
   for sTDA-xTB:
   * S. Grimme and C. Bannwarth, J. Chem. Phys., 2016, 145, 054103.
     DOI: 10.1063/1.4959605
   
   in the mass-spec context:
   * V. Asgeirsson, C. Bauer and S. Grimme, Chem. Sci., 2017, 8, 4879.
     DOI: 10.1039/c7sc00601b
   * J. Koopman and S. Grimme, ACS Omega 2019, 4, 12, 15120-15133.
     DOI: 10.1021/acsomega.9b02011
   
   for metadynamics refer to:
   * S. Grimme, J. Chem. Theory Comput., 2019, 155, 2847-2862
     DOI: 10.1021/acs.jctc.9b00143
   
   for SPH calculations refer to:
   * S. Spicher and S. Grimme, J. Chem. Theory Comput., 2021, 17, 1701-1714
     DOI: 10.1021/acs.jctc.0c01306
   
   with help from (in alphabetical order)
   P. Atkinson, C. Bannwarth, F. Bohle, G. Brandenburg, E. Caldeweyher
   M. Checinski, S. Dohm, S. Ehlert, S. Ehrlich, I. Gerasimov, C. Hölzer
   A. Katbashev, J. Koopman, C. Lavigne, S. Lehtola, F. März, M. Müller,
   F. Musil, H. Neugebauer, J. Pisarek, C. Plett, P. Pracht, F. Pultar,
   J. Seibert, P. Shushkov, S. Spicher, M. Stahn, M. Steiner, T. Strunk,
   J. Stückrath, T. Rose, and J. Unsleber
   
 * started run on 2022/08/08 at 16:20:42.653     

           -------------------------------------------------
          |                Calculation Setup                |
           -------------------------------------------------

          program call               : xtb tmpcoord --gfn2 --opt
          hostname                   : c383
          coordinate file            : tmpcoord
          omp threads                :                     1

   ID    Z sym.   atoms
    1    6 c      1, 6
    2    1 h      2-5, 7-10

           -------------------------------------------------
          |                 G F N 2 - x T B                 |
           -------------------------------------------------

        Reference                      10.1021/acs.jctc.8b01176
      * Hamiltonian:
        H0-scaling (s, p, d)           1.850000    2.230000    2.230000
        zeta-weighting                 0.500000
      * Dispersion:
        s8                             2.700000
        a1                             0.520000
        a2                             5.000000
        s9                             5.000000
      * Repulsion:
        kExp                           1.500000    1.000000
        rExp                           1.000000
      * Coulomb:
        alpha                          2.000000
        third order                    shell-resolved
        anisotropic                    true
        a3                             3.000000
        a5                             4.000000
        cn-shift                       1.200000
        cn-exp                         4.000000
        max-rad                        5.000000


          ...................................................
          :                      SETUP                      :
          :.................................................:
          :  # basis functions                  16          :
          :  # atomic orbitals                  16          :
          :  # shells                           12          :
          :  # electrons                        16          :
          :  max. iterations                   250          :
          :  Hamiltonian                  GFN2-xTB          :
          :  restarted?                      false          :
          :  GBSA solvation                  false          :
          :  PC potential                    false          :
          :  electronic temp.          300.0000000     K    :
          :  accuracy                    1.0000000          :
          :  -> integral cutoff          0.2500000E+02      :
          :  -> integral neglect         0.1000000E-07      :
          :  -> SCF convergence          0.1000000E-05 Eh   :
          :  -> wf. convergence          0.1000000E-03 e    :
          :  Broyden damping             0.4000000          :
          ...................................................

 iter      E             dE          RMSdq      gap      omega  full diag
   1     -8.1171369 -0.811714E+01  0.447E+00    9.88       0.0  T
   2     -8.1303838 -0.132468E-01  0.283E+00    9.61       1.0  T
   3     -8.1320685 -0.168478E-02  0.652E-01    9.37       1.0  T
   4     -8.1321820 -0.113492E-03  0.215E-01    9.30       1.0  T
   5     -8.1322323 -0.502426E-04  0.365E-02    9.32       1.0  T
   6     -8.1322331 -0.785931E-06  0.147E-02    9.32       2.1  T
   7     -8.1322331 -0.638745E-07  0.186E-03    9.32      17.0  T
   8     -8.1322331 -0.247073E-08  0.842E-04    9.32      37.6  T
   9     -8.1322331 -0.152046E-08  0.144E-04    9.32     220.0  T

   *** convergence criteria satisfied after 9 iterations ***

         #    Occupation            Energy/Eh            Energy/eV
      -------------------------------------------------------------
         1        2.0000           -0.6408532             -17.4385
         2        2.0000           -0.5531384             -15.0517
         3        2.0000           -0.5108807             -13.9018
         4        2.0000           -0.4842725             -13.1777
         5        2.0000           -0.4828726             -13.1396
         6        2.0000           -0.4221580             -11.4875
         7        2.0000           -0.4201167             -11.4320
         8        2.0000           -0.2331792              -6.3451 (HOMO)
         9                          0.1093432               2.9754 (LUMO)
        10                          0.1418989               3.8613
        11                          0.1625844               4.4241
        12                          0.2074980               5.6463
        13                          0.2151759               5.8552
       ...                                ...                  ...
        16                          2.3176467              63.0664
      -------------------------------------------------------------
                  HL-Gap            0.3425224 Eh            9.3205 eV
             Fermi-level           -0.0619180 Eh           -1.6849 eV

 SCC (total)                   0 d,  0 h,  0 min,  0.004 sec
 SCC setup                      ...        0 min,  0.000 sec (  3.158%)
 Dispersion                     ...        0 min,  0.000 sec (  1.520%)
 classical contributions        ...        0 min,  0.000 sec (  0.528%)
 integral evaluation            ...        0 min,  0.000 sec ( 11.391%)
 iterations                     ...        0 min,  0.002 sec ( 53.149%)
 molecular gradient             ...        0 min,  0.001 sec ( 27.076%)
 printout                       ...        0 min,  0.000 sec (  2.969%)

         :::::::::::::::::::::::::::::::::::::::::::::::::::::
         ::                     SUMMARY                     ::
         :::::::::::::::::::::::::::::::::::::::::::::::::::::
         :: total energy              -7.787438127008 Eh    ::
         :: gradient norm              1.168559047683 Eh/a0 ::
         :: HOMO-LUMO gap              9.320509851386 eV    ::
         ::.................................................::
         :: SCC energy                -8.132233132536 Eh    ::
         :: -> isotropic ES            0.030368760031 Eh    ::
         :: -> anisotropic ES          0.001490240993 Eh    ::
         :: -> anisotropic XC          0.010182648059 Eh    ::
         :: -> dispersion             -0.002802337648 Eh    ::
         :: repulsion energy           0.344794764394 Eh    ::
         :: add. restraining           0.000000000000 Eh    ::
         :: total charge              -0.000000000000 e     ::
         :::::::::::::::::::::::::::::::::::::::::::::::::::::

      ----------------------------------------------------------- 
     |                   =====================                   |
     |                        A N C O P T                        |
     |                   =====================                   |
     |               Approximate Normal Coordinate               |
     |                Rational Function Optimizer                |
      ----------------------------------------------------------- 

          ...................................................
          :                      SETUP                      :
          :.................................................:
          :   optimization level            normal          :
          :   max. optcycles                   200          :
          :   ANC micro-cycles                  20          :
          :   degrees of freedom                24          :
          :.................................................:
          :   RF solver                   davidson          :
          :   write xtbopt.log                true          :
          :   linear?                        false          :
          :   energy convergence         0.5000000E-05 Eh   :
          :   grad. convergence          0.1000000E-02 Eh/α :
          :   maximium RF displ.         1.0000000          :
          :   Hlow (freq-cutoff)         0.1000000E-01      :
          :   Hmax (freq-cutoff)         5.0000000          :
          :   S6 in model hess.         20.0000000          :
          ...................................................

generating ANC from model Hessian ...
Using Lindh-Hessian (1995)
 Shifting diagonal of input Hessian by    0.0000000000000000     
 Lowest  eigenvalues of input Hessian
    0.000000    0.000000    0.000000    0.000000    0.000000    0.000000
    0.015870    0.020664    0.030676    0.072629    0.077190    0.087777
    0.115925    0.120038    0.131733    0.136070    0.162170    0.194503
 Highest eigenvalues
    1.218717    1.267257    1.521728    2.047765    2.720178    3.386227


........................................................................
.............................. CYCLE    1 ..............................
........................................................................
   1     -8.1322331 -0.813223E+01  0.198E-05    9.32       0.0  T
   2     -8.1322331 -0.627054E-12  0.935E-06    9.32    3382.3  T
   3     -8.1322331 -0.266454E-13  0.415E-06    9.32    7619.8  T
     SCC iter.                  ...        0 min,  0.001 sec
     gradient                   ...        0 min,  0.001 sec
 * total energy  :    -7.7874381 Eh     change       -0.3429257E-10 Eh
   gradient norm :     1.1684829 Eh/α   predicted     0.0000000E+00 (-100.00%)
   displ. norm   :     0.4871329 α      lambda       -0.5031520E+00
   maximum displ.:     0.3352660 α      in ANC's #23, #19, #4, ...

........................................................................
.............................. CYCLE    2 ..............................
........................................................................
   1     -8.2535038 -0.825350E+01  0.142E+00    9.91       0.0  T
   2     -8.2545501 -0.104631E-02  0.853E-01   10.01       1.0  T
   3     -8.2546890 -0.138910E-03  0.177E-01   10.07       1.0  T
   4     -8.2546996 -0.105563E-04  0.365E-02   10.06       1.0  T
   5     -8.2547016 -0.201353E-05  0.357E-03   10.05       8.9  T
   6     -8.2547016 -0.672152E-08  0.184E-03   10.05      17.2  T
   7     -8.2547016 -0.111930E-08  0.317E-04   10.05      99.6  T
   8     -8.2547016 -0.527418E-10  0.103E-04   10.05     306.3  T
     SCC iter.                  ...        0 min,  0.001 sec
     gradient                   ...        0 min,  0.001 sec
 * total energy  :    -8.0767397 Eh     change       -0.2893015E+00 Eh
   gradient norm :     0.3733485 Eh/α   predicted    -0.3112744E+00 (   7.60%)
   displ. norm   :     0.4729881 α      lambda       -0.1018388E+00
   maximum displ.:     0.2736408 α      in ANC's #4, #3, #13, ...

........................................................................
.............................. CYCLE    3 ..............................
........................................................................
   1     -8.3166403 -0.831664E+01  0.888E-01   10.03       0.0  T
   2     -8.3171884 -0.548120E-03  0.538E-01   10.14       1.0  T
   3     -8.3172359 -0.474589E-04  0.133E-01   10.18       1.0  T
   4     -8.3172411 -0.520610E-05  0.319E-02   10.18       1.0  T
   5     -8.3172424 -0.138402E-05  0.798E-03   10.17       4.0  T
   6     -8.3172425 -0.924193E-07  0.132E-03   10.17      23.9  T
   7     -8.3172425 -0.572584E-09  0.171E-04   10.17     184.6  T
   8     -8.3172425 -0.147260E-10  0.547E-05   10.17     578.4  T
     SCC iter.                  ...        0 min,  0.001 sec
     gradient                   ...        0 min,  0.001 sec
 * total energy  :    -8.1594178 Eh     change       -0.8267817E-01 Eh
   gradient norm :     0.2653000 Eh/α   predicted    -0.6231096E-01 ( -24.63%)
   displ. norm   :     0.4867967 α      lambda       -0.9591658E-01
   maximum displ.:     0.2409722 α      in ANC's #23, #4, #3, ...

........................................................................
.............................. CYCLE    4 ..............................
........................................................................
   1     -8.3757520 -0.837575E+01  0.836E-01   10.66       0.0  T
   2     -8.3768114 -0.105939E-02  0.478E-01   10.80       1.0  T
   3     -8.3769019 -0.904231E-04  0.193E-01   10.85       1.0  T
   4     -8.3769043 -0.240135E-05  0.437E-02   10.87       1.0  T
   5     -8.3769056 -0.138187E-05  0.949E-03   10.86       3.3  T
   6     -8.3769058 -0.116371E-06  0.211E-03   10.86      15.0  T
   7     -8.3769058 -0.143876E-08  0.294E-04   10.86     107.6  T
   8     -8.3769058 -0.308358E-10  0.874E-05   10.86     361.8  T
     SCC iter.                  ...        0 min,  0.001 sec
     gradient                   ...        0 min,  0.001 sec
 * total energy  :    -8.2332157 Eh     change       -0.7379790E-01 Eh
   gradient norm :     0.1671332 Eh/α   predicted    -0.5932303E-01 ( -19.61%)
   displ. norm   :     0.5338346 α      lambda       -0.6358834E-01
   maximum displ.:     0.2674246 α      in ANC's #3, #23, #4, ...

........................................................................
.............................. CYCLE    5 ..............................
........................................................................
   1     -8.4239205 -0.842392E+01  0.643E-01   12.15       0.0  T
   2     -8.4245870 -0.666569E-03  0.351E-01   12.25       1.0  T
   3     -8.4246440 -0.570041E-04  0.145E-01   12.28       1.0  T
   4     -8.4246453 -0.128932E-05  0.331E-02   12.29       1.0  T
   5     -8.4246461 -0.783284E-06  0.286E-03   12.29      11.1  T
   6     -8.4246461 -0.279996E-08  0.132E-03   12.29      23.9  T
   7     -8.4246461 -0.573777E-09  0.166E-04   12.29     190.6  T
   8     -8.4246461 -0.885692E-11  0.398E-05   12.29     794.2  T
     SCC iter.                  ...        0 min,  0.001 sec
     gradient                   ...        0 min,  0.001 sec
 * total energy  :    -8.2833847 Eh     change       -0.5016895E-01 Eh
   gradient norm :     0.1069546 Eh/α   predicted    -0.4085486E-01 ( -18.57%)
   displ. norm   :     0.5637041 α      lambda       -0.4278355E-01
   maximum displ.:     0.2978452 α      in ANC's #3, #23, #4, ...

........................................................................
.............................. CYCLE    6 ..............................
........................................................................
   1     -8.4591755 -0.845918E+01  0.464E-01   14.13       0.0  T
   2     -8.4594838 -0.308264E-03  0.255E-01   14.20       1.0  T
   3     -8.4595129 -0.291112E-04  0.978E-02   14.22       1.0  T
   4     -8.4595134 -0.430365E-06  0.243E-02   14.22       1.3  T
   5     -8.4595137 -0.363288E-06  0.155E-03   14.22      20.4  T
   6     -8.4595137 -0.417833E-09  0.754E-04   14.22      41.9  T
   7     -8.4595137 -0.136646E-09  0.905E-05   14.22     349.2  T
     SCC iter.                  ...        0 min,  0.001 sec
     gradient                   ...        0 min,  0.001 sec
 * total energy  :    -8.3161051 Eh     change       -0.3272041E-01 Eh
   gradient norm :     0.0571721 Eh/α   predicted    -0.2818929E-01 ( -13.85%)
   displ. norm   :     0.5366339 α      lambda       -0.2258224E-01
   maximum displ.:     0.3010052 α      in ANC's #3, #23, #4, ...

........................................................................
.............................. CYCLE    7 ..............................
........................................................................
   1     -8.4785362 -0.847854E+01  0.339E-01   15.36       0.0  T
   2     -8.4786595 -0.123313E-03  0.191E-01   15.39       1.0  T
   3     -8.4786716 -0.120598E-04  0.624E-02   15.40       1.0  T
   4     -8.4786717 -0.590435E-07  0.160E-02   15.40       2.0  T
   5     -8.4786718 -0.154572E-06  0.113E-03   15.40      28.0  T
   6     -8.4786718 -0.173154E-09  0.558E-04   15.40      56.7  T
   7     -8.4786718 -0.598703E-10  0.538E-05   15.40     587.4  T
     SCC iter.                  ...        0 min,  0.001 sec
     gradient                   ...        0 min,  0.001 sec
 * total energy  :    -8.3327487 Eh     change       -0.1664355E-01 Eh
   gradient norm :     0.0295875 Eh/α   predicted    -0.1454269E-01 ( -12.62%)
   displ. norm   :     0.4554371 α      lambda       -0.1015751E-01
   maximum displ.:     0.2365951 α      in ANC's #3, #4, #23, ...

........................................................................
.............................. CYCLE    8 ..............................
........................................................................
   1     -8.4873158 -0.848732E+01  0.220E-01   15.76       0.0  T
   2     -8.4873600 -0.442533E-04  0.126E-01   15.77       1.0  T
   3     -8.4873645 -0.447596E-05  0.372E-02   15.77       1.0  T
   4     -8.4873645 -0.920773E-08  0.966E-03   15.77       3.3  T
   5     -8.4873646 -0.565184E-07  0.696E-04   15.77      45.4  T
   6     -8.4873646 -0.565219E-10  0.320E-04   15.77      99.0  T
     SCC iter.                  ...        0 min,  0.001 sec
     gradient                   ...        0 min,  0.001 sec
 * total energy  :    -8.3402691 Eh     change       -0.7520461E-02 Eh
   gradient norm :     0.0315038 Eh/α   predicted    -0.6132199E-02 ( -18.46%)
   displ. norm   :     0.4273787 α      lambda       -0.5774356E-02
   maximum displ.:     0.2137049 α      in ANC's #4, #23, #3, ...

........................................................................
.............................. CYCLE    9 ..............................
........................................................................
   1     -8.4905631 -0.849056E+01  0.163E-01   15.93       0.0  T
   2     -8.4905829 -0.197482E-04  0.938E-02   15.94       1.0  T
   3     -8.4905848 -0.192039E-05  0.248E-02   15.94       1.3  T
   4     -8.4905848 -0.474160E-08  0.631E-03   15.94       5.0  T
   5     -8.4905848 -0.264348E-07  0.472E-04   15.94      67.0  T
   6     -8.4905848 -0.210623E-10  0.186E-04   15.94     169.9  T
     SCC iter.                  ...        0 min,  0.001 sec
     gradient                   ...        0 min,  0.001 sec
 * total energy  :    -8.3447027 Eh     change       -0.4433594E-02 Eh
   gradient norm :     0.0287869 Eh/α   predicted    -0.3414549E-02 ( -22.98%)
   displ. norm   :     0.4411934 α      lambda       -0.4004143E-02
   maximum displ.:     0.2267995 α      in ANC's #4, #23, #3, ...

........................................................................
.............................. CYCLE   10 ..............................
........................................................................
   1     -8.4921477 -0.849215E+01  0.141E-01   16.09       0.0  T
   2     -8.4921565 -0.884740E-05  0.822E-02   16.09       1.0  T
   3     -8.4921574 -0.865130E-06  0.159E-02   16.09       2.0  T
   4     -8.4921574 -0.137705E-07  0.425E-03   16.09       7.4  T
   5     -8.4921574 -0.128859E-07  0.357E-04   16.09      88.5  T
   6     -8.4921574 -0.105196E-10  0.106E-04   16.09     297.2  T
     SCC iter.                  ...        0 min,  0.001 sec
     gradient                   ...        0 min,  0.001 sec
 * total energy  :    -8.3477159 Eh     change       -0.3013214E-02 Eh
   gradient norm :     0.0179637 Eh/α   predicted    -0.2391771E-02 ( -20.62%)
   displ. norm   :     0.4249759 α      lambda       -0.2265617E-02
   maximum displ.:     0.2162334 α      in ANC's #4, #23, #3, ...

........................................................................
.............................. CYCLE   11 ..............................
........................................................................
   1     -8.4923182 -0.849232E+01  0.129E-01   16.22       0.0  T
   2     -8.4923221 -0.390972E-05  0.762E-02   16.22       1.0  T
   3     -8.4923224 -0.313388E-06  0.924E-03   16.22       3.4  T
   4     -8.4923225 -0.134059E-07  0.262E-03   16.22      12.1  T
   5     -8.4923225 -0.471847E-08  0.271E-04   16.22     116.8  T
   6     -8.4923225 -0.697753E-11  0.637E-05   16.22     496.8  T
     SCC iter.                  ...        0 min,  0.001 sec
     gradient                   ...        0 min,  0.001 sec
 * total energy  :    -8.3493783 Eh     change       -0.1662411E-02 Eh
   gradient norm :     0.0099834 Eh/α   predicted    -0.1337391E-02 ( -19.55%)
   displ. norm   :     0.3849530 α      lambda       -0.1172709E-02
   maximum displ.:     0.2004603 α      in ANC's #23, #4, #3, ...

........................................................................
.............................. CYCLE   12 ..............................
........................................................................
   1     -8.4946416 -0.849464E+01  0.996E-02   16.42       0.0  T
   2     -8.4946421 -0.453782E-06  0.595E-02   16.42       1.0  T
   3     -8.4946422 -0.143593E-06  0.387E-03   16.43       8.2  T
   4     -8.4946422 -0.840407E-08  0.804E-04   16.43      39.3  T
   5     -8.4946422 -0.137437E-09  0.254E-04   16.43     124.6  T
     SCC iter.                  ...        0 min,  0.001 sec
     gradient                   ...        0 min,  0.001 sec
 * total energy  :    -8.3501967 Eh     change       -0.8183844E-03 Eh
   gradient norm :     0.0091406 Eh/α   predicted    -0.6732455E-03 ( -17.73%)
   displ. norm   :     0.4003353 α      lambda       -0.6884664E-03
   maximum displ.:     0.1960205 α      in ANC's #23, #4, #3, ...

........................................................................
.............................. CYCLE   13 ..............................
........................................................................
   1     -8.4914247 -0.849142E+01  0.116E-01   16.47       0.0  T
   2     -8.4914291 -0.437908E-05  0.673E-02   16.47       1.0  T
   3     -8.4914293 -0.188675E-06  0.101E-02   16.47       3.1  T
   4     -8.4914293 -0.882777E-08  0.222E-03   16.47      14.3  T
   5     -8.4914293 -0.791914E-09  0.257E-04   16.47     123.2  T
   6     -8.4914293 -0.246345E-10  0.614E-05   16.47     514.6  T
     SCC iter.                  ...        0 min,  0.001 sec
     gradient                   ...        0 min,  0.001 sec
 * total energy  :    -8.3505390 Eh     change       -0.3422402E-03 Eh
   gradient norm :     0.0095127 Eh/α   predicted    -0.3994006E-03 (  16.70%)
   displ. norm   :     0.2511516 α      lambda       -0.3966196E-03
   maximum displ.:     0.1301521 α      in ANC's #23, #4, #3, ...

........................................................................
.............................. CYCLE   14 ..............................
........................................................................
   1     -8.4953608 -0.849536E+01  0.642E-02   16.69       0.0  T
   2     -8.4953624 -0.155887E-05  0.370E-02   16.70       1.0  T
   3     -8.4953625 -0.118693E-06  0.613E-03   16.70       5.2  T
   4     -8.4953625 -0.479976E-08  0.183E-03   16.70      17.3  T
   5     -8.4953625 -0.405636E-09  0.197E-04   16.70     160.5  T
   6     -8.4953625 -0.181739E-10  0.116E-05   16.70    2734.8  T
     SCC iter.                  ...        0 min,  0.001 sec
     gradient                   ...        0 min,  0.001 sec
 * total energy  :    -8.3507826 Eh     change       -0.2436599E-03 Eh
   gradient norm :     0.0066751 Eh/α   predicted    -0.2108164E-03 ( -13.48%)
   displ. norm   :     0.2384403 α      lambda       -0.1524977E-03
   maximum displ.:     0.1263218 α      in ANC's #23, #4, #3, ...

........................................................................
.............................. CYCLE   15 ..............................
........................................................................
   1     -8.4949811 -0.849498E+01  0.464E-02   16.76       0.0  T
   2     -8.4949813 -0.126226E-06  0.277E-02   16.76       1.1  T
   3     -8.4949813 -0.237709E-07  0.155E-03   16.76      20.4  T
   4     -8.4949813 -0.803164E-09  0.696E-04   16.76      45.4  T
   5     -8.4949813 -0.147804E-09  0.880E-05   16.76     359.3  T
     SCC iter.                  ...        0 min,  0.001 sec
     gradient                   ...        0 min,  0.001 sec
 * total energy  :    -8.3508734 Eh     change       -0.9072756E-04 Eh
   gradient norm :     0.0056791 Eh/α   predicted    -0.8058736E-04 ( -11.18%)
   displ. norm   :     0.2697125 α      lambda       -0.1258818E-03
   maximum displ.:     0.1361024 α      in ANC's #23, #4, #3, ...

........................................................................
.............................. CYCLE   16 ..............................
........................................................................
   1     -8.4955282 -0.849553E+01  0.439E-02   16.87       0.0  T
   2     -8.4955283 -0.159672E-06  0.262E-02   16.87       1.2  T
   3     -8.4955283 -0.213376E-07  0.161E-03   16.87      19.6  T
   4     -8.4955283 -0.779458E-09  0.691E-04   16.87      45.8  T
   5     -8.4955283 -0.161506E-09  0.962E-05   16.87     328.7  T
     SCC iter.                  ...        0 min,  0.001 sec
     gradient                   ...        0 min,  0.001 sec
 * total energy  :    -8.3509520 Eh     change       -0.7868414E-04 Eh
   gradient norm :     0.0039780 Eh/α   predicted    -0.6751413E-04 ( -14.20%)
   displ. norm   :     0.1639808 α      lambda       -0.4080481E-04
   maximum displ.:     0.0850004 α      in ANC's #23, #4, #3, ...

........................................................................
.............................. CYCLE   17 ..............................
........................................................................
   1     -8.4954368 -0.849544E+01  0.262E-02   16.91       0.0  T
   2     -8.4954368 -0.214870E-07  0.158E-02   16.91       2.0  T
   3     -8.4954368 -0.570269E-08  0.676E-04   16.91      46.8  T
   4     -8.4954368 -0.188988E-09  0.312E-04   16.91     101.3  T
     SCC iter.                  ...        0 min,  0.001 sec
     gradient                   ...        0 min,  0.001 sec
 * total energy  :    -8.3509805 Eh     change       -0.2841585E-04 Eh
   gradient norm :     0.0027034 Eh/α   predicted    -0.2095115E-04 ( -26.27%)
   displ. norm   :     0.1248246 α      lambda       -0.2015806E-04
   maximum displ.:     0.0655437 α      in ANC's #23, #4, #3, ...

........................................................................
.............................. CYCLE   18 ..............................
........................................................................
   1     -8.4954533 -0.849545E+01  0.216E-02   16.95       0.0  T
   2     -8.4954533 -0.111475E-07  0.129E-02   16.95       2.5  T
   3     -8.4954533 -0.415285E-08  0.558E-04   16.95      56.7  T
   4     -8.4954533 -0.108081E-09  0.199E-04   16.95     159.3  T
     SCC iter.                  ...        0 min,  0.001 sec
     gradient                   ...        0 min,  0.001 sec
 * total energy  :    -8.3509917 Eh     change       -0.1125581E-04 Eh
   gradient norm :     0.0012855 Eh/α   predicted    -0.1023440E-04 (  -9.07%)
   displ. norm   :     0.0806431 α      lambda       -0.5018149E-05
   maximum displ.:     0.0410736 α      in ANC's #23, #4, #3, ...

........................................................................
.............................. CYCLE   19 ..............................
........................................................................
   1     -8.4952504 -0.849525E+01  0.185E-02   16.96       0.0  T
   2     -8.4952505 -0.684403E-07  0.109E-02   16.96       2.9  T
   3     -8.4952505 -0.589904E-08  0.112E-03   16.96      28.3  T
   4     -8.4952505 -0.172365E-09  0.394E-04   16.96      80.2  T
   5     -8.4952505 -0.208971E-10  0.428E-05   16.96     739.5  T
     SCC iter.                  ...        0 min,  0.001 sec
     gradient                   ...        0 min,  0.001 sec
 * total energy  :    -8.3509928 Eh     change       -0.1140628E-05 Eh
   gradient norm :     0.0014865 Eh/α   predicted    -0.2516219E-05 ( 120.60%)
   displ. norm   :     0.0083630 α      lambda       -0.3186773E-05
   maximum displ.:     0.0052622 α      in ANC's #1, #4, #23, ...

........................................................................
.............................. CYCLE   20 ..............................
........................................................................
   1     -8.4955152 -0.849552E+01  0.806E-03   16.97       0.0  T
   2     -8.4955152 -0.358708E-07  0.456E-03   16.97       6.9  T
   3     -8.4955152 -0.191720E-08  0.971E-04   16.97      32.6  T
   4     -8.4955152 -0.106436E-09  0.236E-04   16.97     134.0  T
     SCC iter.                  ...        0 min,  0.001 sec
     gradient                   ...        0 min,  0.001 sec
 * total energy  :    -8.3509953 Eh     change       -0.2474397E-05 Eh
   gradient norm :     0.0006182 Eh/α   predicted    -0.1591936E-05 ( -35.66%)
   displ. norm   :     0.0045634 α      lambda       -0.6327778E-06
   maximum displ.:     0.0025768 α      in ANC's #2, #4, #23, ...

   *** GEOMETRY OPTIMIZATION CONVERGED AFTER 20 ITERATIONS ***

------------------------------------------------------------------------
 total energy gain   :        -0.5635572 Eh     -353.6375 kcal/mol
 total RMSD          :         2.0533661 a0        1.0866 Å
 total power (kW/mol):       -73.9809609 (step)********** (real)
------------------------------------------------------------------------

 ANCopt (total)                0 d,  0 h,  0 min,  0.052 sec
 optimizer setup                ...        0 min,  0.000 sec (  0.901%)
 model hessian                  ...        0 min,  0.001 sec (  2.663%)
 ANC generation                 ...        0 min,  0.000 sec (  0.442%)
 coordinate transformation      ...        0 min,  0.000 sec (  0.093%)
 single point calculation       ...        0 min,  0.045 sec ( 87.285%)
 optimization log               ...        0 min,  0.002 sec (  3.056%)
 hessian update                 ...        0 min,  0.000 sec (  0.228%)
 rational function              ...        0 min,  0.001 sec (  2.225%)

================
 final structure:
================
$coord
       -3.72102705894825        0.43426331311678       -0.07585770313400      c
       -3.24311725208363        0.77926602208244        1.88178539525016      h
       -2.87456401072570        1.87978403561293       -1.24944999665417      h
       -5.75373898956244        0.47998237946533       -0.29939510235655      h
       -3.01653515451674       -1.40207486052605       -0.63475953007074      h
        3.72167183851703       -0.43415855885121        0.07584104968492      c
        2.76768909400202        0.16040535383737        1.78383792799880      h
        4.63822827654888        1.17634094516483       -0.78979262421110      h
        2.35706655000614       -1.22286590813005       -1.22588117338128      h
        5.12432281845472       -1.85087273670842        0.53365100427200      h
$end

 Bond Distances (Angstroems)
 ---------------------------
C1-H2=1.0819         C1-H3=1.0823         C1-H4=1.0824         C1-H5=1.0820         H2-C1=1.0819         H3-C1=1.0823         
H4-C1=1.0824         H5-C1=1.0820         C6-H7=1.0820         C6-H8=1.0823         C6-H9=1.0817         C6-H10=1.0824        
H7-C6=1.0820         H8-C6=1.0823         H9-C6=1.0817         H10-C6=1.0824        
 C  H  Rav=1.0821 sigma=0.0002  Rmin=1.0817  Rmax=1.0824     8

 selected bond angles (degree)
 --------------------
H3-C1-H2=109.48                H4-C1-H2=109.46                H4-C1-H3=109.44                H5-C1-H2=109.44                
H5-C1-H3=109.59                H5-C1-H4=109.43                H8-C6-H7=109.49                H9-C6-H7=109.43                
H9-C6-H8=109.48                H10-C6-H7=109.53               H10-C6-H8=109.44               H10-C6-H9=109.45               

 selected dihedral angles (degree)
 ---------------------------------

           -------------------------------------------------
          |                Final Singlepoint                |
           -------------------------------------------------

          ...................................................
          :                      SETUP                      :
          :.................................................:
          :  # basis functions                  16          :
          :  # atomic orbitals                  16          :
          :  # shells                           12          :
          :  # electrons                        16          :
          :  max. iterations                   250          :
          :  Hamiltonian                  GFN2-xTB          :
          :  restarted?                      false          :
          :  GBSA solvation                  false          :
          :  PC potential                    false          :
          :  electronic temp.          300.0000000     K    :
          :  accuracy                    1.0000000          :
          :  -> integral cutoff          0.2500000E+02      :
          :  -> integral neglect         0.1000000E-07      :
          :  -> SCF convergence          0.1000000E-05 Eh   :
          :  -> wf. convergence          0.1000000E-03 e    :
          :  Broyden damping             0.4000000          :
          ...................................................

 iter      E             dE          RMSdq      gap      omega  full diag
   1     -8.4955152 -0.849552E+01  0.234E-05   16.97       0.0  T
   2     -8.4955152 -0.227374E-12  0.127E-05   16.97    2495.7  T
   3     -8.4955152 -0.621725E-13  0.219E-06   16.97   14449.0  T

   *** convergence criteria satisfied after 3 iterations ***

         #    Occupation            Energy/Eh            Energy/eV
      -------------------------------------------------------------
         1        2.0000           -0.5815638             -15.8252
         2        2.0000           -0.5800950             -15.7852
         3        2.0000           -0.4691027             -12.7649
         4        2.0000           -0.4677357             -12.7277
         5        2.0000           -0.4669106             -12.7053
         6        2.0000           -0.4661316             -12.6841
         7        2.0000           -0.4651971             -12.6587
         8        2.0000           -0.4639011             -12.6234 (HOMO)
         9                          0.1597407               4.3468 (LUMO)
        10                          0.1814615               4.9378
        11                          0.2190989               5.9620
        12                          0.2276197               6.1938
        13                          0.2292031               6.2369
       ...                                ...                  ...
        16                          0.2436027               6.6288
      -------------------------------------------------------------
                  HL-Gap            0.6236418 Eh           16.9702 eV
             Fermi-level           -0.1520802 Eh           -4.1383 eV

 SCC (total)                   0 d,  0 h,  0 min,  0.002 sec
 SCC setup                      ...        0 min,  0.000 sec (  3.064%)
 Dispersion                     ...        0 min,  0.000 sec (  1.510%)
 classical contributions        ...        0 min,  0.000 sec (  0.634%)
 integral evaluation            ...        0 min,  0.000 sec ( 16.647%)
 iterations                     ...        0 min,  0.001 sec ( 30.995%)
 molecular gradient             ...        0 min,  0.001 sec ( 43.941%)
 printout                       ...        0 min,  0.000 sec (  2.861%)

         :::::::::::::::::::::::::::::::::::::::::::::::::::::
         ::                     SUMMARY                     ::
         :::::::::::::::::::::::::::::::::::::::::::::::::::::
         :: total energy              -8.350995323629 Eh    ::
         :: gradient norm              0.000621806850 Eh/a0 ::
         :: HOMO-LUMO gap             16.970156747900 eV    ::
         ::.................................................::
         :: SCC energy                -8.495515234882 Eh    ::
         :: -> isotropic ES            0.004028757106 Eh    ::
         :: -> anisotropic ES          0.004726310107 Eh    ::
         :: -> anisotropic XC          0.007161865318 Eh    ::
         :: -> dispersion             -0.002052625266 Eh    ::
         :: repulsion energy           0.144519491088 Eh    ::
         :: add. restraining           0.000000000000 Eh    ::
         :: total charge               0.000000000000 e     ::
         :::::::::::::::::::::::::::::::::::::::::::::::::::::

           -------------------------------------------------
          |                Property Printout                |
           -------------------------------------------------

    * Orbital Energies and Occupations

         #    Occupation            Energy/Eh            Energy/eV
      -------------------------------------------------------------
         1        2.0000           -0.5815638             -15.8252
         2        2.0000           -0.5800950             -15.7852
         3        2.0000           -0.4691027             -12.7649
         4        2.0000           -0.4677357             -12.7277
         5        2.0000           -0.4669106             -12.7053
         6        2.0000           -0.4661316             -12.6841
         7        2.0000           -0.4651971             -12.6587
         8        2.0000           -0.4639011             -12.6234 (HOMO)
         9                          0.1597407               4.3468 (LUMO)
        10                          0.1814615               4.9378
        11                          0.2190989               5.9620
        12                          0.2276197               6.1938
        13                          0.2292031               6.2369
        14                          0.2300256               6.2593
        15                          0.2344917               6.3808
        16                          0.2436027               6.6288
      -------------------------------------------------------------
                  HL-Gap            0.6236418 Eh           16.9702 eV
             Fermi-level           -0.1520802 Eh           -4.1383 eV

     #   Z          covCN         q      C6AA      α(0)
     1   6 c        3.702    -0.155    23.671     6.957
     2   1 h        0.925     0.039     2.466     2.456
     3   1 h        0.925     0.040     2.451     2.448
     4   1 h        0.925     0.038     2.478     2.462
     5   1 h        0.925     0.039     2.466     2.456
     6   6 c        3.702    -0.156    23.687     6.959
     7   1 h        0.925     0.040     2.449     2.447
     8   1 h        0.925     0.038     2.477     2.461
     9   1 h        0.925     0.040     2.447     2.446
    10   1 h        0.925     0.038     2.481     2.463

 Mol. C6AA /au·bohr⁶  :        495.416248
 Mol. C8AA /au·bohr⁸  :       9189.124408
 Mol. α(0) /au        :         33.556163


Wiberg/Mayer (AO) data.
largest (>0.10) Wiberg bond orders for each atom

 ---------------------------------------------------------------------------
     #   Z sym  total        # sym  WBO       # sym  WBO       # sym  WBO
 ---------------------------------------------------------------------------
     1   6 c    3.994 --     4 h    0.998     2 h    0.998     3 h    0.998
                             5 h    0.998
     2   1 h    0.999 --     1 c    0.998
     3   1 h    0.998 --     1 c    0.998
     4   1 h    0.999 --     1 c    0.998
     5   1 h    0.999 --     1 c    0.998
     6   6 c    3.994 --    10 h    0.998     8 h    0.998     7 h    0.998
                             9 h    0.998
     7   1 h    0.998 --     6 c    0.998
     8   1 h    0.999 --     6 c    0.998
     9   1 h    0.998 --     6 c    0.998
    10   1 h    0.999 --     6 c    0.998
 ---------------------------------------------------------------------------

Topologies differ in total number of bonds
Writing topology from bond orders to xtbtopo.mol

molecular dipole:
                 x           y           z       tot (Debye)
 q only:       -0.004       0.002      -0.001
   full:       -0.003       0.002      -0.000       0.009
molecular quadrupole (traceless):
                xx          xy          yy          xz          yz          zz
 q only:       -0.065       0.001       0.028       0.005       0.003       0.037
  q+dip:       -0.040       0.001       0.019       0.001      -0.000       0.021
   full:       -0.040      -0.001       0.019       0.002       0.001       0.021

           -------------------------------------------------
          |                Geometry Summary                 |
           -------------------------------------------------

      molecular mass/u    :       32.0849978
   center of mass at/Å    :        0.0001169       0.0000202      -0.0000034
  moments of inertia/u·Å² :        0.6294714E+01   0.1324718E+03   0.1324774E+03
rotational constants/cm⁻¹ :        0.2678062E+01   0.1272545E+00   0.1272491E+00

 * 8 selected distances

     #   Z          #   Z                                           value/Å
     1   6 c        2   1 h                                       1.0818784
     1   6 c        3   1 h                                       1.0823388
     1   6 c        4   1 h                                       1.0824200
     1   6 c        5   1 h                                       1.0820113
     6   6 c        7   1 h                                       1.0820145
     6   6 c        8   1 h                                       1.0823074
     6   6 c        9   1 h                                       1.0817356 (min)
     6   6 c       10   1 h                                       1.0824358 (max)

 * 1 distinct bonds (by element types)

   Z      Z             #   av. dist./Å        max./Å        min./Å
   1 H    6 C           8     1.0821427     1.0824358     1.0817356


optimized geometry written to: xtbopt.coord


           -------------------------------------------------
          | TOTAL ENERGY               -8.350995323629 Eh   |
          | GRADIENT NORM               0.000621806850 Eh/α |
          | HOMO-LUMO GAP              16.970156747900 eV   |
           -------------------------------------------------

------------------------------------------------------------------------
 * finished run on 2022/08/08 at 16:20:42.730     
------------------------------------------------------------------------
 total:
 * wall-time:     0 d,  0 h,  0 min,  0.077 sec
 *  cpu-time:     0 d,  0 h,  0 min,  0.065 sec
 * ratio c/w:     0.843 speedup
 SCF:
 * wall-time:     0 d,  0 h,  0 min,  0.004 sec
 *  cpu-time:     0 d,  0 h,  0 min,  0.004 sec
 * ratio c/w:     0.997 speedup
 ANC optimizer:
 * wall-time:     0 d,  0 h,  0 min,  0.056 sec
 *  cpu-time:     0 d,  0 h,  0 min,  0.054 sec
 * ratio c/w:     0.953 speedup

