 Entering Gaussian System, Link 0=g16
 Input=gaussian_test.inp
 Output=gaussian_test.log
 Initial command:
 /sw/restricted/lms/sw/Gaussian/g16_B01/g16/l1.exe "/scratch/user/peterchao1/peterchao1/7003666_1675696847000000113990579/Gau-215266.inp" -scrdir="/scratch/user/peterchao1/peterchao1/7003666_1675696847000000113990579/"
 Entering Link 1 = /sw/restricted/lms/sw/Gaussian/g16_B01/g16/l1.exe PID=    215272.
  
 Copyright (c) 1988-2017, Gaussian, Inc.  All Rights Reserved.
  
 This is part of the Gaussian(R) 16 program.  It is based on
 the Gaussian(R) 09 system (copyright 2009, Gaussian, Inc.),
 the Gaussian(R) 03 system (copyright 2003, Gaussian, Inc.),
 the Gaussian(R) 98 system (copyright 1998, Gaussian, Inc.),
 the Gaussian(R) 94 system (copyright 1995, Gaussian, Inc.),
 the Gaussian 92(TM) system (copyright 1992, Gaussian, Inc.),
 the Gaussian 90(TM) system (copyright 1990, Gaussian, Inc.),
 the Gaussian 88(TM) system (copyright 1988, Gaussian, Inc.),
 the Gaussian 86(TM) system (copyright 1986, Carnegie Mellon
 University), and the Gaussian 82(TM) system (copyright 1983,
 Carnegie Mellon University). Gaussian is a federally registered
 trademark of Gaussian, Inc.
  
 This software contains proprietary and confidential information,
 including trade secrets, belonging to Gaussian, Inc.
  
 This software is provided under written license and may be
 used, copied, transmitted, or stored only in accord with that
 written license.
  
 The following legend is applicable only to US Government
 contracts under FAR:
  
                    RESTRICTED RIGHTS LEGEND
  
 Use, reproduction and disclosure by the US Government is
 subject to restrictions as set forth in subparagraphs (a)
 and (c) of the Commercial Computer Software - Restricted
 Rights clause in FAR 52.227-19.
  
 Gaussian, Inc.
 340 Quinnipiac St., Bldg. 40, Wallingford CT 06492
  
  
 ---------------------------------------------------------------
 Warning -- This program may not be used in any manner that
 competes with the business of Gaussian, Inc. or will provide
 assistance to any competitor of Gaussian, Inc.  The licensee
 of this program is prohibited from giving any competitor of
 Gaussian, Inc. access to this program.  By using this program,
 the user acknowledges that Gaussian, Inc. is engaged in the
 business of creating and licensing software in the field of
 computational chemistry and represents and warrants to the
 licensee that it is not a competitor of Gaussian, Inc. and that
 it will not use this program in any manner prohibited above.
 ---------------------------------------------------------------
  

 Cite this work as:
 Gaussian 16, Revision B.01,
 M. J. Frisch, G. W. Trucks, H. B. Schlegel, G. E. Scuseria, 
 M. A. Robb, J. R. Cheeseman, G. Scalmani, V. Barone, 
 G. A. Petersson, H. Nakatsuji, X. Li, M. Caricato, A. V. Marenich, 
 J. Bloino, B. G. Janesko, R. Gomperts, B. Mennucci, H. P. Hratchian, 
 J. V. Ortiz, A. F. Izmaylov, J. L. Sonnenberg, D. Williams-Young, 
 F. Ding, F. Lipparini, F. Egidi, J. Goings, B. Peng, A. Petrone, 
 T. Henderson, D. Ranasinghe, V. G. Zakrzewski, J. Gao, N. Rega, 
 G. Zheng, W. Liang, M. Hada, M. Ehara, K. Toyota, R. Fukuda, 
 J. Hasegawa, M. Ishida, T. Nakajima, Y. Honda, O. Kitao, H. Nakai, 
 T. Vreven, K. Throssell, J. A. Montgomery, Jr., J. E. Peralta, 
 F. Ogliaro, M. J. Bearpark, J. J. Heyd, E. N. Brothers, K. N. Kudin, 
 V. N. Staroverov, T. A. Keith, R. Kobayashi, J. Normand, 
 K. Raghavachari, A. P. Rendell, J. C. Burant, S. S. Iyengar, 
 J. Tomasi, M. Cossi, J. M. Millam, M. Klene, C. Adamo, R. Cammi, 
 J. W. Ochterski, R. L. Martin, K. Morokuma, O. Farkas, 
 J. B. Foresman, and D. J. Fox, Gaussian, Inc., Wallingford CT, 2016.
 
 ******************************************
 Gaussian 16:  ES64L-G16RevB.01 20-Dec-2017
                 6-Feb-2023 
 ******************************************
 %nprocshared=4
 Will use up to    4 processors via shared memory.
 %mem=8000mb
 %chk=11.chk
 %nprocshared=4
 Will use up to    4 processors via shared memory.
 %mem=8000mb
 ----------------------------------------------------------------------
 #T wB97XD/def2svpp opt=tight freq int(grid=ultrafine) scf=(verytight,q
 c) Volume=tight
 ----------------------------------------------------------------------
 -----
 Dimer
 -----
 Symbolic Z-matrix:
 Charge =  0 Multiplicity = 1
 C                     5.18226   0.08395  -1.05382 
 C                     4.36558   0.37182   0.20174 
 C                     2.83332   0.27221   0.05762 
 C                     2.38475  -1.15469  -0.30733 
 C                     2.4765   -2.18957   0.80966 
 C                     2.25225   0.7445    1.41404 
 O                     0.84932   0.85208   1.47885 
 C                     2.35275   1.23162  -1.05435 
 O                     0.95141   1.36282  -1.12412 
 H                     4.95105   0.79076  -1.84561 
 H                     5.00785  -0.92257  -1.42326 
 H                     6.24092   0.17386  -0.82012 
 H                     4.61098   1.38097   0.54288 
 H                     4.68022  -0.31721   0.98813 
 H                     2.99436  -1.49037  -1.14767 
 H                     1.35847  -1.11612  -0.67082 
 H                     1.75134  -1.99898   1.59654 
 H                     3.47191  -2.21452   1.24718 
 H                     2.26544  -3.17536   0.40131 
 H                     2.61926   1.75775   1.61221 
 H                     2.62498   0.09532   2.21415 
 H                     0.42802  -0.02936   1.48625 
 H                     2.66716   0.86265  -2.03332 
 H                     2.80482   2.22166  -0.89227 
 H                     0.66059   1.49211  -0.20005 
 C                    -5.05165   0.44505  -1.08397 
 C                    -4.31391  -0.46691  -0.10856 
 C                    -2.7831   -0.30162  -0.07217 
 C                    -2.35021   1.13205   0.28369 
 C                    -3.0321    1.74448   1.50321 
 C                    -2.24843  -1.30292   0.97828 
 O                    -0.84539  -1.35207   1.07332 
 C                    -2.21446  -0.68028  -1.46281 
 O                    -0.81116  -0.81019  -1.52743 
 H                    -6.12397   0.29443  -0.97847 
 H                    -4.78304   0.22285  -2.113 
 H                    -4.83728   1.49148  -0.88846 
 H                    -4.54081  -1.50483  -0.36636 
 H                    -4.7006   -0.29673   0.8975 
 H                    -2.52103   1.77824  -0.58031 
 H                    -1.27947   1.12189   0.48252 
 H                    -4.09879   1.88054   1.3478 
 H                    -2.59299   2.71938   1.70275 
 H                    -2.8841    1.12719   2.38499 
 H                    -2.63138  -2.30498   0.73285 
 H                    -2.61539  -1.03837   1.97254 
 H                    -0.53621  -1.451     0.15181 
 H                    -2.55281   0.04997  -2.20556 
 H                    -2.6046   -1.66348  -1.7471 
 H                    -0.37844   0.06534  -1.52548 
 
 Add virtual bond connecting atoms O32        and H22        Dist= 3.56D+00.
 Add virtual bond connecting atoms H50        and O9         Dist= 3.59D+00.

 GradGradGradGradGradGradGradGradGradGradGradGradGradGradGradGradGradGrad
 Initialization pass.
                           ----------------------------
                           !    Initial Parameters    !
                           ! (Angstroms and Degrees)  !
 --------------------------                            --------------------------
 ! Name  Definition              Value          Derivative Info.                !
 --------------------------------------------------------------------------------
 ! R1    R(1,2)                  1.5252         estimate D2E/DX2                !
 ! R2    R(1,10)                 1.0863         estimate D2E/DX2                !
 ! R3    R(1,11)                 1.0863         estimate D2E/DX2                !
 ! R4    R(1,12)                 1.0879         estimate D2E/DX2                !
 ! R5    R(2,3)                  1.5422         estimate D2E/DX2                !
 ! R6    R(2,13)                 1.0932         estimate D2E/DX2                !
 ! R7    R(2,14)                 1.0919         estimate D2E/DX2                !
 ! R8    R(3,4)                  1.5396         estimate D2E/DX2                !
 ! R9    R(3,6)                  1.5494         estimate D2E/DX2                !
 ! R10   R(3,8)                  1.5453         estimate D2E/DX2                !
 ! R11   R(4,5)                  1.5255         estimate D2E/DX2                !
 ! R12   R(4,15)                 1.0911         estimate D2E/DX2                !
 ! R13   R(4,16)                 1.0894         estimate D2E/DX2                !
 ! R14   R(5,17)                 1.0869         estimate D2E/DX2                !
 ! R15   R(5,18)                 1.0876         estimate D2E/DX2                !
 ! R16   R(5,19)                 1.0877         estimate D2E/DX2                !
 ! R17   R(6,7)                  1.4085         estimate D2E/DX2                !
 ! R18   R(6,20)                 1.0957         estimate D2E/DX2                !
 ! R19   R(6,21)                 1.0957         estimate D2E/DX2                !
 ! R20   R(7,22)                 0.977          estimate D2E/DX2                !
 ! R21   R(8,9)                  1.4092         estimate D2E/DX2                !
 ! R22   R(8,23)                 1.0924         estimate D2E/DX2                !
 ! R23   R(8,24)                 1.1004         estimate D2E/DX2                !
 ! R24   R(9,25)                 0.9773         estimate D2E/DX2                !
 ! R25   R(9,50)                 1.9008         estimate D2E/DX2                !
 ! R26   R(22,32)                1.8819         estimate D2E/DX2                !
 ! R27   R(26,27)                1.5256         estimate D2E/DX2                !
 ! R28   R(26,35)                1.088          estimate D2E/DX2                !
 ! R29   R(26,36)                1.0865         estimate D2E/DX2                !
 ! R30   R(26,37)                1.0859         estimate D2E/DX2                !
 ! R31   R(27,28)                1.5401         estimate D2E/DX2                !
 ! R32   R(27,38)                1.0933         estimate D2E/DX2                !
 ! R33   R(27,39)                1.0912         estimate D2E/DX2                !
 ! R34   R(28,29)                1.5393         estimate D2E/DX2                !
 ! R35   R(28,31)                1.5466         estimate D2E/DX2                !
 ! R36   R(28,33)                1.5494         estimate D2E/DX2                !
 ! R37   R(29,30)                1.5255         estimate D2E/DX2                !
 ! R38   R(29,40)                1.0924         estimate D2E/DX2                !
 ! R39   R(29,41)                1.0891         estimate D2E/DX2                !
 ! R40   R(30,42)                1.0865         estimate D2E/DX2                !
 ! R41   R(30,43)                1.0877         estimate D2E/DX2                !
 ! R42   R(30,44)                1.0865         estimate D2E/DX2                !
 ! R43   R(31,32)                1.4071         estimate D2E/DX2                !
 ! R44   R(31,45)                1.1005         estimate D2E/DX2                !
 ! R45   R(31,46)                1.0923         estimate D2E/DX2                !
 ! R46   R(32,47)                0.977          estimate D2E/DX2                !
 ! R47   R(33,34)                1.4108         estimate D2E/DX2                !
 ! R48   R(33,48)                1.0952         estimate D2E/DX2                !
 ! R49   R(33,49)                1.0953         estimate D2E/DX2                !
 ! R50   R(34,50)                0.9766         estimate D2E/DX2                !
 ! A1    A(2,1,10)             111.3009         estimate D2E/DX2                !
 ! A2    A(2,1,11)             111.6472         estimate D2E/DX2                !
 ! A3    A(2,1,12)             109.1855         estimate D2E/DX2                !
 ! A4    A(10,1,11)            108.7131         estimate D2E/DX2                !
 ! A5    A(10,1,12)            108.0553         estimate D2E/DX2                !
 ! A6    A(11,1,12)            107.8119         estimate D2E/DX2                !
 ! A7    A(1,2,3)              116.2867         estimate D2E/DX2                !
 ! A8    A(1,2,13)             108.1156         estimate D2E/DX2                !
 ! A9    A(1,2,14)             108.632          estimate D2E/DX2                !
 ! A10   A(3,2,13)             108.1688         estimate D2E/DX2                !
 ! A11   A(3,2,14)             108.2313         estimate D2E/DX2                !
 ! A12   A(13,2,14)            107.0445         estimate D2E/DX2                !
 ! A13   A(2,3,4)              111.8063         estimate D2E/DX2                !
 ! A14   A(2,3,6)              105.7299         estimate D2E/DX2                !
 ! A15   A(2,3,8)              109.6409         estimate D2E/DX2                !
 ! A16   A(4,3,6)              112.3807         estimate D2E/DX2                !
 ! A17   A(4,3,8)              108.3146         estimate D2E/DX2                !
 ! A18   A(6,3,8)              108.9103         estimate D2E/DX2                !
 ! A19   A(3,4,5)              115.9536         estimate D2E/DX2                !
 ! A20   A(3,4,15)             107.7533         estimate D2E/DX2                !
 ! A21   A(3,4,16)             108.7072         estimate D2E/DX2                !
 ! A22   A(5,4,15)             108.7617         estimate D2E/DX2                !
 ! A23   A(5,4,16)             108.9647         estimate D2E/DX2                !
 ! A24   A(15,4,16)            106.2746         estimate D2E/DX2                !
 ! A25   A(4,5,17)             111.7787         estimate D2E/DX2                !
 ! A26   A(4,5,18)             111.4177         estimate D2E/DX2                !
 ! A27   A(4,5,19)             109.1638         estimate D2E/DX2                !
 ! A28   A(17,5,18)            108.8694         estimate D2E/DX2                !
 ! A29   A(17,5,19)            107.533          estimate D2E/DX2                !
 ! A30   A(18,5,19)            107.9287         estimate D2E/DX2                !
 ! A31   A(3,6,7)              115.919          estimate D2E/DX2                !
 ! A32   A(3,6,20)             108.3364         estimate D2E/DX2                !
 ! A33   A(3,6,21)             109.3365         estimate D2E/DX2                !
 ! A34   A(7,6,20)             104.7531         estimate D2E/DX2                !
 ! A35   A(7,6,21)             110.5164         estimate D2E/DX2                !
 ! A36   A(20,6,21)            107.5702         estimate D2E/DX2                !
 ! A37   A(6,7,22)             111.1583         estimate D2E/DX2                !
 ! A38   A(3,8,9)              113.7462         estimate D2E/DX2                !
 ! A39   A(3,8,23)             110.2216         estimate D2E/DX2                !
 ! A40   A(3,8,24)             108.9566         estimate D2E/DX2                !
 ! A41   A(9,8,23)             105.86           estimate D2E/DX2                !
 ! A42   A(9,8,24)             109.3944         estimate D2E/DX2                !
 ! A43   A(23,8,24)            108.5209         estimate D2E/DX2                !
 ! A44   A(8,9,25)             105.1538         estimate D2E/DX2                !
 ! A45   A(8,9,50)             129.9878         estimate D2E/DX2                !
 ! A46   A(25,9,50)             94.6897         estimate D2E/DX2                !
 ! A47   A(7,22,32)            157.5551         estimate D2E/DX2                !
 ! A48   A(27,26,35)           109.382          estimate D2E/DX2                !
 ! A49   A(27,26,36)           111.3309         estimate D2E/DX2                !
 ! A50   A(27,26,37)           111.4364         estimate D2E/DX2                !
 ! A51   A(35,26,36)           107.891          estimate D2E/DX2                !
 ! A52   A(35,26,37)           108.0911         estimate D2E/DX2                !
 ! A53   A(36,26,37)           108.5903         estimate D2E/DX2                !
 ! A54   A(26,27,28)           115.5693         estimate D2E/DX2                !
 ! A55   A(26,27,38)           108.4443         estimate D2E/DX2                !
 ! A56   A(26,27,39)           108.9593         estimate D2E/DX2                !
 ! A57   A(28,27,38)           108.2854         estimate D2E/DX2                !
 ! A58   A(28,27,39)           108.2835         estimate D2E/DX2                !
 ! A59   A(38,27,39)           106.9741         estimate D2E/DX2                !
 ! A60   A(27,28,29)           112.6398         estimate D2E/DX2                !
 ! A61   A(27,28,31)           106.8685         estimate D2E/DX2                !
 ! A62   A(27,28,33)           108.5031         estimate D2E/DX2                !
 ! A63   A(29,28,31)           110.4114         estimate D2E/DX2                !
 ! A64   A(29,28,33)           109.3845         estimate D2E/DX2                !
 ! A65   A(31,28,33)           108.9361         estimate D2E/DX2                !
 ! A66   A(28,29,30)           115.6586         estimate D2E/DX2                !
 ! A67   A(28,29,40)           108.9131         estimate D2E/DX2                !
 ! A68   A(28,29,41)           108.0589         estimate D2E/DX2                !
 ! A69   A(30,29,40)           108.96           estimate D2E/DX2                !
 ! A70   A(30,29,41)           107.2929         estimate D2E/DX2                !
 ! A71   A(40,29,41)           107.678          estimate D2E/DX2                !
 ! A72   A(29,30,42)           112.0098         estimate D2E/DX2                !
 ! A73   A(29,30,43)           109.0276         estimate D2E/DX2                !
 ! A74   A(29,30,44)           111.0888         estimate D2E/DX2                !
 ! A75   A(42,30,43)           108.0797         estimate D2E/DX2                !
 ! A76   A(42,30,44)           108.7214         estimate D2E/DX2                !
 ! A77   A(43,30,44)           107.7789         estimate D2E/DX2                !
 ! A78   A(28,31,32)           114.4061         estimate D2E/DX2                !
 ! A79   A(28,31,45)           108.5274         estimate D2E/DX2                !
 ! A80   A(28,31,46)           110.1997         estimate D2E/DX2                !
 ! A81   A(32,31,45)           109.2832         estimate D2E/DX2                !
 ! A82   A(32,31,46)           106.3761         estimate D2E/DX2                !
 ! A83   A(45,31,46)           107.8559         estimate D2E/DX2                !
 ! A84   A(22,32,31)           131.6795         estimate D2E/DX2                !
 ! A85   A(22,32,47)            93.669          estimate D2E/DX2                !
 ! A86   A(31,32,47)           104.795          estimate D2E/DX2                !
 ! A87   A(28,33,34)           115.3838         estimate D2E/DX2                !
 ! A88   A(28,33,48)           109.4124         estimate D2E/DX2                !
 ! A89   A(28,33,49)           108.76           estimate D2E/DX2                !
 ! A90   A(34,33,48)           109.7336         estimate D2E/DX2                !
 ! A91   A(34,33,49)           105.0556         estimate D2E/DX2                !
 ! A92   A(48,33,49)           108.2076         estimate D2E/DX2                !
 ! A93   A(33,34,50)           110.9828         estimate D2E/DX2                !
 ! A94   A(9,50,34)            157.2718         estimate D2E/DX2                !
 ! D1    D(10,1,2,3)            61.5119         estimate D2E/DX2                !
 ! D2    D(10,1,2,13)          -60.3258         estimate D2E/DX2                !
 ! D3    D(10,1,2,14)         -176.1595         estimate D2E/DX2                !
 ! D4    D(11,1,2,3)           -60.1718         estimate D2E/DX2                !
 ! D5    D(11,1,2,13)          177.9905         estimate D2E/DX2                !
 ! D6    D(11,1,2,14)           62.1568         estimate D2E/DX2                !
 ! D7    D(12,1,2,3)          -179.286          estimate D2E/DX2                !
 ! D8    D(12,1,2,13)           58.8762         estimate D2E/DX2                !
 ! D9    D(12,1,2,14)          -56.9574         estimate D2E/DX2                !
 ! D10   D(1,2,3,4)             62.9502         estimate D2E/DX2                !
 ! D11   D(1,2,3,6)           -174.4514         estimate D2E/DX2                !
 ! D12   D(1,2,3,8)            -57.1923         estimate D2E/DX2                !
 ! D13   D(13,2,3,4)          -175.2402         estimate D2E/DX2                !
 ! D14   D(13,2,3,6)           -52.6418         estimate D2E/DX2                !
 ! D15   D(13,2,3,8)            64.6173         estimate D2E/DX2                !
 ! D16   D(14,2,3,4)           -59.5886         estimate D2E/DX2                !
 ! D17   D(14,2,3,6)            63.0098         estimate D2E/DX2                !
 ! D18   D(14,2,3,8)          -179.7311         estimate D2E/DX2                !
 ! D19   D(2,3,4,5)             72.7942         estimate D2E/DX2                !
 ! D20   D(2,3,4,15)           -49.3078         estimate D2E/DX2                !
 ! D21   D(2,3,4,16)          -164.0845         estimate D2E/DX2                !
 ! D22   D(6,3,4,5)            -45.9261         estimate D2E/DX2                !
 ! D23   D(6,3,4,15)          -168.0281         estimate D2E/DX2                !
 ! D24   D(6,3,4,16)            77.1952         estimate D2E/DX2                !
 ! D25   D(8,3,4,5)           -166.2898         estimate D2E/DX2                !
 ! D26   D(8,3,4,15)            71.6081         estimate D2E/DX2                !
 ! D27   D(8,3,4,16)           -43.1685         estimate D2E/DX2                !
 ! D28   D(2,3,6,7)            174.5644         estimate D2E/DX2                !
 ! D29   D(2,3,6,20)            57.2195         estimate D2E/DX2                !
 ! D30   D(2,3,6,21)           -59.7382         estimate D2E/DX2                !
 ! D31   D(4,3,6,7)            -63.2043         estimate D2E/DX2                !
 ! D32   D(4,3,6,20)           179.4508         estimate D2E/DX2                !
 ! D33   D(4,3,6,21)            62.493          estimate D2E/DX2                !
 ! D34   D(8,3,6,7)             56.8146         estimate D2E/DX2                !
 ! D35   D(8,3,6,20)           -60.5303         estimate D2E/DX2                !
 ! D36   D(8,3,6,21)          -177.488          estimate D2E/DX2                !
 ! D37   D(2,3,8,9)           -170.9071         estimate D2E/DX2                !
 ! D38   D(2,3,8,23)            70.3926         estimate D2E/DX2                !
 ! D39   D(2,3,8,24)           -48.584          estimate D2E/DX2                !
 ! D40   D(4,3,8,9)             66.8443         estimate D2E/DX2                !
 ! D41   D(4,3,8,23)           -51.8561         estimate D2E/DX2                !
 ! D42   D(4,3,8,24)          -170.8326         estimate D2E/DX2                !
 ! D43   D(6,3,8,9)            -55.6593         estimate D2E/DX2                !
 ! D44   D(6,3,8,23)          -174.3596         estimate D2E/DX2                !
 ! D45   D(6,3,8,24)            66.6638         estimate D2E/DX2                !
 ! D46   D(3,4,5,17)            68.7879         estimate D2E/DX2                !
 ! D47   D(3,4,5,18)           -53.2734         estimate D2E/DX2                !
 ! D48   D(3,4,5,19)          -172.3767         estimate D2E/DX2                !
 ! D49   D(15,4,5,17)         -169.6459         estimate D2E/DX2                !
 ! D50   D(15,4,5,18)           68.2928         estimate D2E/DX2                !
 ! D51   D(15,4,5,19)          -50.8105         estimate D2E/DX2                !
 ! D52   D(16,4,5,17)          -54.1985         estimate D2E/DX2                !
 ! D53   D(16,4,5,18)         -176.2597         estimate D2E/DX2                !
 ! D54   D(16,4,5,19)           64.6369         estimate D2E/DX2                !
 ! D55   D(3,6,7,22)            71.6236         estimate D2E/DX2                !
 ! D56   D(20,6,7,22)         -169.0568         estimate D2E/DX2                !
 ! D57   D(21,6,7,22)          -53.4718         estimate D2E/DX2                !
 ! D58   D(6,7,22,32)         -140.966          estimate D2E/DX2                !
 ! D59   D(3,8,9,25)            46.2494         estimate D2E/DX2                !
 ! D60   D(3,8,9,50)           -63.4879         estimate D2E/DX2                !
 ! D61   D(23,8,9,25)          167.4176         estimate D2E/DX2                !
 ! D62   D(23,8,9,50)           57.6803         estimate D2E/DX2                !
 ! D63   D(24,8,9,25)          -75.832          estimate D2E/DX2                !
 ! D64   D(24,8,9,50)          174.4308         estimate D2E/DX2                !
 ! D65   D(8,9,50,34)           37.2999         estimate D2E/DX2                !
 ! D66   D(25,9,50,34)         -76.9764         estimate D2E/DX2                !
 ! D67   D(7,22,32,31)         -40.5595         estimate D2E/DX2                !
 ! D68   D(7,22,32,47)          73.0            estimate D2E/DX2                !
 ! D69   D(35,26,27,28)       -176.1053         estimate D2E/DX2                !
 ! D70   D(35,26,27,38)         62.1442         estimate D2E/DX2                !
 ! D71   D(35,26,27,39)        -53.9581         estimate D2E/DX2                !
 ! D72   D(36,26,27,28)         64.7514         estimate D2E/DX2                !
 ! D73   D(36,26,27,38)        -56.9991         estimate D2E/DX2                !
 ! D74   D(36,26,27,39)       -173.1013         estimate D2E/DX2                !
 ! D75   D(37,26,27,28)        -56.648          estimate D2E/DX2                !
 ! D76   D(37,26,27,38)       -178.3985         estimate D2E/DX2                !
 ! D77   D(37,26,27,39)         65.4993         estimate D2E/DX2                !
 ! D78   D(26,27,28,29)         58.1694         estimate D2E/DX2                !
 ! D79   D(26,27,28,31)        179.5911         estimate D2E/DX2                !
 ! D80   D(26,27,28,33)        -63.0822         estimate D2E/DX2                !
 ! D81   D(38,27,28,29)       -179.995          estimate D2E/DX2                !
 ! D82   D(38,27,28,31)        -58.5733         estimate D2E/DX2                !
 ! D83   D(38,27,28,33)         58.7533         estimate D2E/DX2                !
 ! D84   D(39,27,28,29)        -64.3376         estimate D2E/DX2                !
 ! D85   D(39,27,28,31)         57.0841         estimate D2E/DX2                !
 ! D86   D(39,27,28,33)        174.4107         estimate D2E/DX2                !
 ! D87   D(27,28,29,30)         48.7079         estimate D2E/DX2                !
 ! D88   D(27,28,29,40)        -74.3588         estimate D2E/DX2                !
 ! D89   D(27,28,29,41)        168.9393         estimate D2E/DX2                !
 ! D90   D(31,28,29,30)        -70.6767         estimate D2E/DX2                !
 ! D91   D(31,28,29,40)        166.2566         estimate D2E/DX2                !
 ! D92   D(31,28,29,41)         49.5547         estimate D2E/DX2                !
 ! D93   D(33,28,29,30)        169.456          estimate D2E/DX2                !
 ! D94   D(33,28,29,40)         46.3893         estimate D2E/DX2                !
 ! D95   D(33,28,29,41)        -70.3126         estimate D2E/DX2                !
 ! D96   D(27,28,31,32)        175.7056         estimate D2E/DX2                !
 ! D97   D(27,28,31,45)         53.3936         estimate D2E/DX2                !
 ! D98   D(27,28,31,46)        -64.5031         estimate D2E/DX2                !
 ! D99   D(29,28,31,32)        -61.4726         estimate D2E/DX2                !
 ! D100  D(29,28,31,45)        176.2154         estimate D2E/DX2                !
 ! D101  D(29,28,31,46)         58.3187         estimate D2E/DX2                !
 ! D102  D(33,28,31,32)         58.6646         estimate D2E/DX2                !
 ! D103  D(33,28,31,45)        -63.6474         estimate D2E/DX2                !
 ! D104  D(33,28,31,46)        178.4559         estimate D2E/DX2                !
 ! D105  D(27,28,33,34)       -169.2306         estimate D2E/DX2                !
 ! D106  D(27,28,33,48)         66.4737         estimate D2E/DX2                !
 ! D107  D(27,28,33,49)        -51.533          estimate D2E/DX2                !
 ! D108  D(29,28,33,34)         67.5351         estimate D2E/DX2                !
 ! D109  D(29,28,33,48)        -56.7605         estimate D2E/DX2                !
 ! D110  D(29,28,33,49)       -174.7673         estimate D2E/DX2                !
 ! D111  D(31,28,33,34)        -53.2342         estimate D2E/DX2                !
 ! D112  D(31,28,33,48)       -177.5299         estimate D2E/DX2                !
 ! D113  D(31,28,33,49)         64.4634         estimate D2E/DX2                !
 ! D114  D(28,29,30,42)        -64.8775         estimate D2E/DX2                !
 ! D115  D(28,29,30,43)        175.5526         estimate D2E/DX2                !
 ! D116  D(28,29,30,44)         56.9212         estimate D2E/DX2                !
 ! D117  D(40,29,30,42)         58.1645         estimate D2E/DX2                !
 ! D118  D(40,29,30,43)        -61.4054         estimate D2E/DX2                !
 ! D119  D(40,29,30,44)        179.9632         estimate D2E/DX2                !
 ! D120  D(41,29,30,42)        174.4757         estimate D2E/DX2                !
 ! D121  D(41,29,30,43)         54.9057         estimate D2E/DX2                !
 ! D122  D(41,29,30,44)        -63.7257         estimate D2E/DX2                !
 ! D123  D(28,31,32,22)         59.3378         estimate D2E/DX2                !
 ! D124  D(28,31,32,47)        -49.5533         estimate D2E/DX2                !
 ! D125  D(45,31,32,22)       -178.7627         estimate D2E/DX2                !
 ! D126  D(45,31,32,47)         72.3462         estimate D2E/DX2                !
 ! D127  D(46,31,32,22)        -62.5697         estimate D2E/DX2                !
 ! D128  D(46,31,32,47)       -171.4608         estimate D2E/DX2                !
 ! D129  D(28,33,34,50)        -75.4601         estimate D2E/DX2                !
 ! D130  D(48,33,34,50)         48.6676         estimate D2E/DX2                !
 ! D131  D(49,33,34,50)        164.7872         estimate D2E/DX2                !
 ! D132  D(33,34,50,9)         144.3412         estimate D2E/DX2                !
 --------------------------------------------------------------------------------
 Number of steps in this run=    286 maximum allowed number of steps=    300.
 GradGradGradGradGradGradGradGradGradGradGradGradGradGradGradGradGradGrad

                    Distance matrix (angstroms):
                    1          2          3          4          5
     1  C    0.000000
     2  C    1.525208   0.000000
     3  C    2.605426   1.542249   0.000000
     4  C    3.149203   2.552068   1.539619   0.000000
     5  C    3.995312   3.240196   2.598698   1.525473   0.000000
     6  C    3.887363   2.464697   1.549382   2.566629   3.004049
     7  O    5.077280   3.771704   2.508466   3.094369   3.513856
     8  C    3.053403   2.523597   1.545284   2.500710   3.898002
     9  O    4.420463   3.794279   2.475379   3.009896   4.322604
    10  H    1.086262   2.170237   2.894123   3.568885   4.696400
    11  H    1.086268   2.174531   2.889478   2.860038   3.605406
    12  H    1.087875   2.144825   3.520205   4.110720   4.734217
    13  H    2.134967   1.093155   2.150562   3.479727   4.168440
    14  H    2.140682   1.091860   2.150425   2.765641   2.897233
    15  H    2.697073   2.677488   2.141343   1.091090   2.142011
    16  H    4.025939   3.466704   2.152497   1.089437   2.143392
    17  H    4.809799   3.794785   2.949113   2.176874   1.086906
    18  H    3.674613   2.929281   2.829603   2.172934   1.087603
    19  H    4.609583   4.127088   3.510885   2.144647   1.087695
    20  H    4.059345   2.638157   2.160882   3.495984   4.030603
    21  H    4.149633   2.675062   2.173787   2.824557   2.686145
    22  H    5.391434   4.161167   2.813787   2.883071   3.052958
    23  H    2.809186   2.849747   2.179044   2.669916   4.175516
    24  H    3.201269   2.656082   2.168749   3.452298   4.739550
    25  H    4.812200   3.891455   2.505050   3.160661   4.227505
    26  C   10.240322   9.504879   7.969055   7.646076   8.197573
    27  C    9.558982   8.725441   7.187264   6.736812   7.065436
    28  C    8.034869   7.185551   5.647142   5.243061   5.657329
    29  C    7.721756   6.759183   5.259221   5.291349   5.882771
    30  C    8.761930   7.635688   6.217753   6.405117   6.804591
    31  C    7.827381   6.866796   5.399332   4.810524   4.810362
    32  O    6.551290   5.557488   4.147630   3.518380   3.435973
    33  C    7.447327   6.868373   5.357140   4.765809   5.426528
    34  O    6.078228   5.584431   4.119004   3.438198   4.263032
    35  H   11.308433  10.556018   9.017034   8.657291   9.128842
    36  H   10.022386   9.438085   7.919776   7.518994   8.189178
    37  H   10.119265   9.334602   7.824301   7.713471   8.362125
    38  H    9.875974   9.119671   7.597065   6.934663   7.148052
    39  H   10.080844   9.117385   7.601908   7.238091   7.423032
    40  H    7.901616   7.072137   5.598586   5.722181   6.530768
    41  H    6.722465   5.701582   4.221078   4.385565   5.017977
    42  H    9.753630   8.673825   7.232246   7.347678   7.751763
    43  H    8.660177   7.495722   6.175756   6.620181   7.113031
    44  H    8.830620   7.608879   6.231895   6.341639   6.497588
    45  H    8.363732   7.510309   6.079533   5.250401   5.109762
    46  H    8.439295   7.338820   5.922241   5.496613   5.348355
    47  H    6.042389   5.229985   3.785768   2.971640   3.170918
    48  H    7.820417   7.332315   5.846513   5.425311   6.277028
    49  H    8.010575   7.518238   6.047715   5.217804   5.712394
    50  H    5.580690   5.057957   3.586690   3.256925   4.322981
                    6          7          8          9         10
     6  C    0.000000
     7  O    1.408541   0.000000
     8  C    2.518009   2.970096   0.000000
     9  O    2.918348   2.654566   1.409192   0.000000
    10  H    4.232136   5.280149   2.751657   4.104255   0.000000
    11  H    4.292171   5.372617   3.438923   4.665531   1.765527
    12  H    4.607230   5.900388   4.036284   5.430002   1.759531
    13  H    2.593764   3.912266   2.770030   4.021397   2.483724
    14  H    2.683965   4.035326   3.462333   4.603055   3.054669
    15  H    3.479620   4.121517   2.798147   3.509259   3.085340
    16  H    2.933833   2.958736   2.578289   2.552709   4.233550
    17  H    2.794799   2.992670   4.222057   4.398140   5.465270
    18  H    3.204868   4.041743   4.292487   4.977280   4.559038
    19  H    4.048589   4.403042   4.641989   4.964746   5.290670
    20  H    1.095736   1.992658   2.731006   3.228800   4.281218
    21  H    1.095689   2.065505   3.471085   3.943531   4.730319
    22  H    1.982901   0.976983   3.427732   3.004355   5.677296
    23  H    3.474245   3.954737   1.092408   2.005140   2.292723
    24  H    2.793997   3.364809   1.100374   2.055841   2.750027
    25  H    2.386959   1.806640   1.913395   0.977342   4.648417
    26  C    7.725071   6.446332   7.446123   6.072950  10.037614
    27  C    6.848377   5.560444   6.944344   5.665946   9.509921
    28  C    5.353308   4.114748   5.449076   4.221793   8.009706
    29  C    4.755055   3.426922   4.890615   3.596651   7.613069
    30  C    5.378874   3.982763   5.983374   4.787159   8.709470
    31  C    4.963660   3.806659   5.632614   4.665324   8.011887
    32  O    3.755938   2.809767   4.629318   3.927838   6.834516
    33  C    5.500703   4.515331   4.968056   3.783083   7.324957
    34  O    4.522589   3.815505   3.795147   2.826894   5.988938
    35  H    8.722825   7.414589   8.528705   7.157073  11.119995
    36  H    7.887166   6.709750   7.284079   5.929701   9.754307
    37  H    7.491386   6.192766   7.196632   5.794913   9.859945
    38  H    7.373940   6.165497   7.448671   6.241969   9.876911
    39  H    7.049334   5.697311   7.476319   6.227866  10.092653
    40  H    5.275443   4.056746   4.927198   3.539237   7.642524
    41  H    3.671947   2.365842   3.945507   2.759740   6.659519
    42  H    6.452182   5.055558   6.914751   5.646499   9.658420
    43  H    5.240219   3.922557   5.854520   4.732255   8.557045
    44  H    5.241305   3.851648   6.266146   5.203895   8.910709
    45  H    5.797684   4.758025   6.367353   5.453212   8.586341
    46  H    5.213869   3.977655   6.244787   5.298785   8.670350
    47  H    3.766825   2.997488   4.122789   3.429085   6.255013
    48  H    6.055779   5.078653   5.175529   3.895214   7.548927
    49  H    6.275364   5.353913   5.782462   4.710827   7.944867
    50  H    4.002818   3.339513   3.006918   1.900807   5.388149
                   11         12         13         14         15
    11  H    0.000000
    12  H    1.756818   0.000000
    13  H    3.054427   2.443683   0.000000
    14  H    2.507712   2.438583   1.756943   0.000000
    15  H    2.110098   3.662945   3.703521   2.963128   0.000000
    16  H    3.731168   5.052194   4.276369   3.797949   1.744586
    17  H    4.569763   5.542364   4.551021   3.431743   3.055241
    18  H    3.340581   4.200650   3.836797   2.264264   2.547108
    19  H    3.990603   5.339811   5.126568   3.787418   2.402048
    20  H    4.701442   4.641265   2.291806   2.990400   4.278778
    21  H    4.465982   4.721019   2.896591   2.428447   3.735340
    22  H    5.498903   6.257032   4.513993   4.290946   3.957043
    23  H    3.006331   3.836413   3.268622   3.817545   2.535381
    24  H    3.875756   4.000682   2.455326   3.674085   3.725637
    25  H    5.121089   5.767347   4.021172   4.565392   3.903798
    26  C   10.157711  11.298910   9.843222   9.979180   8.275757
    27  C    9.425035  10.598177   9.137432   9.061983   7.452380
    28  C    7.931573   9.067435   7.608005   7.538276   5.995729
    29  C    7.827912   8.714588   6.970459   7.212738   6.122932
    30  C    8.962041   9.687806   7.711746   7.999737   7.335503
    31  C    7.652820   8.802509   7.378638   6.998424   5.660530
    32  O    6.377918   7.491955   6.125589   5.622331   4.437973
    33  C    7.226478   8.522677   7.406626   7.326358   5.280841
    34  O    5.821030   7.155454   6.203789   6.060230   3.884434
    35  H   11.206974  12.366488  10.896519  10.998732   9.292897
    36  H    9.881760  11.099620   9.830690   9.973061   8.022144
    37  H   10.150870  11.156488   9.556697   9.867914   8.384098
    38  H    9.624605  10.921065   9.638974   9.395348   7.575580
    39  H   10.001581  11.085510   9.468153   9.381283   8.051079
    40  H    8.042950   8.910858   7.230836   7.662181   6.436247
    41  H    6.880565   7.691024   5.896450   6.151792   5.267542
    42  H    9.923057  10.701503   8.761134   9.057067   8.240335
    43  H    8.989358   9.533232   7.418478   7.913988   7.554165
    44  H    8.999288   9.718411   7.722301   7.826651   7.340818
    45  H    8.057151   9.342057   8.128592   7.581285   5.987389
    46  H    8.346176   9.364968   7.753546   7.396962   6.435004
    47  H    5.787634   7.036642   5.887832   5.403343   3.762326
    48  H    7.662990   8.903062   7.787513   7.915253   5.853445
    49  H    7.655276   9.081762   8.159492   7.897000   5.633613
    50  H    5.477087   6.657716   5.559070   5.661678   3.733455
                   16         17         18         19         20
    16  H    0.000000
    17  H    2.464699   0.000000
    18  H    3.058077   1.768861   0.000000
    19  H    2.492496   1.754066   1.759057   0.000000
    20  H    3.880838   3.855715   4.079110   5.091855   0.000000
    21  H    3.375604   2.351764   2.643426   3.756731   1.768056
    22  H    2.588382   2.375448   3.754642   3.801383   2.830398
    23  H    2.735799   4.712066   4.569271   4.732263   3.754110
    24  H    3.644415   5.011772   4.970103   5.576031   2.553833
    25  H    2.740712   4.074948   4.872067   4.972166   2.681640
    26  C    6.610416   7.709683   9.228147   8.297790   8.236225
    27  C    5.737028   6.483973   8.093896   7.133269   7.481907
    28  C    4.263137   5.121210   6.672704   5.828404   6.021923
    29  C    4.440682   5.324446   6.784169   6.314419   5.181898
    30  C    5.673315   6.074830   7.618489   7.313204   5.652425
    31  C    3.970407   4.106695   5.798761   4.920770   5.784800
    32  O    2.820409   2.726773   4.406035   3.667870   4.686699
    33  C    3.685513   5.179402   6.483264   5.456177   6.226114
    34  O    2.352589   4.211756   5.292949   4.333539   5.312196
    35  H    7.620441   8.597147  10.165097   9.182887   9.235631
    36  H    6.449093   7.835520   9.239898   8.218919   8.427754
    37  H    6.725637   7.859293   9.345479   8.596018   7.869187
    38  H    5.919909   6.609722   8.204324   7.050186   8.113305
    39  H    6.312159   6.709242   8.401795   7.553708   7.636229
    40  H    4.841080   6.104042   7.429484   6.957881   5.588394
    41  H    3.646582   4.490735   5.855929   5.571293   4.108598
    42  H    6.544955   7.024002   8.607851   8.182994   6.724366
    43  H    5.996577   6.414633   7.831601   7.748943   5.300988
    44  H    5.689447   5.646411   7.270524   6.997481   5.593005
    45  H    4.393468   4.477481   6.125589   4.984609   6.696877
    46  H    4.773358   4.486924   6.242169   5.554998   5.945553
    47  H    2.092528   2.760519   4.224672   3.299233   4.731366
    48  H    4.360422   6.097533   7.303872   6.357205   6.651475
    49  H    4.142936   5.501525   6.796570   5.533423   7.090731
    50  H    2.267843   4.306322   5.264079   4.604858   4.657843
                   21         22         23         24         25
    21  H    0.000000
    22  H    2.317761   0.000000
    23  H    4.316432   4.265768   0.000000
    24  H    3.768757   4.046439   1.779845   0.000000
    25  H    3.411477   2.283106   2.789871   2.368360   0.000000
    26  C    8.362450   6.071070   7.788175   8.057127   5.874302
    27  C    7.338884   5.022025   7.362591   7.649771   5.347134
    28  C    5.884904   3.579673   5.908204   6.185819   3.884950
    29  C    5.436359   3.242468   5.533088   5.398564   3.070602
    30  C    5.935292   3.888345   6.765069   6.327376   4.074405
    31  C    5.218482   3.007217   6.158116   6.438709   4.202745
    32  O    3.929363   1.881923   5.185962   5.473498   3.461045
    33  C    6.127131   4.012894   5.151337   5.825800   3.818346
    34  O    5.160084   3.350751   3.892690   4.761399   3.037862
    35  H    9.315390   7.007724   8.872398   9.134820   6.933301
    36  H    8.580162   6.338241   7.478040   7.941099   5.907921
    37  H    8.201260   5.972900   7.617259   7.676903   5.540803
    38  H    7.782549   5.504402   7.767789   8.253585   6.005326
    39  H    7.453279   5.169221   8.013595   8.116461   5.757341
    40  H    6.092837   4.029270   5.465059   5.353381   3.217023
    41  H    4.392844   2.290931   4.687481   4.447581   2.089691
    42  H    7.010461   4.915167   7.631910   7.265955   5.019804
    43  H    5.862970   4.090108   6.713776   6.009845   3.963920
    44  H    5.607481   3.621530   7.099849   6.655983   4.402322
    45  H    5.965312   3.886635   6.764618   7.258360   5.111289
    46  H    5.367032   3.242976   6.896817   6.943604   4.674992
    47  H    4.078911   2.175209   4.515454   5.073565   3.196568
    48  H    6.807743   4.745636   5.285660   5.928341   4.053124
    49  H    6.792159   4.724582   5.852755   6.714683   4.797150
    50  H    4.796482   3.119270   3.188926   3.896644   2.207269
                   26         27         28         29         30
    26  C    0.000000
    27  C    1.525575   0.000000
    28  C    2.593762   1.540141   0.000000
    29  C    3.104875   2.562549   1.539301   0.000000
    30  C    3.529954   3.021763   2.594291   1.525537   0.000000
    31  C    3.894396   2.479177   1.546580   2.534147   3.190034
    32  O    5.057291   3.769742   2.484009   3.009796   3.815116
    33  C    3.075641   2.507435   1.549387   2.520561   3.917299
    34  O    4.444552   3.794771   2.502987   3.069387   4.543530
    35  H    1.087968   2.147719   3.512558   4.066434   4.221491
    36  H    1.086475   2.171093   2.905134   3.534035   4.296285
    37  H    1.085910   2.171974   2.846261   2.772834   3.007111
    38  H    2.139614   1.093259   2.150307   3.489188   4.040973
    39  H    2.144689   1.091163   2.148747   2.818246   2.705048
    40  H    2.904325   2.911645   2.157015   1.092352   2.145545
    41  H    4.140213   3.475843   2.143584   1.089094   2.121591
    42  H    2.980285   2.770882   2.917053   2.179470   1.086500
    43  H    4.356994   4.049057   3.508982   2.142964   1.087694
    44  H    4.146964   3.286839   2.844183   2.168072   1.086502
    45  H    4.089164   2.630091   2.164378   3.477643   4.141513
    46  H    4.180696   2.746365   2.179861   2.762841   2.852748
    47  H    5.050877   3.912444   2.533718   3.159137   4.273971
    48  H    2.767354   2.786762   2.174389   2.721816   4.105605
    49  H    3.297531   2.652986   2.166080   3.464654   4.728787
    50  H    4.709360   4.216506   2.833575   2.880776   4.362843
                   31         32         33         34         35
    31  C    0.000000
    32  O    1.407113   0.000000
    33  C    2.519472   2.959326   0.000000
    34  O    2.930374   2.656827   1.410776   0.000000
    35  H    4.626031   5.897810   4.058190   5.454120   0.000000
    36  H    4.278807   5.304533   2.799283   4.145581   1.757945
    37  H    4.242111   5.279159   3.453347   4.681407   1.759720
    38  H    2.665302   3.968899   2.700743   3.967480   2.473534
    39  H    2.651809   4.000913   3.449504   4.612121   2.427898
    40  H    3.463677   3.916776   2.630042   3.243561   3.916805
    41  H    2.657883   2.580298   2.811815   2.827036   5.127215
    42  H    3.700646   4.594529   4.243587   5.129861   3.468234
    43  H    4.101524   4.475157   4.660659   5.105572   5.053427
    44  H    2.878954   3.467501   4.303598   4.832968   4.743745
    45  H    1.100458   2.052730   2.763044   3.264424   4.678006
    46  H    1.092342   2.009948   3.477159   3.944252   4.774408
    47  H    1.907006   0.977022   2.453059   1.818261   5.962134
    48  H    3.472713   3.953737   1.095178   2.057441   3.783999
    49  H    2.772100   3.338649   1.095319   1.998196   4.100015
    50  H    3.411422   2.996809   1.982636   0.976629   5.776056
                   36         37         38         39         40
    36  H    0.000000
    37  H    1.764050   0.000000
    38  H    2.468660   3.055871   0.000000
    39  H    3.056116   2.531010   1.755669   0.000000
    40  H    3.144049   2.354180   3.860547   3.352599   0.000000
    41  H    4.451962   3.830688   4.272773   3.726771   1.761218
    42  H    3.897856   2.386963   3.820268   2.303355   2.493467
    43  H    5.058548   3.641277   5.091087   3.766612   2.470480
    44  H    4.965453   3.829240   4.152370   2.745883   3.057561
    45  H    4.372464   4.680574   2.344027   2.888231   4.290604
    46  H    4.793855   4.418403   3.065179   2.460463   3.802535
    47  H    5.095746   5.314085   4.038344   4.385264   3.860508
    48  H    2.238830   3.005243   3.122847   3.789741   2.372629
    49  H    2.904772   3.959280   2.383384   3.640759   3.635087
    50  H    4.446403   4.724505   4.597212   4.968201   2.901400
                   41         42         43         44         45
    41  H    0.000000
    42  H    3.045132   0.000000
    43  H    2.401312   1.759848   0.000000
    44  H    2.488829   1.766001   1.756492   0.000000
    45  H    3.692389   4.477727   5.117265   3.817494   0.000000
    46  H    2.944752   3.333290   3.767494   2.220809   1.772397
    47  H    2.698434   5.022102   4.901823   4.140867   2.335939
    48  H    3.161669   4.285718   4.733099   4.726868   3.766457
    49  H    3.805976   4.936709   5.577732   4.994013   2.561718
    50  H    2.441355   5.039020   4.729659   4.764208   3.974193
                   46         47         48         49         50
    46  H    0.000000
    47  H    2.794337   0.000000
    48  H    4.317976   3.446263   0.000000
    49  H    3.771820   2.815888   1.774480   0.000000
    50  H    4.296312   2.266596   2.278300   2.827322   0.000000
 Framework group  C1[X(C14H32O4)]
 Deg. of freedom   144
                         Standard orientation:                         
 ---------------------------------------------------------------------
 Center     Atomic      Atomic             Coordinates (Angstroms)
 Number     Number       Type             X           Y           Z
 ---------------------------------------------------------------------
      1          6           0       -5.184452   -0.102268   -1.051405
      2          6           0       -4.364314   -0.407861    0.197693
      3          6           0       -2.832983   -0.294197    0.054036
      4          6           0       -2.395362    1.142649   -0.284180
      5          6           0       -2.493538    2.155438    0.852344
      6          6           0       -2.246974   -0.787829    1.400701
      7          8           0       -0.843219   -0.886237    1.462130
      8          6           0       -2.346553   -1.228754   -1.076402
      9          8           0       -0.944363   -1.348232   -1.149967
     10          1           0       -4.948895   -0.792196   -1.856688
     11          1           0       -5.017882    0.912339   -1.401839
     12          1           0       -6.242170   -0.204438   -0.818453
     13          1           0       -4.601883   -1.425095    0.519844
     14          1           0       -4.683179    0.263769    0.997316
     15          1           0       -3.008336    1.489699   -1.117424
     16          1           0       -1.369216    1.118580   -0.649305
     17          1           0       -1.766138    1.955327    1.634781
     18          1           0       -3.488628    2.164709    1.291194
     19          1           0       -2.290204    3.150335    0.462580
     20          1           0       -2.606275   -1.807345    1.579944
     21          1           0       -2.623615   -0.156731    2.213346
     22          1           0       -0.428428   -0.001996    1.485864
     23          1           0       -2.664737   -0.843611   -2.047885
     24          1           0       -2.791128   -2.225012   -0.932714
     25          1           0       -0.651595   -1.492875   -0.228793
     26          6           0        5.051805   -0.386979   -1.098073
     27          6           0        4.308408    0.500825   -0.104823
     28          6           0        2.778896    0.323547   -0.070140
     29          6           0        2.356993   -1.119787    0.258848
     30          6           0        3.044709   -1.750180    1.465875
     31          6           0        2.237992    1.300745    0.999634
     32          8           0        0.834733    1.337698    1.096920
     33          6           0        2.205969    0.724307   -1.452800
     34          8           0        0.801685    0.845032   -1.513619
     35          1           0        6.123091   -0.230452   -0.990745
     36          1           0        4.780440   -0.147283   -2.122443
     37          1           0        4.845371   -1.438490   -0.922259
     38          1           0        4.527363    1.545096   -0.343092
     39          1           0        4.697436    0.314445    0.897452
     40          1           0        2.531645   -1.748182   -0.617422
     41          1           0        1.286421   -1.121321    0.458846
     42          1           0        4.112201   -1.875370    1.306908
     43          1           0        2.613025   -2.731921    1.647287
     44          1           0        2.893110   -1.150855    2.359359
     45          1           0        2.613265    2.310091    0.772917
     46          1           0        2.607970    1.020100    1.988353
     47          1           0        0.523833    1.451807    0.177740
     48          1           0        2.548900    0.010811   -2.209594
     49          1           0        2.588537    1.715589   -1.718741
     50          1           0        0.375436   -0.033554   -1.527880
 ---------------------------------------------------------------------
 Rotational constants (GHZ):           0.7797110           0.1955764           0.1937732
   316 basis functions,   578 primitive gaussians,   334 cartesian basis functions
    74 alpha electrons       74 beta electrons
       nuclear repulsion energy      1600.0112910029 Hartrees.
 NAtoms=   50 NActive=   50 NUniq=   50 SFac= 1.00D+00 NAtFMM=   60 NAOKFM=F Big=F
 Nuclear repulsion after empirical dispersion term =     1599.9604396448 Hartrees.
   1 Symmetry operations used in ECPInt.
 ECPInt:  NShTT=   14878 NPrTT=   59670 LenC2=   14022 LenP2D=   39102.
 LDataN:  DoStor=T MaxTD1= 4 Len=   56
 ExpMin= 1.22D-01 ExpMax= 2.27D+03 ExpMxC= 3.41D+02 IAcc=3 IRadAn=         5 AccDes= 0.00D+00
 Harris functional with IExCor= 4639 and IRadAn=       5 diagonalized for initial guess.
 HarFok:  IExCor= 4639 AccDes= 0.00D+00 IRadAn=         5 IDoV= 1 UseB2=F ITyADJ=14
 ICtDFT=  3500011 ScaDFX=  1.000000  1.000000  1.000000  1.000000
 FoFCou: FMM=F IPFlag=           0 FMFlag=      100000 FMFlg1=           0
         NFxFlg=           0 DoJE=T BraDBF=F KetDBF=T FulRan=T
         wScrn=  0.000000 ICntrl=       500 IOpCl=  0 I1Cent=   200000004 NGrid=           0
         NMat0=    1 NMatS0=      1 NMatT0=    0 NMatD0=    1 NMtDS0=    0 NMtDT0=    0
 Petite list used in FoFCou.
     Minimum is close to point  3 DX= -1.81D-02 DF= -1.38D-04 DXR=  3.10D-02 DFR=  9.56D-04 which will be used.
     Accept linear search using points  2 and  3.
     Accept linear search using points  1 and  2.
     Accept linear search using points  2 and  3.
     Accept linear search using points  1 and  2.
     Minimum is close to point  2 DX= -5.46D-05 DF=  0.00D+00 DXR=  5.46D-05 DFR=  0.00D+00 which will be used.
 SCF Done:  E(RwB97XD) =  -852.717924457     a.u. after    7 cycles
            Convg  =    0.5600D-06                    25 Fock formations.
              S**2 =  0.0000                  -V/T =  2.0093

 **********************************************************************

            Population analysis using the SCF Density.

 **********************************************************************

 Orbital symmetries:
       Occupied  (A) (A) (A) (A) (A) (A) (A) (A) (A) (A) (A) (A)
                 (A) (A) (A) (A) (A) (A) (A) (A) (A) (A) (A) (A)
                 (A) (A) (A) (A) (A) (A) (A) (A) (A) (A) (A) (A)
                 (A) (A) (A) (A) (A) (A) (A) (A) (A) (A) (A) (A)
                 (A) (A) (A) (A) (A) (A) (A) (A) (A) (A) (A) (A)
                 (A) (A) (A) (A) (A) (A) (A) (A) (A) (A) (A) (A)
                 (A) (A)
       Virtual   (A) (A) (A) (A) (A) (A) (A) (A) (A) (A) (A) (A)
                 (A) (A) (A) (A) (A) (A) (A) (A) (A) (A) (A) (A)
                 (A) (A) (A) (A) (A) (A) (A) (A) (A) (A) (A) (A)
                 (A) (A) (A) (A) (A) (A) (A) (A) (A) (A) (A) (A)
                 (A) (A) (A) (A) (A) (A) (A) (A) (A) (A) (A) (A)
                 (A) (A) (A) (A) (A) (A) (A) (A) (A) (A) (A) (A)
                 (A) (A) (A) (A) (A) (A) (A) (A) (A) (A) (A) (A)
                 (A) (A) (A) (A) (A) (A) (A) (A) (A) (A) (A) (A)
                 (A) (A) (A) (A) (A) (A) (A) (A) (A) (A) (A) (A)
                 (A) (A) (A) (A) (A) (A) (A) (A) (A) (A) (A) (A)
                 (A) (A) (A) (A) (A) (A) (A) (A) (A) (A) (A) (A)
                 (A) (A) (A) (A) (A) (A) (A) (A) (A) (A) (A) (A)
                 (A) (A) (A) (A) (A) (A) (A) (A) (A) (A) (A) (A)
                 (A) (A) (A) (A) (A) (A) (A) (A) (A) (A) (A) (A)
                 (A) (A) (A) (A) (A) (A) (A) (A) (A) (A) (A) (A)
                 (A) (A) (A) (A) (A) (A) (A) (A) (A) (A) (A) (A)
                 (A) (A) (A) (A) (A) (A) (A) (A) (A) (A) (A) (A)
                 (A) (A) (A) (A) (A) (A) (A) (A) (A) (A) (A) (A)
                 (A) (A) (A) (A) (A) (A) (A) (A) (A) (A) (A) (A)
                 (A) (A) (A) (A) (A) (A) (A) (A) (A) (A) (A) (A)
                 (A) (A)
 The electronic state is 1-A.
 Alpha  occ. eigenvalues --  -19.25314 -19.25311 -19.24971 -19.24711 -10.33549
 Alpha  occ. eigenvalues --  -10.33511 -10.33285 -10.33163 -10.30338 -10.30337
 Alpha  occ. eigenvalues --  -10.29164 -10.29138 -10.28294 -10.28156 -10.28109
 Alpha  occ. eigenvalues --  -10.28066 -10.27478 -10.27461  -1.13087  -1.12085
 Alpha  occ. eigenvalues --   -1.10633  -1.09645  -0.92341  -0.92231  -0.84516
 Alpha  occ. eigenvalues --   -0.84353  -0.81797  -0.81287  -0.77009  -0.76474
 Alpha  occ. eigenvalues --   -0.72819  -0.71938  -0.71306  -0.71019  -0.64192
 Alpha  occ. eigenvalues --   -0.63666  -0.62189  -0.61706  -0.58840  -0.57834
 Alpha  occ. eigenvalues --   -0.57131  -0.56288  -0.54935  -0.54350  -0.53821
 Alpha  occ. eigenvalues --   -0.53258  -0.51637  -0.51292  -0.50110  -0.50074
 Alpha  occ. eigenvalues --   -0.49713  -0.49171  -0.48754  -0.48538  -0.47553
 Alpha  occ. eigenvalues --   -0.46655  -0.46017  -0.45383  -0.44889  -0.44574
 Alpha  occ. eigenvalues --   -0.43652  -0.43558  -0.43256  -0.42621  -0.41959
 Alpha  occ. eigenvalues --   -0.41287  -0.40158  -0.39558  -0.39087  -0.38270
 Alpha  occ. eigenvalues --   -0.36027  -0.35353  -0.34262  -0.33896
 Alpha virt. eigenvalues --    0.12689   0.13054   0.14638   0.15617   0.15728
 Alpha virt. eigenvalues --    0.16142   0.16427   0.17736   0.18541   0.18858
 Alpha virt. eigenvalues --    0.19213   0.19722   0.20055   0.20830   0.21238
 Alpha virt. eigenvalues --    0.21508   0.21868   0.22781   0.23111   0.23592
 Alpha virt. eigenvalues --    0.23805   0.24771   0.24998   0.25559   0.25897
 Alpha virt. eigenvalues --    0.26732   0.27373   0.27569   0.27895   0.28452
 Alpha virt. eigenvalues --    0.29325   0.29530   0.29991   0.30695   0.30900
 Alpha virt. eigenvalues --    0.31361   0.31925   0.32399   0.33646   0.34133
 Alpha virt. eigenvalues --    0.34289   0.34695   0.36299   0.36531   0.36867
 Alpha virt. eigenvalues --    0.37556   0.38115   0.38563   0.49205   0.50223
 Alpha virt. eigenvalues --    0.50613   0.51409   0.52537   0.53219   0.54008
 Alpha virt. eigenvalues --    0.54676   0.55069   0.56348   0.56992   0.58245
 Alpha virt. eigenvalues --    0.59340   0.59936   0.61543   0.62632   0.62940
 Alpha virt. eigenvalues --    0.64827   0.65695   0.66557   0.67310   0.68298
 Alpha virt. eigenvalues --    0.69426   0.70417   0.70963   0.71560   0.72061
 Alpha virt. eigenvalues --    0.72454   0.72917   0.73515   0.74220   0.75473
 Alpha virt. eigenvalues --    0.76119   0.76420   0.76861   0.77047   0.77347
 Alpha virt. eigenvalues --    0.77954   0.78767   0.79128   0.79618   0.79887
 Alpha virt. eigenvalues --    0.80030   0.80195   0.80509   0.81032   0.81132
 Alpha virt. eigenvalues --    0.81410   0.81656   0.81972   0.82580   0.82809
 Alpha virt. eigenvalues --    0.83124   0.84058   0.84598   0.84926   0.85164
 Alpha virt. eigenvalues --    0.85297   0.86017   0.86172   0.86414   0.86873
 Alpha virt. eigenvalues --    0.87447   0.87830   0.88744   0.89265   0.90261
 Alpha virt. eigenvalues --    0.90373   0.91945   0.94950   0.95799   0.98454
 Alpha virt. eigenvalues --    1.00568   1.02783   1.04369   1.05467   1.08439
 Alpha virt. eigenvalues --    1.09456   1.11798   1.13596   1.15749   1.18152
 Alpha virt. eigenvalues --    1.20469   1.20643   1.21671   1.23697   1.25501
 Alpha virt. eigenvalues --    1.26663   1.27890   1.28393   1.31496   1.33474
 Alpha virt. eigenvalues --    1.33781   1.37433   1.38100   1.40498   1.42496
 Alpha virt. eigenvalues --    1.44488   1.47217   1.49430   1.53063   1.54493
 Alpha virt. eigenvalues --    1.55137   1.58904   1.62991   1.63507   1.65244
 Alpha virt. eigenvalues --    1.68161   1.69549   1.71346   1.74909   1.77852
 Alpha virt. eigenvalues --    1.78682   1.81314   1.84920   1.84934   1.85638
 Alpha virt. eigenvalues --    1.87541   1.90198   1.91500   1.95061   1.95858
 Alpha virt. eigenvalues --    1.96331   1.96996   1.97435   2.00113   2.00739
 Alpha virt. eigenvalues --    2.01980   2.02141   2.03607   2.03957   2.05972
 Alpha virt. eigenvalues --    2.08684   2.09077   2.10880   2.13761   2.14550
 Alpha virt. eigenvalues --    2.15026   2.15870   2.17332   2.18387   2.18949
 Alpha virt. eigenvalues --    2.21067   2.21534   2.22051   2.24420   2.28222
 Alpha virt. eigenvalues --    2.28256   2.28646   2.29217   2.32116   2.32869
 Alpha virt. eigenvalues --    2.33896   2.34473   2.36690   2.36722   2.37425
 Alpha virt. eigenvalues --    2.37917   2.38397   2.39409   2.45795   2.46585
 Alpha virt. eigenvalues --    2.57141   2.57755   2.62927   2.64323   2.69216
 Alpha virt. eigenvalues --    2.69890   2.72604   2.73282   2.75684   2.76003
 Alpha virt. eigenvalues --    2.77730   2.78796   2.80327   2.81915   2.82304
 Alpha virt. eigenvalues --    2.82930   2.90969   2.91258   2.95186   2.95658
 Alpha virt. eigenvalues --    3.04014   3.04622   3.08836   3.09732   3.11020
 Alpha virt. eigenvalues --    3.12677   3.14470   3.15511   3.48120   3.48868
 Alpha virt. eigenvalues --    3.51628   3.52273
          Condensed to atoms (all electrons):
 Mulliken charges:
               1
     1  C   -0.303723
     2  C   -0.189585
     3  C   -0.317931
     4  C   -0.232993
     5  C   -0.307585
     6  C    0.053199
     7  O   -0.536856
     8  C    0.091474
     9  O   -0.537874
    10  H    0.123151
    11  H    0.122805
    12  H    0.119984
    13  H    0.099031
    14  H    0.105587
    15  H    0.101759
    16  H    0.119791
    17  H    0.124745
    18  H    0.112332
    19  H    0.121916
    20  H    0.097674
    21  H    0.107108
    22  H    0.357502
    23  H    0.105462
    24  H    0.088081
    25  H    0.370509
    26  C   -0.305747
    27  C   -0.188919
    28  C   -0.323031
    29  C   -0.228693
    30  C   -0.300033
    31  C    0.093231
    32  O   -0.532240
    33  C    0.065620
    34  O   -0.538444
    35  H    0.120623
    36  H    0.121478
    37  H    0.123152
    38  H    0.098276
    39  H    0.108563
    40  H    0.104283
    41  H    0.113160
    42  H    0.115589
    43  H    0.122850
    44  H    0.117518
    45  H    0.087873
    46  H    0.105365
    47  H    0.365735
    48  H    0.106264
    49  H    0.097132
    50  H    0.354833
 Sum of Mulliken charges =   0.00000
 Mulliken charges with hydrogens summed into heavy atoms:
               1
     1  C    0.062218
     2  C    0.015034
     3  C   -0.317931
     4  C   -0.011443
     5  C    0.051408
     6  C    0.257981
     7  O   -0.179354
     8  C    0.285017
     9  O   -0.167365
    26  C    0.059505
    27  C    0.017920
    28  C   -0.323031
    29  C   -0.011250
    30  C    0.055924
    31  C    0.286469
    32  O   -0.166505
    33  C    0.269016
    34  O   -0.183612
 Electronic spatial extent (au):  <R**2>=           6382.6573
 Charge=              0.0000 electrons
 Dipole moment (field-independent basis, Debye):
    X=              0.0213    Y=              0.0416    Z=             -0.0182  Tot=              0.0502
 Evaluate density.
 Using the total density.
 Monte-Carlo method of calculating molar volume:
 based on  0.001 e/bohr**3 density envelope.
 Number of points per bohr**3 =  100 CutOff= 1.00D-04
 Using the SCF density.
 There are      2305 points.  Will hold      2305 in memory.
 LenV=  1047690879 MDV=  1048576000.
 Box volume =12246.853 fraction occupied=0.196
 Integrated density= 1.1913277266476601D+02 error=-2.8867227335233991D+01
 Molar volume = 2401.552 bohr**3/mol (214.312 cm**3/mol)
 Recommended a0 for SCRF calculation =  5.34 angstrom ( 10.09 bohr)
   1 Symmetry operations used in ECPInt.
 ECPInt:  NShTT=   14878 NPrTT=   59670 LenC2=   14022 LenP2D=   39102.
 LDataN:  DoStor=T MaxTD1= 5 Len=  102
 Calling FoFJK, ICntrl=      2127 FMM=F ISym2X=0 I1Cent= 0 IOpClX= 0 NMat=1 NMatS=1 NMatT=0.

 GradGradGradGradGradGradGradGradGradGradGradGradGradGradGradGradGradGrad
 FormGI is forming the generalized inverse of G from B-inverse, IUseBI=4.
 Internal  Forces:  Max     0.011498938 RMS     0.003176262
 Step number   1 out of a maximum of  286
 All quantities printed in internal units (Hartrees-Bohrs-Radians)
 Mixed Optimization -- RFO/linear search
 Second derivative matrix not updated -- first step.
 ITU=  0
     Eigenvalues ---    0.00230   0.00235   0.00242   0.00246   0.00392
     Eigenvalues ---    0.00412   0.00428   0.00428   0.00429   0.00432
     Eigenvalues ---    0.00525   0.00570   0.00927   0.00984   0.01587
     Eigenvalues ---    0.02263   0.03000   0.03210   0.03212   0.03268
     Eigenvalues ---    0.03284   0.03308   0.03824   0.03968   0.04232
     Eigenvalues ---    0.04322   0.04380   0.04465   0.04501   0.04739
     Eigenvalues ---    0.04748   0.04757   0.04769   0.04793   0.05082
     Eigenvalues ---    0.05113   0.05190   0.05280   0.05431   0.05442
     Eigenvalues ---    0.05466   0.05484   0.05522   0.05596   0.05724
     Eigenvalues ---    0.05743   0.05767   0.05768   0.05784   0.07334
     Eigenvalues ---    0.07904   0.08767   0.08776   0.08868   0.08890
     Eigenvalues ---    0.09661   0.09833   0.09949   0.10005   0.11571
     Eigenvalues ---    0.12035   0.12108   0.12520   0.12523   0.12588
     Eigenvalues ---    0.12602   0.13533   0.13708   0.14064   0.14109
     Eigenvalues ---    0.14315   0.14605   0.14857   0.15323   0.15994
     Eigenvalues ---    0.16000   0.16000   0.16000   0.16000   0.16000
     Eigenvalues ---    0.16000   0.16000   0.16000   0.16000   0.16000
     Eigenvalues ---    0.16000   0.16000   0.16087   0.18005   0.19711
     Eigenvalues ---    0.20556   0.21972   0.21992   0.22011   0.22023
     Eigenvalues ---    0.22137   0.27431   0.27703   0.27793   0.28014
     Eigenvalues ---    0.28321   0.28506   0.28553   0.28581   0.29836
     Eigenvalues ---    0.29839   0.29846   0.29870   0.33631   0.33641
     Eigenvalues ---    0.34158   0.34163   0.34205   0.34221   0.34439
     Eigenvalues ---    0.34451   0.34536   0.34542   0.34543   0.34599
     Eigenvalues ---    0.34679   0.34687   0.34878   0.34917   0.35048
     Eigenvalues ---    0.35059   0.35080   0.35081   0.35091   0.35173
     Eigenvalues ---    0.35220   0.35220   0.35223   0.35247   0.35248
     Eigenvalues ---    0.35290   0.41443   0.43967   0.44182   0.44379
     Eigenvalues ---    0.50028   0.51905   0.51967   0.52010
 Linear search not attempted -- first point.
 Iteration  1 RMS(Cart)=  0.05159369 RMS(Int)=  0.00061421
 Iteration  2 RMS(Cart)=  0.00129131 RMS(Int)=  0.00006199
 Iteration  3 RMS(Cart)=  0.00000083 RMS(Int)=  0.00006199
 Variable       Old X    -DE/DX   Delta X   Delta X   Delta X     New X
                                 (Linear)    (Quad)   (Total)
    R1        2.88223   0.00450   0.00000   0.01461   0.01461   2.89683
    R2        2.05274   0.01117   0.00000   0.03084   0.03084   2.08358
    R3        2.05275   0.01101   0.00000   0.03039   0.03039   2.08314
    R4        2.05579   0.01028   0.00000   0.02854   0.02854   2.08432
    R5        2.91443   0.00344   0.00000   0.01175   0.01175   2.92618
    R6        2.06576   0.00844   0.00000   0.02384   0.02384   2.08960
    R7        2.06332   0.00866   0.00000   0.02434   0.02434   2.08766
    R8        2.90946   0.00410   0.00000   0.01388   0.01388   2.92334
    R9        2.92791  -0.00129   0.00000  -0.00422  -0.00422   2.92369
   R10        2.92016   0.00093   0.00000   0.00380   0.00384   2.92400
   R11        2.88273   0.00423   0.00000   0.01374   0.01374   2.89647
   R12        2.06186   0.00804   0.00000   0.02256   0.02256   2.08442
   R13        2.05874   0.00722   0.00000   0.02016   0.02016   2.07889
   R14        2.05395   0.01087   0.00000   0.03009   0.03009   2.08405
   R15        2.05527   0.01101   0.00000   0.03053   0.03053   2.08580
   R16        2.05545   0.01036   0.00000   0.02874   0.02874   2.08419
   R17        2.66176   0.00238   0.00000   0.00499   0.00499   2.66675
   R18        2.07064   0.00553   0.00000   0.01576   0.01576   2.08640
   R19        2.07055   0.00722   0.00000   0.02056   0.02056   2.09111
   R20        1.84623   0.00291   0.00000   0.00545   0.00549   1.85173
   R21        2.66299   0.00493   0.00000   0.01123   0.01123   2.67422
   R22        2.06435   0.00663   0.00000   0.01867   0.01867   2.08302
   R23        2.07941   0.00649   0.00000   0.01875   0.01875   2.09816
   R24        1.84691   0.00226   0.00000   0.00427   0.00427   1.85118
   R25        3.59200  -0.00168   0.00000  -0.02606  -0.02609   3.56591
   R26        3.55632  -0.00170   0.00000  -0.02884  -0.02881   3.52751
   R27        2.88292   0.00458   0.00000   0.01488   0.01488   2.89780
   R28        2.05596   0.01025   0.00000   0.02848   0.02848   2.08444
   R29        2.05314   0.01087   0.00000   0.03005   0.03005   2.08319
   R30        2.05207   0.01150   0.00000   0.03172   0.03172   2.08379
   R31        2.91045   0.00330   0.00000   0.01119   0.01119   2.92163
   R32        2.06596   0.00830   0.00000   0.02346   0.02346   2.08942
   R33        2.06200   0.00880   0.00000   0.02470   0.02470   2.08670
   R34        2.90886   0.00365   0.00000   0.01235   0.01235   2.92120
   R35        2.92261   0.00059   0.00000   0.00142   0.00139   2.92400
   R36        2.92792  -0.00083   0.00000  -0.00321  -0.00321   2.92471
   R37        2.88285   0.00380   0.00000   0.01233   0.01233   2.89518
   R38        2.06425   0.00866   0.00000   0.02440   0.02440   2.08865
   R39        2.05809   0.00712   0.00000   0.01985   0.01985   2.07794
   R40        2.05319   0.01111   0.00000   0.03070   0.03070   2.08388
   R41        2.05544   0.01025   0.00000   0.02844   0.02844   2.08388
   R42        2.05319   0.01121   0.00000   0.03097   0.03097   2.08416
   R43        2.65906   0.00498   0.00000   0.01066   0.01067   2.66972
   R44        2.07956   0.00578   0.00000   0.01671   0.01671   2.09627
   R45        2.06423   0.00673   0.00000   0.01894   0.01894   2.08317
   R46        1.84630   0.00277   0.00000   0.00523   0.00523   1.85153
   R47        2.66598   0.00200   0.00000   0.00473   0.00472   2.67070
   R48        2.06959   0.00710   0.00000   0.02018   0.02018   2.08977
   R49        2.06985   0.00626   0.00000   0.01781   0.01781   2.08766
   R50        1.84556   0.00362   0.00000   0.00687   0.00683   1.85239
    A1        1.94257   0.00196   0.00000   0.01131   0.01126   1.95383
    A2        1.94861   0.00144   0.00000   0.00874   0.00869   1.95730
    A3        1.90565   0.00177   0.00000   0.01044   0.01039   1.91603
    A4        1.89740  -0.00186   0.00000  -0.01098  -0.01102   1.88638
    A5        1.88592  -0.00196   0.00000  -0.01202  -0.01207   1.87385
    A6        1.88167  -0.00158   0.00000  -0.00886  -0.00890   1.87277
    A7        2.02959   0.00213   0.00000   0.01378   0.01371   2.04330
    A8        1.88697  -0.00027   0.00000   0.00119   0.00116   1.88813
    A9        1.89599  -0.00040   0.00000   0.00159   0.00152   1.89750
   A10        1.88790  -0.00057   0.00000  -0.00144  -0.00149   1.88641
   A11        1.88899  -0.00031   0.00000   0.00181   0.00174   1.89073
   A12        1.86828  -0.00082   0.00000  -0.01993  -0.01993   1.84834
   A13        1.95139   0.00076   0.00000   0.00608   0.00607   1.95746
   A14        1.84533  -0.00022   0.00000  -0.00360  -0.00357   1.84177
   A15        1.91360  -0.00057   0.00000  -0.00191  -0.00195   1.91164
   A16        1.96141  -0.00091   0.00000  -0.00907  -0.00912   1.95229
   A17        1.89045   0.00038   0.00000   0.00630   0.00627   1.89671
   A18        1.90084   0.00054   0.00000   0.00195   0.00202   1.90287
   A19        2.02377   0.00186   0.00000   0.01322   0.01313   2.03690
   A20        1.88065  -0.00002   0.00000   0.00480   0.00470   1.88535
   A21        1.89730  -0.00061   0.00000  -0.00247  -0.00250   1.89480
   A22        1.89825  -0.00030   0.00000   0.00292   0.00281   1.90106
   A23        1.90179  -0.00014   0.00000   0.00110   0.00109   1.90288
   A24        1.85484  -0.00104   0.00000  -0.02289  -0.02288   1.83196
   A25        1.95091   0.00082   0.00000   0.00376   0.00375   1.95466
   A26        1.94461   0.00186   0.00000   0.01178   0.01172   1.95632
   A27        1.90527   0.00214   0.00000   0.01293   0.01287   1.91813
   A28        1.90013  -0.00156   0.00000  -0.00975  -0.00977   1.89036
   A29        1.87681  -0.00175   0.00000  -0.01194  -0.01195   1.86485
   A30        1.88371  -0.00174   0.00000  -0.00806  -0.00817   1.87555
   A31        2.02317  -0.00411   0.00000  -0.02138  -0.02151   2.00166
   A32        1.89083   0.00079   0.00000   0.00645   0.00663   1.89746
   A33        1.90828   0.00120   0.00000   0.00278   0.00272   1.91100
   A34        1.82829   0.00226   0.00000   0.01984   0.01994   1.84823
   A35        1.92887   0.00127   0.00000   0.00292   0.00290   1.93177
   A36        1.87745  -0.00128   0.00000  -0.00953  -0.00957   1.86788
   A37        1.94008   0.00180   0.00000   0.00489   0.00484   1.94492
   A38        1.98524   0.00044   0.00000   0.00634   0.00629   1.99153
   A39        1.92373  -0.00027   0.00000  -0.00219  -0.00232   1.92141
   A40        1.90165  -0.00033   0.00000  -0.00393  -0.00389   1.89776
   A41        1.84761   0.00040   0.00000   0.00801   0.00806   1.85567
   A42        1.90929   0.00064   0.00000   0.00658   0.00655   1.91584
   A43        1.89405  -0.00092   0.00000  -0.01564  -0.01569   1.87836
   A44        1.83528   0.00354   0.00000   0.02645   0.02646   1.86174
   A45        2.26871  -0.00220   0.00000  -0.00365  -0.00364   2.26508
   A46        1.65265  -0.00134   0.00000  -0.00476  -0.00487   1.64778
   A47        2.74986   0.00243   0.00000   0.00994   0.00973   2.75959
   A48        1.90908   0.00187   0.00000   0.01125   0.01119   1.92026
   A49        1.94309   0.00187   0.00000   0.01104   0.01098   1.95407
   A50        1.94493   0.00141   0.00000   0.00805   0.00801   1.95294
   A51        1.88305  -0.00185   0.00000  -0.01043  -0.01049   1.87256
   A52        1.88655  -0.00169   0.00000  -0.00999  -0.01003   1.87651
   A53        1.89526  -0.00184   0.00000  -0.01124  -0.01128   1.88398
   A54        2.01707   0.00256   0.00000   0.01568   0.01560   2.03266
   A55        1.89271  -0.00021   0.00000   0.00349   0.00342   1.89613
   A56        1.90170  -0.00077   0.00000  -0.00244  -0.00247   1.89923
   A57        1.88994  -0.00071   0.00000  -0.00040  -0.00050   1.88943
   A58        1.88990  -0.00040   0.00000   0.00010   0.00008   1.88998
   A59        1.86705  -0.00070   0.00000  -0.01925  -0.01925   1.84780
   A60        1.96594   0.00045   0.00000   0.00519   0.00521   1.97114
   A61        1.86521  -0.00043   0.00000  -0.00060  -0.00056   1.86465
   A62        1.89374   0.00011   0.00000   0.00363   0.00365   1.89738
   A63        1.92704   0.00021   0.00000   0.00110   0.00102   1.92806
   A64        1.90912  -0.00043   0.00000  -0.00468  -0.00473   1.90439
   A65        1.90129   0.00010   0.00000  -0.00480  -0.00477   1.89653
   A66        2.01862   0.00313   0.00000   0.01859   0.01849   2.03712
   A67        1.90089  -0.00062   0.00000   0.00025   0.00012   1.90101
   A68        1.88598  -0.00123   0.00000  -0.00639  -0.00648   1.87950
   A69        1.90171  -0.00069   0.00000   0.00158   0.00150   1.90321
   A70        1.87261  -0.00014   0.00000   0.00370   0.00370   1.87632
   A71        1.87934  -0.00068   0.00000  -0.02072  -0.02074   1.85860
   A72        1.95494   0.00096   0.00000   0.00549   0.00546   1.96040
   A73        1.90289   0.00216   0.00000   0.01305   0.01299   1.91588
   A74        1.93887   0.00168   0.00000   0.00973   0.00969   1.94855
   A75        1.88635  -0.00158   0.00000  -0.00894  -0.00898   1.87737
   A76        1.89755  -0.00154   0.00000  -0.00968  -0.00969   1.88785
   A77        1.88110  -0.00189   0.00000  -0.01083  -0.01089   1.87020
   A78        1.99676   0.00005   0.00000  -0.00212  -0.00235   1.99441
   A79        1.89416  -0.00040   0.00000  -0.00175  -0.00164   1.89252
   A80        1.92335   0.00005   0.00000   0.00016   0.00016   1.92351
   A81        1.90735   0.00101   0.00000   0.00983   0.00988   1.91723
   A82        1.85661   0.00012   0.00000   0.00640   0.00650   1.86311
   A83        1.88244  -0.00087   0.00000  -0.01319  -0.01324   1.86920
   A84        2.29824  -0.00223   0.00000  -0.00818  -0.00820   2.29004
   A85        1.63483  -0.00079   0.00000  -0.00363  -0.00362   1.63121
   A86        1.82902   0.00267   0.00000   0.01778   0.01781   1.84683
   A87        2.01383  -0.00410   0.00000  -0.02267  -0.02280   1.99103
   A88        1.90961   0.00161   0.00000   0.00579   0.00569   1.91530
   A89        1.89822   0.00066   0.00000   0.00626   0.00649   1.90471
   A90        1.91521   0.00094   0.00000   0.00240   0.00248   1.91769
   A91        1.83357   0.00232   0.00000   0.01859   0.01864   1.85221
   A92        1.88858  -0.00136   0.00000  -0.00972  -0.00977   1.87881
   A93        1.93702   0.00189   0.00000   0.00822   0.00827   1.94529
   A94        2.74491   0.00286   0.00000   0.01184   0.01145   2.75636
    D1        1.07358  -0.00005   0.00000   0.00001   0.00001   1.07359
    D2       -1.05288  -0.00057   0.00000  -0.00856  -0.00857  -1.06146
    D3       -3.07456   0.00075   0.00000   0.01348   0.01349  -3.06107
    D4       -1.05020  -0.00005   0.00000  -0.00001  -0.00001  -1.05021
    D5        3.10652  -0.00057   0.00000  -0.00859  -0.00860   3.09792
    D6        1.08484   0.00074   0.00000   0.01346   0.01347   1.09831
    D7       -3.12913  -0.00013   0.00000  -0.00120  -0.00120  -3.13033
    D8        1.02758  -0.00065   0.00000  -0.00977  -0.00978   1.01780
    D9       -0.99409   0.00066   0.00000   0.01227   0.01228  -0.98181
   D10        1.09869   0.00045   0.00000   0.00506   0.00508   1.10377
   D11       -3.04475  -0.00037   0.00000  -0.00485  -0.00490  -3.04965
   D12       -0.99819  -0.00013   0.00000  -0.00549  -0.00543  -1.00363
   D13       -3.05852   0.00113   0.00000   0.01503   0.01504  -3.04348
   D14       -0.91877   0.00031   0.00000   0.00512   0.00507  -0.91370
   D15        1.12778   0.00055   0.00000   0.00449   0.00453   1.13231
   D16       -1.04002  -0.00028   0.00000  -0.00821  -0.00820  -1.04822
   D17        1.09973  -0.00110   0.00000  -0.01811  -0.01818   1.08155
   D18       -3.13690  -0.00087   0.00000  -0.01875  -0.01872   3.12757
   D19        1.27050  -0.00025   0.00000  -0.01651  -0.01650   1.25400
   D20       -0.86058  -0.00111   0.00000  -0.03308  -0.03311  -0.89370
   D21       -2.86381   0.00042   0.00000  -0.00749  -0.00750  -2.87132
   D22       -0.80156   0.00013   0.00000  -0.00991  -0.00988  -0.81144
   D23       -2.93264  -0.00073   0.00000  -0.02648  -0.02649  -2.95914
   D24        1.34731   0.00080   0.00000  -0.00089  -0.00089   1.34643
   D25       -2.90231  -0.00023   0.00000  -0.01090  -0.01087  -2.91318
   D26        1.24980  -0.00110   0.00000  -0.02747  -0.02749   1.22231
   D27       -0.75343   0.00044   0.00000  -0.00189  -0.00188  -0.75531
   D28        3.04672   0.00008   0.00000   0.00430   0.00429   3.05101
   D29        0.99867  -0.00081   0.00000  -0.01228  -0.01229   0.98638
   D30       -1.04263  -0.00039   0.00000  -0.00606  -0.00608  -1.04871
   D31       -1.10312   0.00033   0.00000   0.00403   0.00405  -1.09908
   D32        3.13201  -0.00056   0.00000  -0.01256  -0.01252   3.11948
   D33        1.09071  -0.00014   0.00000  -0.00633  -0.00632   1.08439
   D34        0.99160   0.00059   0.00000   0.00749   0.00747   0.99907
   D35       -1.05645  -0.00029   0.00000  -0.00910  -0.00910  -1.06556
   D36       -3.09775   0.00013   0.00000  -0.00287  -0.00290  -3.10065
   D37       -2.98289  -0.00008   0.00000  -0.01290  -0.01287  -2.99576
   D38        1.22858  -0.00068   0.00000  -0.02578  -0.02574   1.20284
   D39       -0.84795   0.00081   0.00000  -0.00296  -0.00297  -0.85092
[...]
 .00105314,0.00917156,-0.02184028,-0.03752908,0.00551826,0.00085565,0.0
 0184913,-0.00471822,-0.00608456,-0.00575220,-0.00009203,0.00003067,-0.
 00002452,0.00007119,0.00000036,0.00005921,0.00005520,-0.00003889,0.000
 01125,-0.00019317,-0.00018962,-0.00010939,-0.00028979,-0.00002082,0.00
 014701,-0.00027519,0.00004485,0.00006949,-0.00016239,-0.00090555,-0.00
 009599,-0.00009413,0.00004511,0.00019080,0.00002445,0.00000806,0.00009
 506,0.00001162,0.00014743,0.00016695,-0.00043004,-0.00006073,0.0012222
 2,0.00106177,0.00036506,-0.00004631,-0.00687181,0.02521735,0.00004587,
 -0.00000364,0.00002971,0.00009591,-0.00015528,-0.00026918,-0.00046296,
 0.00012297,0.00011359,0.00122863,-0.00047032,-0.00034789,-0.00051510,0
 .00009033,0.00057761,-0.00200093,0.00023055,0.00045020,0.00298066,0.00
 289552,-0.00060044,0.00142573,-0.00038654,0.00010888,-0.00248578,-0.00
 165143,-0.00163088,0.00002908,0.00002462,-0.00005431,0.00001469,-0.000
 01339,0.00001513,0.00000259,-0.00001047,-0.00002837,-0.00006822,-0.000
 02007,0.00000304,-0.00012016,0.00004224,-0.00007063,0.00031429,0.00005
 031,-0.00019958,0.00238445,0.00029763,0.00185358,-0.00035480,0.0000690
 5,-0.00087423,0.00023276,0.00015246,-0.00044184,-0.00004169,0.00004265
 ,0.00005896,0.00039110,0.00007835,-0.00005816,0.00009002,-0.00010135,-
 0.00013619,-0.00402171,-0.00562228,-0.00271407,0.00003865,0.00007351,-
 0.00008717,-0.00041016,-0.00008153,-0.00009723,-0.00013274,-0.00009398
 ,0.00201060,-0.00027727,-0.00008708,0.00030503,-0.00016280,0.00063289,
 -0.00206136,-0.00135049,0.00012855,0.00195529,0.00017630,-0.00011836,-
 0.00078277,0.00019168,-0.00020985,0.00021904,0.00979124,0.00000279,0.0
 0515164,0.12604296,-0.03683046,-0.39401400,-0.01594842,0.00017082,0.00
 156717,0.00781770,-0.00485481,0.00184390,-0.00004680,0.00008476,-0.000
 17555,-0.00009459,0.00008469,-0.00032870,-0.00000822,0.00000691,-0.000
 04059,-0.00004214,-0.00004134,0.00020293,0.00079512,-0.00008666,-0.000
 19725,-0.00021436,0.00046181,-0.00011012,0.00005572,0.00006262,0.00065
 524,0.00000317,-0.00001728,-0.00008647,-0.00001644,0.00004952,-0.00017
 536,-0.00002196,-0.00012683,-0.00040972,-0.00277814,-0.00094591,-0.000
 37258,-0.00366773,0.00066930,0.00179617,-0.12778047,0.04138810,0.38796
 327,-0.00001123,0.00000820,-0.00001737,0.00002679,-0.00007080,-0.00000
 933,-0.00006483,0.00012432,0.00000494,0.00026271,-0.00002563,-0.000009
 62,-0.00010308,-0.00007556,0.00002225,-0.00003040,-0.00000048,0.000076
 63,0.00007884,-0.00007993,-0.00007815,0.00005655,0.00001929,-0.0000418
 6,-0.00015089,-0.00057872,0.00007299,0.00000771,0.00000221,0.00000402,
 0.00001557,-0.00001226,-0.00000111,-0.00001484,-0.00000773,-0.00000049
 ,-0.00003820,-0.00002312,-0.00000540,0.00000010,0.00000981,0.00000240,
 -0.00004696,0.00000394,-0.00000485,0.00005771,0.00001602,0.00020907,0.
 00001918,0.00000613,-0.00001182,-0.00003140,0.00004325,-0.00005961,0.0
 0001772,-0.00000643,0.00001131,-0.00000234,-0.00002526,-0.00001724,0.0
 0000408,0.00000745,0.00000379,-0.00001460,0.00007766,0.00013889,0.0000
 0195,0.00002333,-0.00000672,-0.00004538,-0.00003930,-0.00000559,-0.000
 05967,0.00023266,0.00002801,-0.00048815,0.00026311,0.00045733,0.000440
 55,-0.00043118,-0.00043305,0.00546215,-0.00674238,0.00542236,-0.000003
 19,-0.00019479,-0.00003001,0.00001655,-0.00005137,0.00005072,-0.001918
 84,0.00096780,0.00210614,0.00111866,-0.00004384,-0.00163104,-0.0650288
 2,0.03931757,-0.04239542,-0.03064572,0.02829146,-0.02421455,0.00004910
 ,-0.00003515,-0.00016194,-0.00133252,0.00030181,0.00026973,0.00001654,
 0.00000896,-0.00006106,-0.00002029,0.00006527,0.00000899,0.00015220,0.
 00013376,-0.00009320,0.00018823,0.00003099,-0.00009014,-0.00000791,0.0
 0020221,-0.00000101,-0.00001395,-0.00000328,0.00002678,-0.00000748,0.0
 0001985,-0.00001221,-0.00003022,-0.00002823,0.00003501,0.00005480,0.00
 027712,-0.00017141,0.00051391,-0.00024111,0.00061077,-0.00048424,-0.00
 050125,0.00287191,0.08438240,0.00000943,-0.00000082,0.00001107,-0.0000
 2158,0.00000856,0.00000982,0.00005627,-0.00003268,-0.00001013,-0.00012
 597,-0.00000078,-0.00001321,0.00003475,0.00001781,-0.00000004,-0.00008
 266,0.00000289,-0.00003561,0.00010073,0.00009308,0.00008032,-0.0002250
 4,0.00004400,0.00007005,0.00046850,0.00035544,0.00009090,-0.00000740,0
 .00000024,-0.00000170,-0.00000794,0.00000303,0.00000063,0.00001323,0.0
 0000264,-0.00000035,0.00001193,0.00001103,-0.00000098,0.00000733,-0.00
 000639,0.00000062,0.00001987,-0.00000182,-0.00000231,-0.00001278,0.000
 00907,-0.00004428,-0.00001505,-0.00000323,-0.00001293,0.00002240,-0.00
 000845,0.00001872,-0.00001670,0.00000830,-0.00000222,0.00001398,0.0000
 1662,0.00000286,0.00000742,-0.00001199,0.00000271,-0.00009900,-0.00013
 436,-0.00008870,0.00001102,-0.00002069,-0.00001122,0.00007209,0.000026
 44,0.00001355,0.00002919,-0.00009393,-0.00004450,0.00049674,-0.0000302
 9,0.00072184,-0.00016075,-0.00008526,0.00066157,-0.00211522,0.00444777
 ,-0.00638690,-0.00019862,0.00095381,-0.00159153,-0.00005900,0.00022238
 ,0.00007950,0.00036851,-0.00003794,-0.00104146,0.00005617,-0.00004140,
 0.00055813,0.04511076,-0.17937959,0.11904068,0.00583417,0.00399060,0.0
 0020691,0.00005955,-0.00000395,-0.00027661,0.00036438,0.00025458,-0.00
 064778,0.00002669,-0.00004358,-0.00015928,0.00015283,0.00010748,0.0000
 6738,-0.00016361,0.00010255,-0.00006385,0.00023595,0.00009926,-0.00021
 253,-0.00011673,-0.00007924,0.00014500,-0.00003349,0.00000225,0.000047
 04,-0.00001701,0.00002341,0.00003796,-0.00001239,0.00002002,-0.0000724
 2,0.00003644,0.00034118,-0.00024000,0.00005108,0.00038848,-0.00021580,
 -0.00027785,0.00009974,-0.00087182,-0.05639567,0.18384792,-0.00000477,
 0.00000277,-0.00000493,0.00000363,-0.00001079,0.00001218,0.00000849,0.
 00002114,-0.00000597,0.00005632,0.00001566,0.00002599,-0.00000270,-0.0
 0001823,-0.00002956,0.00007812,-0.00001655,-0.00000738,-0.00012300,-0.
 00021286,0.00006824,-0.00007948,0.00002839,-0.00000924,0.00014722,-0.0
 0019967,0.00001680,0.00000083,0.00000036,0.00000444,0.00000369,-0.0000
 0374,-0.00000097,-0.00000415,-0.00000136,0.00000057,-0.00000712,-0.000
 00622,-0.00000239,0.00000824,-0.00000028,0.00000533,-0.00001620,-0.000
 00386,0.00000661,-0.00000552,0.00000843,-0.00003281,0.00002179,0.00000
 425,0.00003271,-0.00001752,0.00000255,0.00000488,0.00000795,-0.0000086
 4,-0.00000052,-0.00002312,-0.00001145,-0.00000220,0.00000563,0.0000042
 0,0.00000969,0.00025931,0.00031781,0.00005043,0.00000977,0.00000291,0.
 00000092,0.00000457,-0.00000862,0.00000077,-0.00009909,0.00009292,-0.0
 0013363,-0.00012195,0.00000324,-0.00040817,-0.00081565,0.00011778,-0.0
 0005843,-0.00796100,0.02163284,-0.02024685,-0.00047876,0.00227374,0.00
 099126,0.00019918,-0.00029915,0.00038020,0.00453311,-0.00328172,-0.004
 76600,-0.00110985,-0.00032597,0.00097358,-0.04516102,0.11776372,-0.164
 88245,-0.00166004,-0.00380088,0.00616889,-0.00010076,-0.00009114,0.000
 40442,0.00030391,-0.00009099,0.00092431,0.00006338,-0.00003366,0.00002
 022,0.00009164,-0.00007093,-0.00005403,0.00016087,-0.00012491,0.000043
 29,0.00027675,-0.00147307,-0.00004063,-0.00013954,-0.00008781,-0.00002
 246,-0.00004257,0.00007036,0.00001013,0.00000582,-0.00003480,-0.000007
 89,0.00000531,0.00012646,0.00030808,0.00010078,-0.00000280,0.00022656,
 -0.00065922,0.00133638,-0.00142039,0.00037481,-0.00009699,-0.00040883,
 0.04926469,-0.12713171,0.17348173,-0.00000820,-0.00001200,-0.00000641,
 0.00002688,0.00001702,-0.00003608,-0.00004310,-0.00000884,0.00005023,0
 .00011575,0.00002596,-0.00000443,-0.00005516,-0.00003408,0.00000643,0.
 00003699,0.00001457,0.00009888,0.00007933,0.00004772,-0.00025919,0.000
 65704,-0.00024899,-0.00006851,-0.00149358,-0.00129363,-0.00044891,0.00
 001273,0.00000054,-0.00000783,0.00000529,0.00000374,0.00000040,-0.0000
 1575,-0.00000004,-0.00000088,-0.00000443,-0.00000223,0.00000741,-0.000
 02913,0.00001164,-0.00001398,-0.00002748,-0.00000248,-0.00000209,0.000
 03957,-0.00012032,0.00007217,0.00000159,-0.00000280,-0.00001409,-0.000
 00924,0.00002772,-0.00002866,-0.00000622,0.00003227,-0.00000091,-0.000
 00375,-0.00000877,0.00000363,-0.00000547,0.00001115,-0.00002729,-0.000
 09192,-0.00004388,0.00011568,-0.00001881,0.00003433,0.00002089,-0.0002
 2289,-0.00003481,-0.00003725,-0.00011266,0.00018664,0.00036264,0.00004
 107,-0.00015041,-0.00004055,0.00045333,0.00183068,0.00152320,0.0031485
 9,0.00737743,0.00293572,-0.00070904,0.00064507,0.00222061,0.00040142,0
 .00055542,0.00012655,-0.00048398,-0.00030209,-0.00025820,0.00050854,0.
 00020272,-0.00062012,-0.07460666,-0.07412192,-0.02734153,-0.03351671,-
 0.03477749,-0.00553860,-0.00000766,-0.00001277,-0.00003142,0.00012070,
 -0.00006900,-0.00013511,0.00008518,-0.00006502,-0.00002985,-0.00042762
 ,-0.00018321,0.00057825,0.00000232,0.00004539,-0.00011779,-0.00000111,
 -0.00025988,0.00009708,0.00003258,0.00000246,0.00001399,0.00001287,-0.
 00001863,-0.00005616,-0.00002801,0.00011710,0.00018716,-0.00000689,-0.
 00001380,0.00006324,0.00011117,-0.00002496,-0.00017865,0.00000049,0.00
 011338,-0.00007910,-0.00012313,-0.00067591,0.00101787,0.00525156,0.007
 18436,0.00328601,0.10452736,-0.00000822,-0.00000693,-0.00000605,0.0000
 1523,0.00000928,-0.00000201,-0.00005179,0.00000190,0.00000315,0.000040
 64,-0.00001548,-0.00000318,-0.00001430,-0.00001468,0.00000084,0.000143
 39,0.00000695,0.00000962,-0.00018722,0.00003156,-0.00007561,0.00024180
 ,-0.00000566,-0.00000683,-0.00026698,0.00006225,0.00001430,0.00000610,
 -0.00000043,-0.00000149,0.00000324,0.00000373,0.00000058,-0.00001082,-
 0.00000015,0.00000119,-0.00000143,-0.00000111,0.00000277,-0.00001009,0
 .00000358,-0.00000589,-0.00001460,0.00000409,0.00000382,0.00001722,-0.
 00000998,0.00002404,0.00000261,-0.00000538,0.00000069,-0.00000696,0.00
 000925,-0.00001210,-0.00000094,0.00001548,0.00000305,-0.00000983,-0.00
 000648,0.00000292,-0.00002606,0.00001395,-0.00001336,0.00004584,-0.000
 06543,0.00007195,-0.00001764,0.00000889,0.00001054,-0.00003505,-0.0000
 1174,-0.00001320,0.00015449,0.00002311,0.00007135,0.00037868,0.0000335
 2,-0.00002296,-0.00077081,0.00012285,0.00041455,-0.00251293,-0.0072838
 4,-0.00113475,0.00112515,0.00027294,-0.00240160,-0.00047938,-0.0001881
 5,0.00015441,-0.00009065,0.00045325,0.00079727,0.00013976,0.00026129,-
 0.00020367,-0.08394447,-0.26246721,-0.06413667,0.00010658,0.00966929,0
 .00213844,0.00006379,-0.00000479,-0.00001040,-0.00003822,-0.00027597,-
 0.00001475,-0.00016380,0.00015729,0.00010173,0.00070287,0.00057768,-0.
 00015264,0.00015370,0.00038188,0.00016841,-0.00005768,0.00049207,-0.00
 000557,0.00006815,0.00017212,0.00022098,0.00012262,-0.00002199,-0.0000
 7417,0.00007627,-0.00005843,-0.00020143,0.00002236,-0.00003399,-0.0001
 7595,-0.00011878,0.00050624,-0.00036932,0.00010545,0.00017743,-0.00002
 146,-0.00007804,-0.00041414,0.00037871,-0.00714603,-0.01579343,-0.0069
 3392,0.09053320,0.27152465,-0.00000040,-0.00000209,0.00000012,-0.00000
 372,0.00000759,0.00001163,0.00000292,-0.00001239,-0.00001163,-0.000023
 34,-0.00000006,0.00000172,0.00001039,0.00000148,-0.00000080,0.00007072
 ,0.00000717,-0.00002478,-0.00012545,0.00008448,0.00002848,-0.00004002,
 -0.00000488,0.00002193,0.00002606,0.00009562,0.00007823,-0.00000150,0.
 00000034,0.00000034,-0.00000233,0.00000224,0.00000162,0.00000125,0.000
 00124,0.00000106,0.00000505,0.00000462,-0.00000092,0.00000161,-0.00000
 260,-0.00000101,0.00000580,0.00000439,-0.00000018,-0.00000772,-0.00001
 930,-0.00001167,-0.00000743,-0.00000721,-0.00000827,0.00000954,0.00000
 097,0.00000292,-0.00001116,0.00001164,0.00000394,0.00000117,0.00000401
 ,0.00000133,-0.00001908,0.00000244,-0.00000324,-0.00000845,-0.00015987
 ,-0.00002478,-0.00000749,-0.00000067,0.00000178,0.00001148,0.00000883,
 -0.00000091,0.00011213,-0.00000569,-0.00008198,0.00022462,0.00000352,0
 .00005781,-0.00153610,-0.00111901,0.00078403,-0.00871860,-0.02803722,-
 0.00973308,0.00265017,0.00055921,-0.00549395,-0.00065922,-0.00182285,0
 .00036604,-0.00056573,-0.00189972,0.00136556,0.00007869,0.00053679,0.0
 0001128,-0.02848356,-0.06313466,-0.07382848,0.00167715,0.00218068,0.00
 343114,0.00002749,-0.00003754,0.00005344,0.00006894,-0.00000249,-0.000
 07157,-0.00006911,0.00012185,-0.00010776,0.00099042,0.00071768,-0.0000
 4768,-0.00025542,0.00040880,0.00020387,0.00020721,-0.00015506,0.000214
 49,-0.00003652,0.00025281,0.00009304,0.00009419,0.00002989,0.00001076,
 0.00016470,-0.00024847,-0.00057379,-0.00005267,0.00008835,0.00000733,0
 .00008378,0.00099434,-0.00036163,0.00022859,0.00026809,0.00031847,-0.0
 0009856,-0.00036899,-0.00024297,0.00826738,0.01848817,0.00770672,0.025
 26304,0.07207167,0.07549971,0.00005293,0.00011679,0.00002192,-0.000268
 79,-0.00032345,0.00039298,0.00019093,0.00029382,-0.00067363,-0.0003130
 9,-0.00027677,0.00033613,0.00046629,0.00005593,-0.00008502,0.00027976,
 -0.00017226,-0.00098650,-0.00161539,-0.00143669,0.00263692,-0.00857878
 ,0.00149669,-0.00014586,0.00400072,0.00632466,0.00478112,-0.00011685,-
 0.00001113,0.00009811,-0.00002493,-0.00004629,-0.00001261,0.00012703,-
 0.00001264,0.00001953,-0.00003144,0.00000794,-0.00008693,0.00031655,-0
 .00009721,0.00015117,-0.00006838,0.00003025,0.00004129,-0.00041596,0.0
 0203180,-0.00103406,0.00008910,0.00000920,0.00024475,0.00000512,-0.000
 15709,0.00021520,0.00006056,-0.00026707,0.00003412,-0.00009155,0.00003
 008,-0.00005150,-0.00001619,-0.00005853,0.00029450,0.00195621,0.001468
 93,-0.00010055,0.00030632,-0.00038828,-0.00009117,0.00227486,0.0004038
 5,0.00055871,0.00349619,0.00004534,-0.00405139,0.00015836,0.00012208,0
 .00010154,-0.00031991,-0.00018025,-0.00033162,-0.00016838,-0.00039388,
 0.00080018,-0.00014253,0.00031583,-0.00001296,0.00017391,-0.00000167,0
 .00012402,0.00001367,-0.00053419,0.00051068,-0.00135107,-0.00062247,-0
 .00365151,-0.02494358,-0.03217826,0.00152534,-0.12626779,-0.13072774,0
 .00405234,0.00014640,-0.00001452,-0.00005082,-0.00012205,-0.00000613,-
 0.00015955,-0.00003469,-0.00004105,-0.00000915,0.00006979,0.00009666,0
 .00006791,0.00027347,0.00010559,-0.00012149,-0.00016814,0.00012826,-0.
 00002249,0.00099324,0.00053846,0.00068088,0.00005246,-0.00003569,-0.00
 017216,0.00006373,-0.00021056,-0.00012307,0.00009214,0.00007845,-0.000
 15974,-0.00018081,-0.00000445,0.00004713,0.00001602,0.00007911,-0.0003
 0835,0.00284396,0.00017387,0.00498596,0.00239960,-0.00069133,-0.000648
 80,-0.00361376,0.00179360,0.00044908,0.14793473,-0.00000480,0.00015001
 ,-0.00001602,-0.00014542,-0.00074215,0.00046894,0.00082432,0.00102103,
 -0.00048400,0.00111033,0.00024103,0.00042053,-0.00044473,-0.00038203,-
 0.00022174,-0.00027701,-0.00017184,-0.00058477,-0.00067109,-0.00151093
 ,0.00221726,-0.00785601,0.00474387,0.00204567,0.01015704,-0.00585698,0
 .00045555,-0.00007817,0.00002590,0.00009601,0.00004585,-0.00011890,-0.
 00001196,0.00006865,-0.00004927,0.00000148,-0.00022428,-0.00010459,-0.
 00012980,0.00035432,-0.00007554,0.00014797,-0.00003121,-0.00004618,-0.
 00002218,0.00101578,-0.00033372,0.00117014,0.00010942,0.00006780,0.000
 07611,-0.00010641,0.00015758,-0.00012548,0.00006020,-0.00019087,0.0000
 6025,-0.00004568,-0.00007510,-0.00015363,0.00007810,-0.00006022,0.0002
 8182,0.00135659,0.00145702,0.00023643,0.00051400,-0.00021691,-0.000369
 14,0.00259622,0.00004092,0.00053482,0.00033547,-0.00061106,-0.00479055
 ,0.00002025,0.00017179,0.00007085,-0.00002598,-0.00061573,-0.00103632,
 0.00204556,0.00067176,0.00090998,0.00076143,0.00067696,-0.00003888,-0.
 00051135,-0.00057014,0.00001294,-0.00027244,-0.00067369,0.00030609,-0.
 00031352,0.00007110,-0.00269769,0.00198389,0.01251902,-0.00138486,-0.1
 7265486,-0.35484040,0.01721844,0.00010211,-0.00006050,-0.00001939,-0.0
 0008988,0.00007856,-0.00009122,0.00004984,-0.00013418,-0.00004611,-0.0
 0024810,-0.00016393,0.00007942,0.00049221,-0.00001915,-0.00019285,0.00
 039138,-0.00019873,0.00015048,0.00038416,-0.00012392,-0.00129952,-0.00
 012445,0.00010008,0.00018911,0.00007128,-0.00016913,-0.00016466,0.0000
 5316,0.00009281,0.00008647,-0.00000034,-0.00011256,0.00011528,0.000116
 05,0.00013236,-0.00029282,0.00011293,-0.00276823,0.00450905,0.00230530
 ,0.00030925,0.00055679,0.00346746,0.00168887,0.00008187,0.15314243,0.3
 4657886,0.00005163,0.00001503,0.00008775,-0.00009437,-0.00000269,-0.00
 000440,0.00012827,-0.00026054,-0.00019418,-0.00057703,-0.00020251,-0.0
 0033989,0.00022740,0.00001779,-0.00006113,-0.00113970,-0.00005240,-0.0
 0026824,0.00097668,0.00045672,0.00103700,-0.00239618,0.00167373,0.0003
 6257,0.00472834,0.00106007,-0.00666181,-0.00001733,0.00003139,-0.00001
 996,-0.00000964,-0.00001816,0.00000703,0.00005378,-0.00000055,-0.00002
 785,0.00002683,0.00001052,-0.00001352,0.00005461,-0.00002332,0.0000092
 3,0.00054151,-0.00013669,-0.00000582,-0.00099335,0.00172050,0.00040268
 ,-0.00002157,0.00004213,-0.00005170,0.00004506,-0.00007667,0.00007935,
 -0.00000149,-0.00009906,0.00002261,0.00011309,0.00007172,-0.00001327,0
 .00017125,-0.00008134,0.00005062,-0.00012436,0.00017972,-0.00120181,0.
 00060367,-0.00007577,-0.00015752,0.00105527,0.00015739,0.00009540,-0.0
 0325740,-0.00509599,-0.00201448,-0.00001631,0.00001066,0.00021714,0.00
 030883,-0.00035701,-0.00046422,0.00138769,0.00164937,0.00019207,0.0015
 2659,0.00003006,0.00027471,-0.00060671,-0.00008826,-0.00024398,0.00138
 726,0.00044833,0.00010637,-0.00137458,-0.00199235,-0.00121377,-0.00115
 252,0.00012534,-0.00327681,0.01030287,0.01748244,-0.01235503,-0.000013
 62,-0.00000399,-0.00007998,-0.00002330,-0.00000310,-0.00013423,0.00002
 502,-0.00003109,-0.00000301,-0.00014655,-0.00009635,-0.00004490,0.0001
 3891,-0.00000856,-0.00008426,-0.00037595,0.00024270,-0.00003363,0.0000
 5300,-0.00153042,-0.00134656,-0.00014692,0.00009689,0.00025974,0.00004
 132,0.00002580,0.00002835,0.00005260,-0.00000502,-0.00002887,-0.000302
 15,-0.00024589,0.00001044,-0.00021375,0.00002760,-0.00004140,0.0021532
 8,0.00508152,0.00013545,-0.00040192,-0.00117556,0.00066678,-0.00266749
 ,-0.00066799,0.00035231,-0.01008058,-0.01832616,0.02598865\\0.00000016
 ,0.00000048,0.00000042,0.00000016,0.00000022,0.00000084,-0.00000001,0.
 ,0.00000057,-0.00000012,0.00000001,-0.00000046,0.00000005,-0.00000029,
 -0.00000051,0.00000023,-0.00000045,0.00000077,-0.00000065,-0.00000078,
 0.00000119,0.00000010,0.00000096,0.00000059,-0.00000021,0.,0.00000043,
 0.00000018,0.00000096,0.00000080,0.00000018,0.00000074,0.00000010,0.,0
 .00000051,0.00000074,-0.00000022,-0.00000001,0.00000105,-0.00000022,-0
 .00000033,0.00000043,0.00000030,0.00000067,-0.00000015,0.00000015,0.00
 000044,-0.00000023,-0.00000003,-0.00000060,-0.00000068,-0.00000010,-0.
 00000030,-0.00000049,0.00000013,0.00000002,-0.00000098,-0.00000035,-0.
 00000057,0.00000098,-0.00000037,-0.00000075,0.00000024,0.00000006,-0.0
 0000005,-0.00000050,0.00000021,0.00000084,0.00000067,-0.00000009,0.000
 00042,0.00000115,0.00000020,0.00000028,0.00000086,0.00000009,0.0000003
 0,-0.00000047,-0.00000025,-0.00000026,-0.00000063,0.00000020,-0.000000
 27,-0.00000038,-0.00000009,0.00000003,0.00000030,-0.00000040,-0.000000
 72,0.00000061,-0.00000010,-0.00000059,-0.00000078,-0.00000023,-0.00000
 064,-0.00000049,0.00000010,0.00000050,-0.00000066,0.00000023,0.0000006
 3,-0.00000061,0.00000017,0.00000012,-0.00000057,0.00000018,0.00000058,
 -0.00000027,-0.00000003,-0.00000003,-0.00000001,0.00000019,0.00000007,
 -0.00000117,-0.00000002,-0.00000056,-0.00000077,0.00000005,0.00000004,
 0.00000040,0.00000009,-0.00000012,0.00000029,-0.00000013,-0.00000087,0
 .00000016,-0.00000038,-0.00000083,0.00000081,-0.00000029,-0.00000094,0
 .00000007,0.00000007,-0.00000029,-0.00000122,-0.00000010,-0.00000082,-
 0.00000073,-0.00000004,-0.00000012,-0.00000059,0.00000032,0.00000084,-
 0.00000015,0.00000028,0.00000066,-0.00000091,0.00000037,0.00000082,-0.
 00000008\\\@


 THE RARE EARTHS PERPLEX US IN OUR RESEARCHES,
 BAFFLE US IN OUR SPECULATIONS, AND HAUNT US IN OUR
 VERY DREAMS.  THEY STRETCH LIKE AN UNKNOWN BEFORE US,
 MOCKING, MYSTIFYING, AND MURMURING STRANGE REVELATIONS
 AND POSSIBILITIES.  -- SIR WILLIAM CROOKE, 1832-1919
 File lengths (MBytes):  RWF=    601 Int=      0 D2E=      0 Chk=      9 Scr=      1
 Normal termination of Gaussian 16 at Mon Feb  6 12:15:38 2023.
real 10490.78
user 41515.41
sys 31.21
