 Entering Gaussian System, Link 0=g16
 Input=gaussian_test.inp
 Output=gaussian_test.log
 Initial command:
 /sw/restricted/lms/sw/Gaussian/g16_B01/g16/l1.exe "/scratch/user/peterchao1/peterchao1/6269708_1663082857000000543186962/Gau-246787.inp" -scrdir="/scratch/user/peterchao1/peterchao1/6269708_1663082857000000543186962/"
 Entering Link 1 = /sw/restricted/lms/sw/Gaussian/g16_B01/g16/l1.exe PID=    246788.
  
 Copyright (c) 1988-2017, Gaussian, Inc.  All Rights Reserved.
  
 This is part of the Gaussian(R) 16 program.  It is based on
 the Gaussian(R) 09 system (copyright 2009, Gaussian, Inc.),
 the Gaussian(R) 03 system (copyright 2003, Gaussian, Inc.),
 the Gaussian(R) 98 system (copyright 1998, Gaussian, Inc.),
 the Gaussian(R) 94 system (copyright 1995, Gaussian, Inc.),
 the Gaussian 92(TM) system (copyright 1992, Gaussian, Inc.),
 the Gaussian 90(TM) system (copyright 1990, Gaussian, Inc.),
 the Gaussian 88(TM) system (copyright 1988, Gaussian, Inc.),
 the Gaussian 86(TM) system (copyright 1986, Carnegie Mellon
 University), and the Gaussian 82(TM) system (copyright 1983,
 Carnegie Mellon University). Gaussian is a federally registered
 trademark of Gaussian, Inc.
  
 This software contains proprietary and confidential information,
 including trade secrets, belonging to Gaussian, Inc.
  
 This software is provided under written license and may be
 used, copied, transmitted, or stored only in accord with that
 written license.
  
 The following legend is applicable only to US Government
 contracts under FAR:
  
                    RESTRICTED RIGHTS LEGEND
  
 Use, reproduction and disclosure by the US Government is
 subject to restrictions as set forth in subparagraphs (a)
 and (c) of the Commercial Computer Software - Restricted
 Rights clause in FAR 52.227-19.
  
 Gaussian, Inc.
 340 Quinnipiac St., Bldg. 40, Wallingford CT 06492
  
  
 ---------------------------------------------------------------
 Warning -- This program may not be used in any manner that
 competes with the business of Gaussian, Inc. or will provide
 assistance to any competitor of Gaussian, Inc.  The licensee
 of this program is prohibited from giving any competitor of
 Gaussian, Inc. access to this program.  By using this program,
 the user acknowledges that Gaussian, Inc. is engaged in the
 business of creating and licensing software in the field of
 computational chemistry and represents and warrants to the
 licensee that it is not a competitor of Gaussian, Inc. and that
 it will not use this program in any manner prohibited above.
 ---------------------------------------------------------------
  

 Cite this work as:
 Gaussian 16, Revision B.01,
 M. J. Frisch, G. W. Trucks, H. B. Schlegel, G. E. Scuseria, 
 M. A. Robb, J. R. Cheeseman, G. Scalmani, V. Barone, 
 G. A. Petersson, H. Nakatsuji, X. Li, M. Caricato, A. V. Marenich, 
 J. Bloino, B. G. Janesko, R. Gomperts, B. Mennucci, H. P. Hratchian, 
 J. V. Ortiz, A. F. Izmaylov, J. L. Sonnenberg, D. Williams-Young, 
 F. Ding, F. Lipparini, F. Egidi, J. Goings, B. Peng, A. Petrone, 
 T. Henderson, D. Ranasinghe, V. G. Zakrzewski, J. Gao, N. Rega, 
 G. Zheng, W. Liang, M. Hada, M. Ehara, K. Toyota, R. Fukuda, 
 J. Hasegawa, M. Ishida, T. Nakajima, Y. Honda, O. Kitao, H. Nakai, 
 T. Vreven, K. Throssell, J. A. Montgomery, Jr., J. E. Peralta, 
 F. Ogliaro, M. J. Bearpark, J. J. Heyd, E. N. Brothers, K. N. Kudin, 
 V. N. Staroverov, T. A. Keith, R. Kobayashi, J. Normand, 
 K. Raghavachari, A. P. Rendell, J. C. Burant, S. S. Iyengar, 
 J. Tomasi, M. Cossi, J. M. Millam, M. Klene, C. Adamo, R. Cammi, 
 J. W. Ochterski, R. L. Martin, K. Morokuma, O. Farkas, 
 J. B. Foresman, and D. J. Fox, Gaussian, Inc., Wallingford CT, 2016.
 
 ******************************************
 Gaussian 16:  ES64L-G16RevB.01 20-Dec-2017
                13-Sep-2022 
 ******************************************
 %nprocshared=4
 Will use up to    4 processors via shared memory.
 %mem=8000mb
 ----------------------------------------------------------------------
 #T wB97XD/def2svpp opt=(tight,calcall) freq int(grid=ultrafine) scf=(v
 erytight,qc)
 ----------------------------------------------------------------------
 -----
 dimer
 -----
 Symbolic Z-matrix:
 Charge =  0 Multiplicity = 1
 Cl                    2.18653   1.13472   1.35776 
 C                     2.19215  -0.00045   0.00107 
 Cl                    1.60546  -1.57611   0.54703 
 Cl                    1.13988   0.61041  -1.28105 
 Cl                    3.83919  -0.16901  -0.62199 
 Cl                   -3.84068  -0.2673    0.58187 
 C                    -2.1922   -0.00007  -0.00109 
 Cl                   -1.603    -1.46736  -0.79191 
 Cl                   -2.18352   1.33866  -1.15722 
 Cl                   -1.14385   0.39617   1.36552 
 
 Add virtual bond connecting atoms Cl8        and Cl3        Dist= 6.57D+00.
 Add virtual bond connecting atoms Cl8        and Cl4        Dist= 6.57D+00.
 Add virtual bond connecting atoms Cl9        and Cl4        Dist= 6.43D+00.
 Add virtual bond connecting atoms Cl10       and Cl1        Dist= 6.45D+00.
 Add virtual bond connecting atoms Cl10       and Cl3        Dist= 6.58D+00.

 GradGradGradGradGradGradGradGradGradGradGradGradGradGradGradGradGradGrad
 Initialization pass.
                           ----------------------------
                           !    Initial Parameters    !
                           ! (Angstroms and Degrees)  !
 --------------------------                            --------------------------
 ! Name  Definition              Value          Derivative Info.                !
 --------------------------------------------------------------------------------
 ! R1    R(1,2)                  1.769          calculate D2E/DX2 analytically  !
 ! R2    R(1,10)                 3.4113         calculate D2E/DX2 analytically  !
 ! R3    R(2,3)                  1.7678         calculate D2E/DX2 analytically  !
 ! R4    R(2,4)                  1.7676         calculate D2E/DX2 analytically  !
 ! R5    R(2,5)                  1.769          calculate D2E/DX2 analytically  !
 ! R6    R(3,8)                  3.4783         calculate D2E/DX2 analytically  !
 ! R7    R(3,10)                 3.4812         calculate D2E/DX2 analytically  !
 ! R8    R(4,8)                  3.4756         calculate D2E/DX2 analytically  !
 ! R9    R(4,9)                  3.4045         calculate D2E/DX2 analytically  !
 ! R10   R(6,7)                  1.7688         calculate D2E/DX2 analytically  !
 ! R11   R(7,8)                  1.7679         calculate D2E/DX2 analytically  !
 ! R12   R(7,9)                  1.7689         calculate D2E/DX2 analytically  !
 ! R13   R(7,10)                 1.7674         calculate D2E/DX2 analytically  !
 ! A1    A(2,1,10)              82.2944         calculate D2E/DX2 analytically  !
 ! A2    A(1,2,3)              109.5154         calculate D2E/DX2 analytically  !
 ! A3    A(1,2,4)              109.4296         calculate D2E/DX2 analytically  !
 ! A4    A(1,2,5)              109.5259         calculate D2E/DX2 analytically  !
 ! A5    A(3,2,4)              109.5408         calculate D2E/DX2 analytically  !
 ! A6    A(3,2,5)              109.4419         calculate D2E/DX2 analytically  !
 ! A7    A(4,2,5)              109.3738         calculate D2E/DX2 analytically  !
 ! A8    A(2,3,8)               99.1712         calculate D2E/DX2 analytically  !
 ! A9    A(2,3,10)              80.1969         calculate D2E/DX2 analytically  !
 ! A10   A(8,3,10)              49.0275         calculate D2E/DX2 analytically  !
 ! A11   A(2,4,8)               99.2728         calculate D2E/DX2 analytically  !
 ! A12   A(2,4,9)              128.9531         calculate D2E/DX2 analytically  !
 ! A13   A(8,4,9)               49.6374         calculate D2E/DX2 analytically  !
 ! A14   A(6,7,8)              109.429          calculate D2E/DX2 analytically  !
 ! A15   A(6,7,9)              109.5315         calculate D2E/DX2 analytically  !
 ! A16   A(6,7,10)             109.3806         calculate D2E/DX2 analytically  !
 ! A17   A(8,7,9)              109.5195         calculate D2E/DX2 analytically  !
 ! A18   A(8,7,10)             109.528          calculate D2E/DX2 analytically  !
 ! A19   A(9,7,10)             109.4387         calculate D2E/DX2 analytically  !
 ! A20   A(3,8,4)               49.0738         calculate D2E/DX2 analytically  !
 ! A21   A(3,8,7)               99.2752         calculate D2E/DX2 analytically  !
 ! A22   A(4,8,7)               80.201          calculate D2E/DX2 analytically  !
 ! A23   A(4,9,7)               82.3382         calculate D2E/DX2 analytically  !
 ! A24   A(1,10,3)              49.5407         calculate D2E/DX2 analytically  !
 ! A25   A(1,10,7)             128.7466         calculate D2E/DX2 analytically  !
 ! A26   A(3,10,7)              99.1861         calculate D2E/DX2 analytically  !
 ! D1    D(10,1,2,3)           -59.5828         calculate D2E/DX2 analytically  !
 ! D2    D(10,1,2,4)            60.5039         calculate D2E/DX2 analytically  !
 ! D3    D(10,1,2,5)          -179.6074         calculate D2E/DX2 analytically  !
 ! D4    D(2,1,10,3)            32.8528         calculate D2E/DX2 analytically  !
 ! D5    D(2,1,10,7)           -32.6039         calculate D2E/DX2 analytically  !
 ! D6    D(1,2,3,8)            103.6117         calculate D2E/DX2 analytically  !
 ! D7    D(1,2,3,10)            58.1934         calculate D2E/DX2 analytically  !
 ! D8    D(4,2,3,8)            -16.407          calculate D2E/DX2 analytically  !
 ! D9    D(4,2,3,10)           -61.8253         calculate D2E/DX2 analytically  !
 ! D10   D(5,2,3,8)           -136.3123         calculate D2E/DX2 analytically  !
 ! D11   D(5,2,3,10)           178.2694         calculate D2E/DX2 analytically  !
 ! D12   D(1,2,4,8)           -103.646          calculate D2E/DX2 analytically  !
 ! D13   D(1,2,4,9)            -59.0291         calculate D2E/DX2 analytically  !
 ! D14   D(3,2,4,8)             16.4251         calculate D2E/DX2 analytically  !
 ! D15   D(3,2,4,9)             61.0421         calculate D2E/DX2 analytically  !
 ! D16   D(5,2,4,8)            136.372          calculate D2E/DX2 analytically  !
 ! D17   D(5,2,4,9)           -179.011          calculate D2E/DX2 analytically  !
 ! D18   D(2,3,8,4)             10.3216         calculate D2E/DX2 analytically  !
 ! D19   D(2,3,8,7)            -57.9731         calculate D2E/DX2 analytically  !
 ! D20   D(10,3,8,4)            78.69           calculate D2E/DX2 analytically  !
 ! D21   D(10,3,8,7)            10.3954         calculate D2E/DX2 analytically  !
 ! D22   D(2,3,10,1)           -33.0876         calculate D2E/DX2 analytically  !
 ! D23   D(2,3,10,7)           100.9675         calculate D2E/DX2 analytically  !
 ! D24   D(8,3,10,1)          -144.451          calculate D2E/DX2 analytically  !
 ! D25   D(8,3,10,7)           -10.3959         calculate D2E/DX2 analytically  !
 ! D26   D(2,4,8,3)            -10.3257         calculate D2E/DX2 analytically  !
 ! D27   D(2,4,8,7)            101.1573         calculate D2E/DX2 analytically  !
 ! D28   D(9,4,8,3)           -144.5319         calculate D2E/DX2 analytically  !
 ! D29   D(9,4,8,7)            -33.0489         calculate D2E/DX2 analytically  !
 ! D30   D(2,4,9,7)            -32.653          calculate D2E/DX2 analytically  !
 ! D31   D(8,4,9,7)             32.8162         calculate D2E/DX2 analytically  !
 ! D32   D(6,7,8,3)           -136.4399         calculate D2E/DX2 analytically  !
 ! D33   D(6,7,8,4)            178.1315         calculate D2E/DX2 analytically  !
 ! D34   D(9,7,8,3)            103.4825         calculate D2E/DX2 analytically  !
 ! D35   D(9,7,8,4)             58.0539         calculate D2E/DX2 analytically  !
 ! D36   D(10,7,8,3)           -16.542          calculate D2E/DX2 analytically  !
 ! D37   D(10,7,8,4)           -61.9706         calculate D2E/DX2 analytically  !
 ! D38   D(6,7,9,4)           -179.4795         calculate D2E/DX2 analytically  !
 ! D39   D(8,7,9,4)            -59.4646         calculate D2E/DX2 analytically  !
 ! D40   D(10,7,9,4)            60.6145         calculate D2E/DX2 analytically  !
 ! D41   D(6,7,10,1)          -179.0322         calculate D2E/DX2 analytically  !
 ! D42   D(6,7,10,3)           136.4514         calculate D2E/DX2 analytically  !
 ! D43   D(8,7,10,1)            61.0402         calculate D2E/DX2 analytically  !
 ! D44   D(8,7,10,3)            16.5239         calculate D2E/DX2 analytically  !
 ! D45   D(9,7,10,1)           -59.0337         calculate D2E/DX2 analytically  !
 ! D46   D(9,7,10,3)          -103.55           calculate D2E/DX2 analytically  !
 --------------------------------------------------------------------------------
 Number of steps in this run=     95 maximum allowed number of steps=    100.
 GradGradGradGradGradGradGradGradGradGradGradGradGradGradGradGradGradGrad

                    Distance matrix (angstroms):
                    1          2          3          4          5
     1  Cl   0.000000
     2  C    1.768966   0.000000
     3  Cl   2.888514   1.767764   0.000000
     4  Cl   2.886821   1.767563   2.887821   0.000000
     5  Cl   2.889707   1.768996   2.887229   2.885852   0.000000
     6  Cl   6.236578   6.066598   5.601302   5.389510   7.774273
     7  C    4.723083   4.384358   4.148079   3.621293   6.065621
     8  Cl   5.074686   4.145339   3.478329   3.475593   5.597498
     9  Cl   5.046194   4.720315   5.075104   3.404506   6.231578
    10  Cl   3.411293   3.626006   3.481161   3.502234   5.394466
                    6          7          8          9         10
     6  Cl   0.000000
     7  C    1.768821   0.000000
     8  Cl   2.886980   1.767914   0.000000
     9  Cl   2.889588   1.768871   2.888633   0.000000
    10  Cl   2.885688   1.767390   2.887574   2.886766   0.000000
 Framework group  C1[X(C2Cl8)]
 Deg. of freedom    24
                         Standard orientation:                         
 ---------------------------------------------------------------------
 Center     Atomic      Atomic             Coordinates (Angstroms)
 Number     Number       Type             X           Y           Z
 ---------------------------------------------------------------------
      1         17           0       -2.186530   -1.134719    1.357764
      2          6           0       -2.192155    0.000447    0.001075
      3         17           0       -1.605457    1.576107    0.547031
      4         17           0       -1.139880   -0.610409   -1.281054
      5         17           0       -3.839191    0.169010   -0.621986
      6         17           0        3.840678    0.267299    0.581870
      7          6           0        2.192202    0.000067   -0.001089
      8         17           0        1.602996    1.467360   -0.791914
      9         17           0        2.183519   -1.338658   -1.157223
     10         17           0        1.143847   -0.396172    1.365517
 ---------------------------------------------------------------------
 Rotational constants (GHZ):           0.8660970           0.2473341           0.2473080
   172 basis functions,   346 primitive gaussians,   182 cartesian basis functions
    74 alpha electrons       74 beta electrons
       nuclear repulsion energy      1516.5462393152 Hartrees.
 NAtoms=   10 NActive=   10 NUniq=   10 SFac= 1.00D+00 NAtFMM=   60 NAOKFM=F Big=F
 Nuclear repulsion after empirical dispersion term =     1516.5412183900 Hartrees.
   1 Symmetry operations used in ECPInt.
 ECPInt:  NShTT=    2926 NPrTT=   14406 LenC2=    2598 LenP2D=    7986.
 LDataN:  DoStor=T MaxTD1= 4 Len=   56
 ExpMin= 1.31D-01 ExpMax= 1.04D+04 ExpMxC= 1.57D+03 IAcc=3 IRadAn=         5 AccDes= 0.00D+00
 Harris functional with IExCor= 4639 and IRadAn=       5 diagonalized for initial guess.
 HarFok:  IExCor= 4639 AccDes= 0.00D+00 IRadAn=         5 IDoV= 1 UseB2=F ITyADJ=14
 ICtDFT=  3500011 ScaDFX=  1.000000  1.000000  1.000000  1.000000
 FoFCou: FMM=F IPFlag=           0 FMFlag=      100000 FMFlg1=           0
         NFxFlg=           0 DoJE=T BraDBF=F KetDBF=T FulRan=T
         wScrn=  0.000000 ICntrl=       500 IOpCl=  0 I1Cent=   200000004 NGrid=           0
         NMat0=    1 NMatS0=      1 NMatT0=    0 NMatD0=    1 NMtDS0=    0 NMtDT0=    0
 Petite list used in FoFCou.
     Accept linear search using points  3 and  4.
     Minimum is close to point  2 DX=  1.02D-02 DF= -9.82D-07 DXR=  1.67D-02 DFR=  2.78D-04 which will be used.
     Minimum is close to point  2 DX=  1.50D-02 DF= -2.94D-07 DXR=  2.44D-02 DFR=  5.97D-04 which will be used.
     Minimum is close to point  2 DX=  1.53D-03 DF= -7.69D-11 DXR=  1.53D-03 DFR=  2.34D-06 which will be used.
 SCF Done:  E(RwB97XD) =  -3756.48614745     a.u. after    8 cycles
            Convg  =    0.7646D-09                    35 Fock formations.
              S**2 =  0.0000                  -V/T =  2.0021
 DoSCS=F DFT=T ScalE2(SS,OS)=  1.000000  1.000000
 NROrb=    172 NOA=    74 NOB=    74 NVA=    98 NVB=    98
   1 Symmetry operations used in ECPInt.
 ECPInt:  NShTT=    2926 NPrTT=   14406 LenC2=    2598 LenP2D=    7986.
 LDataN:  DoStor=T MaxTD1= 5 Len=  102
 Symmetrizing basis deriv contribution to polar:
 IMax=3 JMax=2 DiffMx= 0.00D+00
 Calling FoFCou, ICntrl=  3107 FMM=F I1Cent=   0 AccDes= 0.00D+00.
 End of G2Drv F.D. properties file   721 does not exist.
 End of G2Drv F.D. properties file   722 does not exist.
 End of G2Drv F.D. properties file   788 does not exist.
          IDoAtm=1111111111
 End of Minotr F.D. properties file   721 does not exist.
 End of Minotr F.D. properties file   722 does not exist.
 End of Minotr F.D. properties file   788 does not exist.

 **********************************************************************

            Population analysis using the SCF Density.

 **********************************************************************

 Orbital symmetries:
       Occupied  (A) (A) (A) (A) (A) (A) (A) (A) (A) (A) (A) (A)
                 (A) (A) (A) (A) (A) (A) (A) (A) (A) (A) (A) (A)
                 (A) (A) (A) (A) (A) (A) (A) (A) (A) (A) (A) (A)
                 (A) (A) (A) (A) (A) (A) (A) (A) (A) (A) (A) (A)
                 (A) (A) (A) (A) (A) (A) (A) (A) (A) (A) (A) (A)
                 (A) (A) (A) (A) (A) (A) (A) (A) (A) (A) (A) (A)
                 (A) (A)
       Virtual   (A) (A) (A) (A) (A) (A) (A) (A) (A) (A) (A) (A)
                 (A) (A) (A) (A) (A) (A) (A) (A) (A) (A) (A) (A)
                 (A) (A) (A) (A) (A) (A) (A) (A) (A) (A) (A) (A)
                 (A) (A) (A) (A) (A) (A) (A) (A) (A) (A) (A) (A)
                 (A) (A) (A) (A) (A) (A) (A) (A) (A) (A) (A) (A)
                 (A) (A) (A) (A) (A) (A) (A) (A) (A) (A) (A) (A)
                 (A) (A) (A) (A) (A) (A) (A) (A) (A) (A) (A) (A)
                 (A) (A) (A) (A) (A) (A) (A) (A) (A) (A) (A) (A)
                 (A) (A)
 The electronic state is 1-A.
 Alpha  occ. eigenvalues -- -101.70952-101.70948-101.70901-101.70899-101.70860
 Alpha  occ. eigenvalues -- -101.70857-101.70826-101.70818 -10.52682 -10.52681
 Alpha  occ. eigenvalues --   -9.61843  -9.61839  -9.61799  -9.61797  -9.61748
 Alpha  occ. eigenvalues --   -9.61744  -9.61718  -9.61712  -7.37303  -7.37299
 Alpha  occ. eigenvalues --   -7.37262  -7.37260  -7.37209  -7.37206  -7.37180
 Alpha  occ. eigenvalues --   -7.37176  -7.36181  -7.36177  -7.36177  -7.36173
 Alpha  occ. eigenvalues --   -7.36134  -7.36133  -7.36132  -7.36131  -7.36086
 Alpha  occ. eigenvalues --   -7.36082  -7.36079  -7.36076  -7.36053  -7.36050
 Alpha  occ. eigenvalues --   -7.36049  -7.36045  -1.08849  -1.08540  -0.95584
 Alpha  occ. eigenvalues --   -0.95581  -0.95503  -0.95253  -0.95218  -0.95163
 Alpha  occ. eigenvalues --   -0.72066  -0.71542  -0.59673  -0.59543  -0.59245
 Alpha  occ. eigenvalues --   -0.59184  -0.58912  -0.58786  -0.47180  -0.46472
 Alpha  occ. eigenvalues --   -0.46313  -0.45268  -0.44868  -0.43156  -0.43149
 Alpha  occ. eigenvalues --   -0.43119  -0.43108  -0.40820  -0.40012  -0.39996
 Alpha  occ. eigenvalues --   -0.39544  -0.39497  -0.39451  -0.39290
 Alpha virt. eigenvalues --    0.03898   0.03944   0.07754   0.07870   0.08014
 Alpha virt. eigenvalues --    0.08079   0.08166   0.08418   0.37383   0.45414
 Alpha virt. eigenvalues --    0.45988   0.46287   0.47611   0.47679   0.48486
 Alpha virt. eigenvalues --    0.48939   0.54939   0.58031   0.58049   0.61081
 Alpha virt. eigenvalues --    0.63790   0.63852   0.69328   0.69471   0.69510
 Alpha virt. eigenvalues --    0.69639   0.77054   0.78455   0.78655   0.78747
 Alpha virt. eigenvalues --    0.79158   0.79189   0.79734   0.79789   0.79866
 Alpha virt. eigenvalues --    0.80030   0.80388   0.80943   0.81093   0.81468
 Alpha virt. eigenvalues --    0.81494   0.82405   0.82928   0.83110   0.83403
 Alpha virt. eigenvalues --    0.83471   0.83697   0.83806   0.84321   0.84993
 Alpha virt. eigenvalues --    0.85418   0.85666   0.86011   0.86048   0.86068
 Alpha virt. eigenvalues --    0.86233   0.86634   0.87253   0.89000   0.89228
 Alpha virt. eigenvalues --    0.90270   0.90720   0.91810   0.93219   0.93892
 Alpha virt. eigenvalues --    0.98960   0.99068   1.06436   1.09774   1.10899
 Alpha virt. eigenvalues --    1.13011   1.13113   1.14880   1.16223   1.30289
 Alpha virt. eigenvalues --    1.30426   1.31470   1.31485   1.32461   1.33382
 Alpha virt. eigenvalues --    1.35522   1.35877   1.36270   1.36414   1.37791
 Alpha virt. eigenvalues --    1.40802   1.46805   1.48049   1.83799   1.84188
 Alpha virt. eigenvalues --    1.84225   1.84823   2.17725   2.18631   2.18954
 Alpha virt. eigenvalues --    2.19526   2.21371   2.21764
          Condensed to atoms (all electrons):
 Mulliken charges:
               1
     1  Cl  -0.008325
     2  C    0.023400
     3  Cl  -0.004279
     4  Cl  -0.004317
     5  Cl  -0.006520
     6  Cl  -0.006413
     7  C    0.023282
     8  Cl  -0.004345
     9  Cl  -0.008270
    10  Cl  -0.004212
 Sum of Mulliken charges =   0.00000
 Mulliken charges with hydrogens summed into heavy atoms:
               1
     1  Cl  -0.008325
     2  C    0.023400
     3  Cl  -0.004279
     4  Cl  -0.004317
     5  Cl  -0.006520
     6  Cl  -0.006413
     7  C    0.023282
     8  Cl  -0.004345
     9  Cl  -0.008270
    10  Cl  -0.004212
 APT charges:
               1
     1  Cl  -0.339960
     2  C    1.344298
     3  Cl  -0.329639
     4  Cl  -0.320157
     5  Cl  -0.353281
     6  Cl  -0.353300
     7  C    1.345068
     8  Cl  -0.331232
     9  Cl  -0.340570
    10  Cl  -0.321227
 Sum of APT charges =   0.00000
 APT charges with hydrogens summed into heavy atoms:
               1
     1  Cl  -0.339960
     2  C    1.344298
     3  Cl  -0.329639
     4  Cl  -0.320157
     5  Cl  -0.353281
     6  Cl  -0.353300
     7  C    1.345068
     8  Cl  -0.331232
     9  Cl  -0.340570
    10  Cl  -0.321227
 Electronic spatial extent (au):  <R**2>=           4301.6971
 Charge=              0.0000 electrons
 Dipole moment (field-independent basis, Debye):
    X=              0.0015    Y=              0.0241    Z=             -0.0013  Tot=              0.0242
  Exact polarizability: 104.567   0.118  85.536   1.320  -0.045  85.036
 Approx polarizability: 116.337   0.030 112.117   0.385  -0.005 111.996
   1 Symmetry operations used in ECPInt.
 ECPInt:  NShTT=    2926 NPrTT=   14406 LenC2=    2598 LenP2D=    7986.
 LDataN:  DoStor=T MaxTD1= 6 Len=  172
 Calling FoFJK, ICntrl=    100127 FMM=F ISym2X=0 I1Cent= 0 IOpClX= 0 NMat=1 NMatS=1 NMatT=0.
 FormGI is forming the generalized inverse of G from B-inverse, IUseBI=4.

 GradGradGradGradGradGradGradGradGradGradGradGradGradGradGradGradGradGrad
 Internal  Forces:  Max     0.004803061 RMS     0.001487915
 Step number   1 out of a maximum of   95
 All quantities printed in internal units (Hartrees-Bohrs-Radians)
 Mixed Optimization -- RFO/linear search
 Second derivative matrix not updated -- analytic derivatives used.
 ITU=  0
     Eigenvalues ---    0.00126   0.00255   0.00315   0.00396   0.00475
     Eigenvalues ---    0.00717   0.05057   0.05083   0.05775   0.06090
     Eigenvalues ---    0.07591   0.08003   0.08963   0.09414   0.09432
     Eigenvalues ---    0.11232   0.16719   0.17631   0.18596   0.19044
     Eigenvalues ---    0.20006   0.20116   0.27782   0.28961
 Linear search not attempted -- first point.
 Maximum step size (   0.300) exceeded in Quadratic search.
    -- Step size scaled by   0.605
 Iteration  1 RMS(Cart)=  0.02574718 RMS(Int)=  0.00014080
 Iteration  2 RMS(Cart)=  0.00009049 RMS(Int)=  0.00011034
 Iteration  3 RMS(Cart)=  0.00000001 RMS(Int)=  0.00011034
 Variable       Old X    -DE/DX   Delta X   Delta X   Delta X     New X
                                 (Linear)    (Quad)   (Total)
    R1        3.34286   0.00451   0.00000   0.01004   0.00997   3.35283
    R2        6.44641   0.00190   0.00000   0.12122   0.12123   6.56764
    R3        3.34059   0.00383   0.00000   0.00873   0.00849   3.34908
    R4        3.34021   0.00472   0.00000   0.00904   0.00897   3.34918
    R5        3.34292   0.00463   0.00000   0.00938   0.00938   3.35230
    R6        6.57309   0.00164   0.00000   0.15485   0.15483   6.72792
    R7        6.57844   0.00229   0.00000   0.11159   0.11175   6.69019
    R8        6.56792   0.00233   0.00000   0.14107   0.14129   6.70921
    R9        6.43358   0.00195   0.00000   0.12973   0.12974   6.56332
   R10        3.34259   0.00475   0.00000   0.00938   0.00938   3.35197
   R11        3.34087   0.00377   0.00000   0.00908   0.00885   3.34972
   R12        3.34268   0.00452   0.00000   0.01004   0.00993   3.35261
   R13        3.33988   0.00480   0.00000   0.00978   0.00973   3.34961
    A1        1.43631  -0.00020   0.00000   0.00437   0.00432   1.44062
    A2        1.91140  -0.00039   0.00000  -0.00036  -0.00037   1.91103
    A3        1.90991   0.00048   0.00000   0.00082   0.00092   1.91083
    A4        1.91159  -0.00028   0.00000  -0.00214  -0.00215   1.90944
    A5        1.91185  -0.00026   0.00000   0.00170   0.00154   1.91338
    A6        1.91012   0.00025   0.00000  -0.00049  -0.00044   1.90968
    A7        1.90893   0.00020   0.00000   0.00046   0.00050   1.90943
    A8        1.73086  -0.00001   0.00000   0.00364   0.00360   1.73446
    A9        1.39970  -0.00018   0.00000   0.00717   0.00709   1.40679
   A10        0.85569   0.00082   0.00000  -0.01526  -0.01504   0.84065
   A11        1.73264  -0.00042   0.00000   0.00809   0.00794   1.74058
   A12        2.25066   0.00014   0.00000  -0.00405  -0.00394   2.24672
   A13        0.86634   0.00071   0.00000  -0.01680  -0.01650   0.84983
   A14        1.90990   0.00027   0.00000  -0.00023  -0.00017   1.90973
   A15        1.91169  -0.00029   0.00000  -0.00190  -0.00191   1.90978
   A16        1.90905   0.00020   0.00000   0.00057   0.00061   1.90966
   A17        1.91148  -0.00039   0.00000  -0.00043  -0.00047   1.91100
   A18        1.91162  -0.00025   0.00000   0.00199   0.00184   1.91347
   A19        1.91007   0.00046   0.00000  -0.00000   0.00010   1.91017
   A20        0.85650   0.00081   0.00000  -0.01758  -0.01727   0.83923
   A21        1.73268  -0.00001   0.00000  -0.00250  -0.00250   1.73018
   A22        1.39977  -0.00017   0.00000   0.00378   0.00365   1.40342
   A23        1.43707  -0.00020   0.00000   0.00688   0.00679   1.44386
   A24        0.86465   0.00073   0.00000  -0.01399  -0.01378   0.85087
   A25        2.24705   0.00014   0.00000   0.00143   0.00151   2.24856
   A26        1.73112  -0.00043   0.00000   0.01155   0.01144   1.74256
    D1       -1.03992   0.00021   0.00000  -0.00325  -0.00318  -1.04309
    D2        1.05599  -0.00005   0.00000  -0.00088  -0.00096   1.05504
    D3       -3.13474   0.00032   0.00000  -0.00112  -0.00110  -3.13584
    D4        0.57339   0.00012   0.00000  -0.00025  -0.00026   0.57313
    D5       -0.56904   0.00017   0.00000  -0.00171  -0.00170  -0.57074
    D6        1.80837   0.00054   0.00000  -0.01024  -0.01011   1.79825
    D7        1.01567  -0.00028   0.00000   0.00500   0.00490   1.02056
    D8       -0.28636   0.00036   0.00000  -0.01207  -0.01196  -0.29832
    D9       -1.07905  -0.00047   0.00000   0.00317   0.00305  -1.07601
   D10       -2.37910   0.00012   0.00000  -0.01338  -0.01324  -2.39234
   D11        3.11139  -0.00070   0.00000   0.00186   0.00177   3.11316
   D12       -1.80896  -0.00006   0.00000   0.01180   0.01176  -1.79720
   D13       -1.03025   0.00045   0.00000  -0.00158  -0.00142  -1.03167
   D14        0.28667  -0.00041   0.00000   0.01291   0.01282   0.29949
   D15        1.06539   0.00011   0.00000  -0.00048  -0.00036   1.06502
   D16        2.38014  -0.00014   0.00000   0.01364   0.01353   2.39367
   D17       -3.12433   0.00037   0.00000   0.00025   0.00035  -3.12399
   D18        0.18015  -0.00014   0.00000   0.00671   0.00665   0.18679
   D19       -1.01182  -0.00032   0.00000   0.00800   0.00797  -1.00385
   D20        1.37340   0.00004   0.00000   0.00537   0.00526   1.37866
   D21        0.18143  -0.00015   0.00000   0.00666   0.00657   0.18801
   D22       -0.57749  -0.00026   0.00000   0.00042   0.00038  -0.57711
   D23        1.76222  -0.00005   0.00000  -0.00101  -0.00103   1.76118
   D24       -2.52115   0.00000   0.00000  -0.00561  -0.00555  -2.52670
   D25       -0.18144   0.00022   0.00000  -0.00704  -0.00697  -0.18841
   D26       -0.18022   0.00020   0.00000  -0.00683  -0.00677  -0.18698
   D27        1.76553  -0.00007   0.00000  -0.00491  -0.00488   1.76065
   D28       -2.52256  -0.00000   0.00000  -0.00274  -0.00274  -2.52530
   D29       -0.57681  -0.00027   0.00000  -0.00081  -0.00085  -0.57767
   D30       -0.56990   0.00016   0.00000   0.00179   0.00179  -0.56812
   D31        0.57275   0.00012   0.00000   0.00045   0.00047   0.57322
   D32       -2.38133   0.00012   0.00000  -0.01300  -0.01283  -2.39416
   D33        3.10898  -0.00070   0.00000   0.00365   0.00353   3.11251
   D34        1.80611   0.00054   0.00000  -0.01027  -0.01010   1.79601
   D35        1.01323  -0.00027   0.00000   0.00638   0.00626   1.01950
   D36       -0.28871   0.00038   0.00000  -0.01123  -0.01107  -0.29978
   D37       -1.08159  -0.00044   0.00000   0.00543   0.00530  -1.07629
   D38       -3.13251   0.00029   0.00000  -0.00681  -0.00677  -3.13928
   D39       -1.03785   0.00020   0.00000  -0.00852  -0.00844  -1.04629
   D40        1.05792  -0.00007   0.00000  -0.00635  -0.00641   1.05151
   D41       -3.12470   0.00039   0.00000   0.00589   0.00596  -3.11874
   D42        2.38153  -0.00013   0.00000   0.01513   0.01506   2.39659
   D43        1.06535   0.00009   0.00000   0.00461   0.00467   1.07002
   D44        0.28840  -0.00043   0.00000   0.01385   0.01377   0.30217
   D45       -1.03033   0.00045   0.00000   0.00392   0.00405  -1.02628
   D46       -1.80729  -0.00007   0.00000   0.01315   0.01316  -1.79413
         Item               Value     Threshold  Converged?
 Maximum Force            0.004803     0.000015     NO 
 RMS     Force            0.001488     0.000010     NO 
 Maximum Displacement     0.090286     0.000060     NO 
 RMS     Displacement     0.025775     0.000040     NO 
 GradGradGradGradGradGradGradGradGradGradGradGradGradGradGradGradGradGrad

                    Distance matrix (angstroms):
                    1          2          3          4          5
     1  Cl   0.000000
     2  C    1.774240   0.000000
     3  Cl   2.896115   1.772259   0.000000
     4  Cl   2.895945   1.772312   2.896940   0.000000
     5  Cl   2.895867   1.773962   2.894504   2.894291   0.000000
     6  Cl   6.309411   6.148417   5.687713   5.467854   7.863031
     7  C    4.790232   4.460191   4.221466   3.694632   6.148259
     8  Cl   5.143512   4.227594   3.560261   3.550358   5.692119
     9  Cl   5.105825   4.786014   5.134367   3.473161   6.306233
    10  Cl   3.475446   3.691317   3.540296   3.556914   5.464793
                    6          7          8          9         10
     6  Cl   0.000000
     7  C    1.773784   0.000000
     8  Cl   2.894679   1.772597   0.000000
     9  Cl   2.895979   1.774127   2.896266   0.000000
    10  Cl   2.894562   1.772538   2.897488   2.895361   0.000000
 Framework group  C1[X(C2Cl8)]
 Deg. of freedom    24
                         Standard orientation:                         
 ---------------------------------------------------------------------
 Center     Atomic      Atomic             Coordinates (Angstroms)
 Number     Number       Type             X           Y           Z
 ---------------------------------------------------------------------
      1         17           0       -2.219355   -1.646925    0.658356
      2          6           0       -2.229939    0.000706    0.000234
      3         17           0       -1.645516    1.133251    1.231775
      4         17           0       -1.177908    0.075040   -1.424124
      5         17           0       -3.884647    0.438523   -0.465812
      6         17           0        3.885250   -0.052569    0.636354
      7          6           0        2.230252    0.000615    0.000381
      8         17           0        1.651516    1.676072    0.002798
      9         17           0        2.215170   -0.628518   -1.658381
     10         17           0        1.175380   -0.995339    1.018818
 ---------------------------------------------------------------------
 Rotational constants (GHZ):           0.8612148           0.2407720           0.2407588
   172 basis functions,   346 primitive gaussians,   182 cartesian basis functions
    74 alpha electrons       74 beta electrons
       nuclear repulsion energy      1503.8268208977 Hartrees.
 NAtoms=   10 NActive=   10 NUniq=   10 SFac= 1.00D+00 NAtFMM=   60 NAOKFM=F Big=F
 Nuclear repulsion after empirical dispersion term =     1503.8217990352 Hartrees.
   1 Symmetry operations used in ECPInt.
 ECPInt:  NShTT=    2926 NPrTT=   14406 LenC2=    2588 LenP2D=    7951.
 LDataN:  DoStor=T MaxTD1= 4 Len=   56
 Initial guess from the checkpoint file:  "/scratch/user/peterchao1/peterchao1/6269708_1663082857000000543186962/Gau-246788.chk"
 B after Tr=     0.000000   -0.000000   -0.000000
         Rot=    0.969517   -0.245023   -0.000147    0.000274 Ang= -28.37 deg.
 ExpMin= 1.31D-01 ExpMax= 1.04D+04 ExpMxC= 1.57D+03 IAcc=3 IRadAn=         5 AccDes= 0.00D+00
 Harris functional with IExCor= 4639 and IRadAn=       5 diagonalized for initial guess.
 HarFok:  IExCor= 4639 AccDes= 0.00D+00 IRadAn=         5 IDoV= 1 UseB2=F ITyADJ=14
 ICtDFT=  3500011 ScaDFX=  1.000000  1.000000  1.000000  1.000000
 FoFCou: FMM=F IPFlag=           0 FMFlag=      100000 FMFlg1=           0
         NFxFlg=           0 DoJE=T BraDBF=F KetDBF=T FulRan=T
         wScrn=  0.000000 ICntrl=       500 IOpCl=  0 I1Cent=   200000004 NGrid=           0
         NMat0=    1 NMatS0=      1 NMatT0=    0 NMatD0=    1 NMtDS0=    0 NMtDT0=    0
 Petite list used in FoFCou.
     Accept linear search using points  3 and  4.
     Accept linear search using points  1 and  2.
     Minimum is close to point  2 DX= -8.91D-04 DF= -2.55D-11 DXR=  8.92D-04 DFR=  8.01D-07 which will be used.
 SCF Done:  E(RwB97XD) =  -3756.48731623     a.u. after    4 cycles
            Convg  =    0.1185D-08                    26 Fock formations.
              S**2 =  0.0000                  -V/T =  2.0021
 DoSCS=F DFT=T ScalE2(SS,OS)=  1.000000  1.000000
 NROrb=    172 NOA=    74 NOB=    74 NVA=    98 NVB=    98
   1 Symmetry operations used in ECPInt.
 ECPInt:  NShTT=    2926 NPrTT=   14406 LenC2=    2588 LenP2D=    7951.
 LDataN:  DoStor=T MaxTD1= 5 Len=  102
 Symmetrizing basis deriv contribution to polar:
 IMax=3 JMax=2 DiffMx= 0.00D+00
 Calling FoFCou, ICntrl=  3107 FMM=F I1Cent=   0 AccDes= 0.00D+00.
 End of G2Drv F.D. properties file   721 does not exist.
 End of G2Drv F.D. properties file   722 does not exist.
 End of G2Drv F.D. properties file   788 does not exist.
          IDoAtm=1111111111
 End of Minotr F.D. properties file   721 does not exist.
 End of Minotr F.D. properties file   722 does not exist.
 End of Minotr F.D. properties file   788 does not exist.
   1 Symmetry operations used in ECPInt.
 ECPInt:  NShTT=    2926 NPrTT=   14406 LenC2=    2588 LenP2D=    7951.
 LDataN:  DoStor=T MaxTD1= 6 Len=  172
 Calling FoFJK, ICntrl=    100127 FMM=F ISym2X=0 I1Cent= 0 IOpClX= 0 NMat=1 NMatS=1 NMatT=0.
 FormGI is forming the generalized inverse of G from B-inverse, IUseBI=4.

 GradGradGradGradGradGradGradGradGradGradGradGradGradGradGradGradGradGrad
 Using GEDIIS/GDIIS optimizer.
 Internal  Forces:  Max     0.001973536 RMS     0.000639982
 Step number   2 out of a maximum of   95
 All quantities printed in internal units (Hartrees-Bohrs-Radians)
 Mixed Optimization -- En-DIIS/RFO-DIIS
 Second derivative matrix not updated -- analytic derivatives used.
 Trust test= 9.80D-01 RLast= 3.04D-01 DXMaxT set to 5.05D-01
 ITU=  1  0
 Use linear search instead of GDIIS.
     Eigenvalues ---    0.00109   0.00212   0.00233   0.00299   0.00420
     Eigenvalues ---    0.00658   0.04948   0.05000   0.05670   0.06009
     Eigenvalues ---    0.07495   0.07872   0.08835   0.09239   0.09295
     Eigenvalues ---    0.11070   0.16339   0.17302   0.18133   0.18579
     Eigenvalues ---    0.19463   0.19594   0.27135   0.28270
 Quintic linear search produced a step of  0.52704.
 Iteration  1 RMS(Cart)=  0.01773894 RMS(Int)=  0.00018893
 Iteration  2 RMS(Cart)=  0.00015139 RMS(Int)=  0.00011293
 Iteration  3 RMS(Cart)=  0.00000002 RMS(Int)=  0.00011293
 Variable       Old X    -DE/DX   Delta X   Delta X   Delta X     New X
                                 (Linear)    (Quad)   (Total)
    R1        3.35283   0.00187   0.00525   0.00151   0.00661   3.35943
    R2        6.56764   0.00120   0.06389   0.05323   0.11723   6.68487
    R3        3.34908   0.00159   0.00448   0.00125   0.00546   3.35455
    R4        3.34918   0.00191   0.00473   0.00133   0.00601   3.35519
    R5        3.35230   0.00197   0.00495   0.00176   0.00670   3.35900
    R6        6.72792   0.00093   0.08160  -0.08545  -0.00393   6.72398
    R7        6.69019   0.00131   0.05890   0.02972   0.08879   6.77898
    R8        6.70921   0.00120   0.07446  -0.08650  -0.01196   6.69724
    R9        6.56332   0.00122   0.06838   0.02044   0.08881   6.65213
   R10        3.35197   0.00194   0.00494   0.00149   0.00644   3.35840
   R11        3.34972   0.00150   0.00466   0.00049   0.00510   3.35482
   R12        3.35261   0.00189   0.00523   0.00201   0.00720   3.35982
   R13        3.34961   0.00188   0.00513   0.00132   0.00651   3.35612
    A1        1.44062  -0.00004   0.00227  -0.00298  -0.00078   1.43984
    A2        1.91103  -0.00019  -0.00019  -0.00094  -0.00130   1.90973
    A3        1.91083   0.00017   0.00049  -0.00077  -0.00015   1.91068
    A4        1.90944  -0.00008  -0.00113   0.00056  -0.00053   1.90891
    A5        1.91338  -0.00010   0.00081   0.00120   0.00192   1.91531
    A6        1.90968   0.00014  -0.00023   0.00033   0.00016   1.90984
    A7        1.90943   0.00006   0.00026  -0.00039  -0.00011   1.90932
    A8        1.73446   0.00000   0.00190  -0.00403  -0.00216   1.73231
    A9        1.40679  -0.00002   0.00374   0.00361   0.00727   1.41406
   A10        0.84065   0.00026  -0.00793   0.00416  -0.00368   0.83697
   A11        1.74058  -0.00015   0.00419  -0.00371   0.00035   1.74092
   A12        2.24672   0.00006  -0.00208   0.00536   0.00329   2.25000
   A13        0.84983   0.00023  -0.00870   0.00505  -0.00354   0.84629
   A14        1.90973   0.00014  -0.00009   0.00045   0.00026   1.90998
   A15        1.90978  -0.00013  -0.00101  -0.00032  -0.00132   1.90846
   A16        1.90966   0.00007   0.00032  -0.00012   0.00028   1.90994
   A17        1.91100  -0.00018  -0.00025  -0.00057  -0.00072   1.91029
   A18        1.91347  -0.00013   0.00097   0.00031   0.00134   1.91481
   A19        1.91017   0.00023   0.00005   0.00026   0.00014   1.91030
   A20        0.83923   0.00029  -0.00910   0.01214   0.00319   0.84242
   A21        1.73018   0.00006  -0.00132   0.01983   0.01847   1.74865
   A22        1.40342  -0.00000   0.00193   0.01797   0.01982   1.42324
   A23        1.44386  -0.00007   0.00358  -0.01206  -0.00856   1.43531
   A24        0.85087   0.00024  -0.00726  -0.00553  -0.01258   0.83829
   A25        2.24856   0.00003   0.00079  -0.01510  -0.01436   2.23419
   A26        1.74256  -0.00015   0.00603  -0.01806  -0.01219   1.73038
    D1       -1.04309   0.00010  -0.00167  -0.00285  -0.00450  -1.04760
    D2        1.05504  -0.00004  -0.00050  -0.00243  -0.00304   1.05200
    D3       -3.13584   0.00009  -0.00058  -0.00303  -0.00359  -3.13942
    D4        0.57313   0.00005  -0.00014   0.00179   0.00174   0.57487
    D5       -0.57074   0.00007  -0.00090   0.02218   0.02121  -0.54953
    D6        1.79825   0.00016  -0.00533   0.01469   0.00938   1.80763
    D7        1.02056  -0.00012   0.00258   0.00707   0.00963   1.03019
    D8       -0.29832   0.00013  -0.00630   0.01547   0.00918  -0.28914
    D9       -1.07601  -0.00015   0.00161   0.00785   0.00943  -1.06658
   D10       -2.39234   0.00003  -0.00698   0.01501   0.00804  -2.38430
   D11        3.11316  -0.00024   0.00093   0.00739   0.00829   3.12144
   D12       -1.79720   0.00004   0.00620  -0.01458  -0.00823  -1.80543
   D13       -1.03167   0.00018  -0.00075  -0.01425  -0.01486  -1.04653
   D14        0.29949  -0.00015   0.00676  -0.01547  -0.00873   0.29076
   D15        1.06502  -0.00000  -0.00019  -0.01513  -0.01536   1.04966
   D16        2.39367  -0.00001   0.00713  -0.01456  -0.00743   2.38624
   D17       -3.12399   0.00014   0.00018  -0.01423  -0.01405  -3.13804
   D18        0.18679  -0.00005   0.00350  -0.00914  -0.00564   0.18116
   D19       -1.00385  -0.00014   0.00420  -0.02112  -0.01698  -1.02083
   D20        1.37866   0.00006   0.00277   0.00245   0.00514   1.38379
   D21        0.18801  -0.00003   0.00347  -0.00954  -0.00620   0.18181
   D22       -0.57711  -0.00011   0.00020  -0.00121  -0.00114  -0.57824
   D23        1.76118  -0.00005  -0.00054  -0.00095  -0.00141   1.75977
   D24       -2.52670   0.00001  -0.00293   0.01055   0.00752  -2.51918
   D25       -0.18841   0.00006  -0.00367   0.01081   0.00724  -0.18117
   D26       -0.18698   0.00007  -0.00357   0.00915   0.00560  -0.18138
   D27        1.76065  -0.00000  -0.00257   0.01277   0.01020   1.77086
   D28       -2.52530  -0.00004  -0.00145   0.00046  -0.00105  -2.52635
   D29       -0.57767  -0.00011  -0.00045   0.00409   0.00355  -0.57411
   D30       -0.56812   0.00011   0.00094   0.00615   0.00719  -0.56092
   D31        0.57322   0.00005   0.00025  -0.00139  -0.00117   0.57204
   D32       -2.39416   0.00002  -0.00676   0.01274   0.00621  -2.38795
   D33        3.11251  -0.00028   0.00186   0.00031   0.00210   3.11461
   D34        1.79601   0.00020  -0.00532   0.01321   0.00810   1.80411
   D35        1.01950  -0.00010   0.00330   0.00078   0.00399   1.02349
   D36       -0.29978   0.00011  -0.00583   0.01306   0.00754  -0.29224
   D37       -1.07629  -0.00018   0.00279   0.00063   0.00343  -1.07286
   D38       -3.13928   0.00011  -0.00357   0.01893   0.01538  -3.12390
   D39       -1.04629   0.00010  -0.00445   0.01893   0.01446  -1.03183
   D40        1.05151  -0.00003  -0.00338   0.01911   0.01575   1.06727
   D41       -3.11874   0.00017   0.00314  -0.03648  -0.03305   3.13139
   D42        2.39659  -0.00000   0.00794  -0.01982  -0.01198   2.38461
   D43        1.07002   0.00003   0.00246  -0.03714  -0.03437   1.03565
   D44        0.30217  -0.00014   0.00726  -0.02048  -0.01329   0.28887
   D45       -1.02628   0.00019   0.00214  -0.03679  -0.03441  -1.06069
   D46       -1.79413   0.00002   0.00693  -0.02013  -0.01333  -1.80746
         Item               Value     Threshold  Converged?
 Maximum Force            0.001974     0.000015     NO 
 RMS     Force            0.000640     0.000010     NO 
 Maximum Displacement     0.065758     0.000060     NO 
 RMS     Displacement     0.017724     0.000040     NO 
 GradGradGradGradGradGradGradGradGradGradGradGradGradGradGradGradGradGrad

                    Distance matrix (angstroms):
                    1          2          3          4          5
     1  Cl   0.000000
     2  C    1.777735   0.000000
     3  Cl   2.899997   1.775150   0.000000
     4  Cl   2.901244   1.775491   2.903868   0.000000
     5  Cl   2.901073   1.777508   2.899921   2.899665   0.000000
     6  Cl   6.370378   6.186589   5.710470   5.499933   7.899605
     7  C    4.837912   4.495469   4.248225   3.723143   6.183705
     8  Cl   5.151833   4.224124   3.558179   3.544029   5.686330
     9  Cl   5.165862   4.836949   5.174055   3.520156   6.359771
    10  Cl   3.537483   3.745896   3.587281   3.594426   5.523141
                    6          7          8          9         10
     6  Cl   0.000000
     7  C    1.777190   0.000000
     8  Cl   2.899926   1.775295   0.000000
     9  Cl   2.900517   1.777938   2.900847   0.000000
    10  Cl   2.900444   1.775981   2.903882   2.901425   0.000000
 Framework group  C1[X(C2Cl8)]
 Deg. of freedom    24
                         Standard orientation:                         
 ---------------------------------------------------------------------
 Center     Atomic      Atomic             Coordinates (Angstroms)
 Number     Number       Type             X           Y           Z
 ---------------------------------------------------------------------
      1         17           0       -2.251952   -1.214314   -1.296517
      2          6           0       -2.247610    0.000705    0.001194
      3         17           0       -1.657003   -0.740817    1.502022
      4         17           0       -1.190529    1.351805   -0.456494
      5         17           0       -3.901239    0.603166    0.250364
      6         17           0        3.905561   -0.603726    0.218059
      7          6           0        2.247858   -0.000831    0.001389
      8         17           0        1.634306    0.610299    1.551145
      9         17           0        2.251227    1.314930   -1.194363
     10         17           0        1.209542   -1.321299   -0.575128
 ---------------------------------------------------------------------
 Rotational constants (GHZ):           0.8579378           0.2377179           0.2376890
   172 basis functions,   346 primitive gaussians,   182 cartesian basis functions
    74 alpha electrons       74 beta electrons
       nuclear repulsion energy      1497.4693764742 Hartrees.
 NAtoms=   10 NActive=   10 NUniq=   10 SFac= 1.00D+00 NAtFMM=   60 NAOKFM=F Big=F
 Nuclear repulsion after empirical dispersion term =     1497.4643510520 Hartrees.
   1 Symmetry operations used in ECPInt.
 ECPInt:  NShTT=    2926 NPrTT=   14406 LenC2=    2586 LenP2D=    7942.
 LDataN:  DoStor=T MaxTD1= 4 Len=   56
 Initial guess from the checkpoint file:  "/scratch/user/peterchao1/peterchao1/6269708_1663082857000000543186962/Gau-246788.chk"
 B after Tr=    -0.000000   -0.000000   -0.000000
         Rot=    0.826155   -0.563442    0.000803   -0.000535 Ang= -68.59 deg.
 ExpMin= 1.31D-01 ExpMax= 1.04D+04 ExpMxC= 1.57D+03 IAcc=3 IRadAn=         5 AccDes= 0.00D+00
 Harris functional with IExCor= 4639 and IRadAn=       5 diagonalized for initial guess.
 HarFok:  IExCor= 4639 AccDes= 0.00D+00 IRadAn=         5 IDoV= 1 UseB2=F ITyADJ=14
 ICtDFT=  3500011 ScaDFX=  1.000000  1.000000  1.000000  1.000000
 FoFCou: FMM=F IPFlag=           0 FMFlag=      100000 FMFlg1=           0
         NFxFlg=           0 DoJE=T BraDBF=F KetDBF=T FulRan=T
         wScrn=  0.000000 ICntrl=       500 IOpCl=  0 I1Cent=   200000004 NGrid=           0
         NMat0=    1 NMatS0=      1 NMatT0=    0 NMatD0=    1 NMtDS0=    0 NMtDT0=    0
 Petite list used in FoFCou.
     Accept linear search using points  3 and  4.
     Accept linear search using points  1 and  2.
     Minimum is close to point  2 DX= -1.01D-03 DF= -1.00D-10 DXR=  1.01D-03 DFR=  1.01D-06 which will be used.
 SCF Done:  E(RwB97XD) =  -3756.48762696     a.u. after    4 cycles
            Convg  =    0.3159D-08                    26 Fock formations.
              S**2 =  0.0000                  -V/T =  2.0021
 DoSCS=F DFT=T ScalE2(SS,OS)=  1.000000  1.000000
 NROrb=    172 NOA=    74 NOB=    74 NVA=    98 NVB=    98
   1 Symmetry operations used in ECPInt.
 ECPInt:  NShTT=    2926 NPrTT=   14406 LenC2=    2586 LenP2D=    7942.
 LDataN:  DoStor=T MaxTD1= 5 Len=  102
 Symmetrizing basis deriv contribution to polar:
 IMax=3 JMax=2 DiffMx= 0.00D+00
 Calling FoFCou, ICntrl=  3107 FMM=F I1Cent=   0 AccDes= 0.00D+00.
 End of G2Drv F.D. properties file   721 does not exist.
 End of G2Drv F.D. properties file   722 does not exist.
 End of G2Drv F.D. properties file   788 does not exist.
          IDoAtm=1111111111
 End of Minotr F.D. properties file   721 does not exist.
 End of Minotr F.D. properties file   722 does not exist.
 End of Minotr F.D. properties file   788 does not exist.
   1 Symmetry operations used in ECPInt.
 ECPInt:  NShTT=    2926 NPrTT=   14406 LenC2=    2586 LenP2D=    7942.
 LDataN:  DoStor=T MaxTD1= 6 Len=  172
 Calling FoFJK, ICntrl=    100127 FMM=F ISym2X=0 I1Cent= 0 IOpClX= 0 NMat=1 NMatS=1 NMatT=0.
 FormGI is forming the generalized inverse of G from B-inverse, IUseBI=4.

 GradGradGradGradGradGradGradGradGradGradGradGradGradGradGradGradGradGrad
 Using GEDIIS/GDIIS optimizer.
 Internal  Forces:  Max     0.000873882 RMS     0.000197860
 Step number   3 out of a maximum of   95
 All quantities printed in internal units (Hartrees-Bohrs-Radians)
 Mixed Optimization -- En-DIIS/RFO-DIIS
 Swapping is turned off.
 Second derivative matrix not updated -- analytic derivatives used.
 Trust test= 1.03D+00 RLast= 1.97D-01 DXMaxT set to 5.91D-01
 ITU=  1  1  0
     Eigenvalues ---    0.00103   0.00161   0.00197   0.00240   0.00324
     Eigenvalues ---    0.00436   0.04892   0.04937   0.05635   0.05917
     Eigenvalues ---    0.07416   0.07784   0.08676   0.09115   0.09197
     Eigenvalues ---    0.10974   0.16079   0.17073   0.17808   0.18214
     Eigenvalues ---    0.19133   0.19307   0.26728   0.27804
 En-DIIS/RFO-DIIS/Sim-DIIS IScMMF=       -3 using points:     3    2
 RFO step:  Lambda=-8.29074948D-04.
 DidBck=F Rises=F RFO-DIIS coefs:    2.17751   -1.17751
 Iteration  1 RMS(Cart)=  0.03658876 RMS(Int)=  0.00653111
 Iteration  2 RMS(Cart)=  0.00427441 RMS(Int)=  0.00033211
 Iteration  3 RMS(Cart)=  0.00001003 RMS(Int)=  0.00033192
 Iteration  4 RMS(Cart)=  0.00000000 RMS(Int)=  0.00033192
 Variable       Old X    -DE/DX   Delta X   Delta X   Delta X     New X
                                 (Linear)    (Quad)   (Total)
    R1        3.35943   0.00005   0.00778  -0.00814  -0.00058   3.35885
    R2        6.68487   0.00077   0.13804   0.00920   0.14758   6.83245
    R3        3.35455   0.00014   0.00643  -0.00566   0.00019   3.35474
    R4        3.35519   0.00006   0.00707  -0.00752  -0.00077   3.35442
    R5        3.35900   0.00004   0.00789  -0.00793  -0.00004   3.35897
    R6        6.72398   0.00086  -0.00463   0.23685   0.23246   6.95644
    R7        6.77898   0.00065   0.10455   0.03486   0.13942   6.91840
    R8        6.69724   0.00087  -0.01408   0.27136   0.25735   6.95460
    R9        6.65213   0.00080   0.10457   0.07994   0.18464   6.83677
   R10        3.35840   0.00007   0.00758  -0.00753   0.00004   3.35845
   R11        3.35482   0.00008   0.00600  -0.00480   0.00096   3.35579
   R12        3.35982   0.00005   0.00848  -0.00894  -0.00070   3.35911
   R13        3.35612  -0.00003   0.00766  -0.00933  -0.00168   3.35444
    A1        1.43984   0.00002  -0.00092   0.00237   0.00133   1.44117
    A2        1.90973   0.00001  -0.00153   0.00236   0.00064   1.91037
    A3        1.91068  -0.00001  -0.00017   0.00130   0.00135   1.91203
    A4        1.90891  -0.00003  -0.00062  -0.00057  -0.00105   1.90786
    A5        1.91531  -0.00001   0.00226  -0.00352  -0.00160   1.91371
    A6        1.90984  -0.00000   0.00019  -0.00021   0.00015   1.90999
    A7        1.90932   0.00005  -0.00013   0.00064   0.00050   1.90982
    A8        1.73231   0.00004  -0.00254   0.02053   0.01756   1.74987
    A9        1.41406   0.00004   0.00856  -0.00512   0.00345   1.41752
   A10        0.83697  -0.00009  -0.00433  -0.02030  -0.02414   0.81283
   A11        1.74092   0.00005   0.00041   0.00968   0.00961   1.75054
   A12        2.25000  -0.00001   0.00387   0.00177   0.00544   2.25544
   A13        0.84629  -0.00009  -0.00417  -0.02541  -0.02882   0.81747
   A14        1.90998   0.00000   0.00030  -0.00063  -0.00036   1.90963
   A15        1.90846   0.00001  -0.00155   0.00161   0.00017   1.90863
   A16        1.90994   0.00001   0.00034   0.00016   0.00058   1.91052
   A17        1.91029  -0.00000  -0.00084   0.00109   0.00022   1.91051
   A18        1.91481  -0.00001   0.00158  -0.00257  -0.00095   1.91386
   A19        1.91030  -0.00001   0.00016   0.00035   0.00035   1.91065
   A20        0.84242  -0.00009   0.00376  -0.03678  -0.03199   0.81043
   A21        1.74865  -0.00000   0.02175  -0.02773  -0.00637   1.74228
   A22        1.42324   0.00002   0.02333  -0.03378  -0.01075   1.41249
   A23        1.43531   0.00005  -0.01008   0.02023   0.00985   1.44515
   A24        0.83829  -0.00007  -0.01481  -0.00406  -0.01840   0.81989
   A25        2.23419   0.00005  -0.01691   0.04429   0.02718   2.26137
   A26        1.73038   0.00009  -0.01435   0.03928   0.02468   1.75506
    D1       -1.04760  -0.00000  -0.00530  -0.00746  -0.01240  -1.06000
    D2        1.05200  -0.00002  -0.00358  -0.00952  -0.01313   1.03887
    D3       -3.13942   0.00002  -0.00422  -0.00830  -0.01233   3.13143
    D4        0.57487   0.00000   0.00205   0.00019   0.00220   0.57707
    D5       -0.54953  -0.00002   0.02498  -0.00720   0.01817  -0.53136
    D6        1.80763  -0.00007   0.01104  -0.02932  -0.01830   1.78933
    D7        1.03019   0.00003   0.01134   0.00277   0.01381   1.04400
    D8       -0.28914  -0.00006   0.01081  -0.03021  -0.01937  -0.30851
    D9       -1.06658   0.00004   0.01110   0.00187   0.01274  -1.05383
   D10       -2.38430  -0.00011   0.00946  -0.02870  -0.01910  -2.40340
   D11        3.12144  -0.00001   0.00976   0.00338   0.01301   3.13446
   D12       -1.80543   0.00006  -0.00969   0.02677   0.01724  -1.78820
   D13       -1.04653  -0.00001  -0.01750  -0.00075  -0.01772  -1.06425
   D14        0.29076   0.00006  -0.01028   0.02830   0.01787   0.30863
   D15        1.04966  -0.00002  -0.01809   0.00079  -0.01708   1.03258
   D16        2.38624   0.00008  -0.00875   0.02628   0.01739   2.40363
   D17       -3.13804  -0.00000  -0.01655  -0.00124  -0.01757   3.12758
   D18        0.18116   0.00003  -0.00664   0.01701   0.01037   0.19152
   D19       -1.02083   0.00005  -0.01999   0.05710   0.03734  -0.98348
   D20        1.38379   0.00000   0.00605  -0.02213  -0.01667   1.36712
   D21        0.18181   0.00002  -0.00730   0.01796   0.01030   0.19211
   D22       -0.57824   0.00002  -0.00134  -0.00045  -0.00182  -0.58007
   D23        1.75977   0.00003  -0.00167   0.02522   0.02381   1.78358
   D24       -2.51918  -0.00004   0.00885  -0.04589  -0.03711  -2.55629
   D25       -0.18117  -0.00003   0.00853  -0.02022  -0.01147  -0.19264
   D26       -0.18138  -0.00004   0.00659  -0.01683  -0.01018  -0.19156
   D27        1.77086  -0.00001   0.01202  -0.00314   0.00938   1.78023
   D28       -2.52635  -0.00002  -0.00124  -0.02496  -0.02662  -2.55297
   D29       -0.57411   0.00000   0.00418  -0.01127  -0.00706  -0.58117
   D30       -0.56092   0.00002   0.00847   0.02449   0.03349  -0.52743
   D31        0.57204   0.00000  -0.00138   0.00700   0.00543   0.57747
   D32       -2.38795  -0.00005   0.00731  -0.02422  -0.01622  -2.40417
   D33        3.11461   0.00004   0.00247   0.01865   0.02068   3.13529
   D34        1.80411  -0.00006   0.00953  -0.02647  -0.01634   1.78777
   D35        1.02349   0.00003   0.00470   0.01640   0.02056   1.04404
   D36       -0.29224  -0.00004   0.00888  -0.02599  -0.01632  -0.30856
   D37       -1.07286   0.00005   0.00404   0.01687   0.02058  -1.05228
   D38       -3.12390  -0.00005   0.01812  -0.05223  -0.03391   3.12538
   D39       -1.03183  -0.00004   0.01703  -0.05136  -0.03411  -1.06594
   D40        1.06727  -0.00006   0.01855  -0.05363  -0.03493   1.03234
   D41        3.13139   0.00003  -0.03892   0.04146   0.00299   3.13438
   D42        2.38461   0.00006  -0.01410   0.03572   0.02151   2.40612
   D43        1.03565   0.00002  -0.04047   0.04372   0.00366   1.03931
   D44        0.28887   0.00005  -0.01565   0.03798   0.02217   0.31105
   D45       -1.06069   0.00004  -0.04051   0.04374   0.00376  -1.05692
   D46       -1.80746   0.00007  -0.01570   0.03800   0.02227  -1.78519
         Item               Value     Threshold  Converged?
 Maximum Force            0.000874     0.000015     NO 
 RMS     Force            0.000198     0.000010     NO 
 Maximum Displacement     0.161810     0.000060     NO 
 RMS     Displacement     0.039397     0.000040     NO 
 GradGradGradGradGradGradGradGradGradGradGradGradGradGradGradGradGradGrad

                    Distance matrix (angstroms):
                    1          2          3          4          5
     1  Cl   0.000000
     2  C    1.777429   0.000000
     3  Cl   2.900483   1.775251   0.000000
     4  Cl   2.902048   1.775085   2.901987   0.000000
     5  Cl   2.899730   1.777488   2.900141   2.899834   0.000000
     6  Cl   6.459781   6.294144   5.825369   5.602743   8.010253
     7  C    4.939599   4.606450   4.351518   3.825818   6.294896
     8  Cl   5.263134   4.362414   3.681189   3.680214   5.835065
     9  Cl   5.272602   4.935828   5.249821   3.617861   6.459137
    10  Cl   3.615578   3.817098   3.661060   3.632366   5.594424
                    6          7          8          9         10
     6  Cl   0.000000
     7  C    1.777214   0.000000
     8  Cl   2.899994   1.775805   0.000000
     9  Cl   2.900403   1.777565   2.901187   0.000000
    10  Cl   2.900331   1.775094   2.902602   2.900754   0.000000
 Framework group  C1[X(C2Cl8)]
 Deg. of freedom    24
                         Standard orientation:                         
 ---------------------------------------------------------------------
 Center     Atomic      Atomic             Coordinates (Angstroms)
 Number     Number       Type             X           Y           Z
 ---------------------------------------------------------------------
      1         17           0       -2.305832   -1.511142   -0.933537
      2          6           0       -2.302976    0.000997    0.000637
      3         17           0       -1.713220   -0.320277    1.643952
      4         17           0       -1.245963    1.186714   -0.791653
      5         17           0       -3.957666    0.645144    0.081504
      6         17           0        3.957258   -0.561347    0.331517
      7          6           0        2.303473   -0.000874    0.000827
      8         17           0        1.723949    0.969070    1.370807
      9         17           0        2.302123    0.994265   -1.472074
     10         17           0        1.239176   -1.402470   -0.231033
 ---------------------------------------------------------------------
 Rotational constants (GHZ):           0.8583560           0.2294286           0.2294158
   172 basis functions,   346 primitive gaussians,   182 cartesian basis functions
    74 alpha electrons       74 beta electrons
       nuclear repulsion energy      1484.1858628755 Hartrees.
 NAtoms=   10 NActive=   10 NUniq=   10 SFac= 1.00D+00 NAtFMM=   60 NAOKFM=F Big=F
 Nuclear repulsion after empirical dispersion term =     1484.1809108928 Hartrees.
   1 Symmetry operations used in ECPInt.
 ECPInt:  NShTT=    2926 NPrTT=   14406 LenC2=    2570 LenP2D=    7898.
 LDataN:  DoStor=T MaxTD1= 4 Len=   56
 Initial guess from the checkpoint file:  "/scratch/user/peterchao1/peterchao1/6269708_1663082857000000543186962/Gau-246788.chk"
 B after Tr=    -0.000000   -0.000000    0.000000
         Rot=    0.992078    0.125618   -0.001011    0.000922 Ang=  14.43 deg.
 ExpMin= 1.31D-01 ExpMax= 1.04D+04 ExpMxC= 1.57D+03 IAcc=3 IRadAn=         5 AccDes= 0.00D+00
 Harris functional with IExCor= 4639 and IRadAn=       5 diagonalized for initial guess.
 HarFok:  IExCor= 4639 AccDes= 0.00D+00 IRadAn=         5 IDoV= 1 UseB2=F ITyADJ=14
 ICtDFT=  3500011 ScaDFX=  1.000000  1.000000  1.000000  1.000000
 FoFCou: FMM=F IPFlag=           0 FMFlag=      100000 FMFlg1=           0
         NFxFlg=           0 DoJE=T BraDBF=F KetDBF=T FulRan=T
         wScrn=  0.000000 ICntrl=       500 IOpCl=  0 I1Cent=   200000004 NGrid=           0
         NMat0=    1 NMatS0=      1 NMatT0=    0 NMatD0=    1 NMtDS0=    0 NMtDT0=    0
 Petite list used in FoFCou.
     Accept linear search using points  3 and  4.
     Minimum is close to point  3 DX=  2.38D-02 DF= -4.13D-08 DXR=  2.12D-02 DFR=  4.48D-04 which will be used.
     Accept linear search using points  1 and  2.
     Minimum is close to point  2 DX= -2.00D-04 DF= -1.82D-12 DXR=  2.00D-04 DFR=  4.13D-08 which will be used.
 SCF Done:  E(RwB97XD) =  -3756.48813664     a.u. after    5 cycles
            Convg  =    0.8187D-09                    28 Fock formations.
              S**2 =  0.0000                  -V/T =  2.0021
 DoSCS=F DFT=T ScalE2(SS,OS)=  1.000000  1.000000
 NROrb=    172 NOA=    74 NOB=    74 NVA=    98 NVB=    98
   1 Symmetry operations used in ECPInt.
 ECPInt:  NShTT=    2926 NPrTT=   14406 LenC2=    2570 LenP2D=    7898.
 LDataN:  DoStor=T MaxTD1= 5 Len=  102
 Symmetrizing basis deriv contribution to polar:
 IMax=3 JMax=2 DiffMx= 0.00D+00
 Calling FoFCou, ICntrl=  3107 FMM=F I1Cent=   0 AccDes= 0.00D+00.
 End of G2Drv F.D. properties file   721 does not exist.
 End of G2Drv F.D. properties file   722 does not exist.
 End of G2Drv F.D. properties file   788 does not exist.
          IDoAtm=1111111111
 End of Minotr F.D. properties file   721 does not exist.
 End of Minotr F.D. properties file   722 does not exist.
 End of Minotr F.D. properties file   788 does not exist.
   1 Symmetry operations used in ECPInt.
 ECPInt:  NShTT=    2926 NPrTT=   14406 LenC2=    2570 LenP2D=    7898.
 LDataN:  DoStor=T MaxTD1= 6 Len=  172
 Calling FoFJK, ICntrl=    100127 FMM=F ISym2X=0 I1Cent= 0 IOpClX= 0 NMat=1 NMatS=1 NMatT=0.
 FormGI is forming the generalized inverse of G from B-inverse, IUseBI=4.

 GradGradGradGradGradGradGradGradGradGradGradGradGradGradGradGradGradGrad
 Using GEDIIS/GDIIS optimizer.
 Internal  Forces:  Max     0.000378291 RMS     0.000086748
 Step number   4 out of a maximum of   95
 All quantities printed in internal units (Hartrees-Bohrs-Radians)
 Mixed Optimization -- En-DIIS/RFO-DIIS
 Swapping is turned off.
 Second derivative matrix not updated -- analytic derivatives used.
 Trust test= 1.02D+00 RLast= 4.67D-01 DXMaxT set to 9.94D-01
 ITU=  1  1  1  0
     Eigenvalues ---    0.00061   0.00098   0.00110   0.00146   0.00178
     Eigenvalues ---    0.00278   0.04813   0.04820   0.05606   0.05911
     Eigenvalues ---    0.07468   0.07801   0.08773   0.09132   0.09269
     Eigenvalues ---    0.10942   0.16241   0.17164   0.17864   0.18303
     Eigenvalues ---    0.19119   0.19347   0.26809   0.27909
 En-DIIS/RFO-DIIS/Sim-DIIS IScMMF=       -3 using points:     4    3    2
 RFO step:  Lambda=-2.17158982D-04.
 DidBck=F Rises=F RFO-DIIS coefs:    1.45277   -0.34566   -0.10710
 Iteration  1 RMS(Cart)=  0.02445616 RMS(Int)=  0.00030016
 Iteration  2 RMS(Cart)=  0.00018683 RMS(Int)=  0.00022016
 Iteration  3 RMS(Cart)=  0.00000003 RMS(Int)=  0.00022016
 Variable       Old X    -DE/DX   Delta X   Delta X   Delta X     New X
                                 (Linear)    (Quad)   (Total)
    R1        3.35885   0.00018   0.00045  -0.00005   0.00036   3.35921
    R2        6.83245   0.00022   0.07937  -0.01305   0.06638   6.89884
    R3        3.35474   0.00015   0.00067   0.00016   0.00049   3.35523
    R4        3.35442   0.00017   0.00030   0.00047   0.00056   3.35498
    R5        3.35897   0.00003   0.00070  -0.00115  -0.00045   3.35852
    R6        6.95644   0.00033   0.10483   0.05680   0.16179   7.11823
    R7        6.91840   0.00038   0.07263   0.06629   0.13905   7.05745
    R8        6.95460   0.00030   0.11524  -0.01046   0.10497   7.05956
    R9        6.83677   0.00024   0.09311  -0.04312   0.05003   6.88680
   R10        3.35845   0.00004   0.00071  -0.00047   0.00024   3.35869
   R11        3.35579  -0.00000   0.00098  -0.00122  -0.00058   3.35520
   R12        3.35911   0.00014   0.00045  -0.00016   0.00020   3.35931
   R13        3.35444   0.00016  -0.00006   0.00057   0.00034   3.35478
    A1        1.44117   0.00005   0.00052   0.01843   0.01887   1.46003
    A2        1.91037  -0.00001   0.00015   0.00025   0.00053   1.91090
    A3        1.91203  -0.00004   0.00060  -0.00138  -0.00068   1.91136
    A4        1.90786   0.00006  -0.00053   0.00126   0.00071   1.90857
    A5        1.91371   0.00003  -0.00052   0.00003  -0.00094   1.91277
    A6        1.90999  -0.00002   0.00009  -0.00022  -0.00003   1.90996
    A7        1.90982  -0.00002   0.00022   0.00007   0.00043   1.91025
    A8        1.74987  -0.00003   0.00772  -0.01356  -0.00613   1.74374
    A9        1.41752   0.00001   0.00234  -0.00389  -0.00169   1.41582
   A10        0.81283  -0.00002  -0.01132  -0.00777  -0.01857   0.79426
   A11        1.75054  -0.00002   0.00439   0.00850   0.01256   1.76309
   A12        2.25544  -0.00002   0.00281  -0.00472  -0.00207   2.25338
   A13        0.81747  -0.00002  -0.01343   0.00322  -0.00973   0.80775
   A14        1.90963   0.00001  -0.00013   0.00016   0.00018   1.90981
   A15        1.90863   0.00000  -0.00007  -0.00026  -0.00036   1.90826
   A16        1.91052  -0.00005   0.00029  -0.00064  -0.00024   1.91028
   A17        1.91051  -0.00002   0.00002   0.00040   0.00044   1.91095
   A18        1.91386   0.00002  -0.00029  -0.00020  -0.00096   1.91290
   A19        1.91065   0.00003   0.00017   0.00054   0.00095   1.91160
   A20        0.81043   0.00001  -0.01414  -0.00277  -0.01630   0.79413
   A21        1.74228   0.00002  -0.00090   0.00154   0.00034   1.74262
   A22        1.41249   0.00002  -0.00275   0.00437   0.00141   1.41390
   A23        1.44515   0.00002   0.00354   0.01351   0.01693   1.46208
   A24        0.81989  -0.00000  -0.00968  -0.00344  -0.01272   0.80717
   A25        2.26137  -0.00006   0.01077  -0.02079  -0.01010   2.25127
   A26        1.75506  -0.00003   0.00987  -0.00195   0.00765   1.76270
    D1       -1.06000   0.00002  -0.00610   0.00087  -0.00494  -1.06494
    D2        1.03887   0.00003  -0.00627   0.00021  -0.00619   1.03267
    D3        3.13143   0.00002  -0.00597   0.00023  -0.00565   3.12578
    D4        0.57707  -0.00001   0.00118  -0.00449  -0.00334   0.57372
    D5       -0.53136  -0.00004   0.01050  -0.02617  -0.01542  -0.54678
    D6        1.78933  -0.00006  -0.00728  -0.01993  -0.02698   1.76235
    D7        1.04400  -0.00005   0.00729  -0.01543  -0.00840   1.03561
    D8       -0.30851  -0.00002  -0.00779  -0.01841  -0.02590  -0.33441
    D9       -1.05383  -0.00002   0.00678  -0.01391  -0.00731  -1.06115
   D10       -2.40340  -0.00000  -0.00779  -0.01837  -0.02582  -2.42922
   D11        3.13446   0.00000   0.00678  -0.01387  -0.00724   3.12722
   D12       -1.78820   0.00004   0.00692   0.02330   0.03027  -1.75792
   D13       -1.06425   0.00000  -0.00961   0.03974   0.03037  -1.03388
   D14        0.30863   0.00002   0.00716   0.02277   0.02992   0.33855
   D15        1.03258  -0.00002  -0.00938   0.03921   0.03001   1.06259
   D16        2.40363   0.00001   0.00708   0.02256   0.02956   2.43319
   D17        3.12758  -0.00004  -0.00946   0.03900   0.02965  -3.12595
   D18        0.19152   0.00001   0.00409   0.01203   0.01599   0.20751
   D19       -0.98348  -0.00001   0.01509   0.00880   0.02396  -0.95952
   D20        1.36712   0.00004  -0.00700   0.01654   0.00917   1.37629
   D21        0.19211   0.00002   0.00400   0.01331   0.01715   0.20926
   D22       -0.58007   0.00000  -0.00095   0.00259   0.00174  -0.57833
   D23        1.78358  -0.00005   0.01063  -0.02462  -0.01392   1.76966
   D24       -2.55629   0.00004  -0.01599   0.01410  -0.00178  -2.55806
   D25       -0.19264  -0.00001  -0.00442  -0.01312  -0.01744  -0.21007
   D26       -0.19156  -0.00001  -0.00401  -0.01279  -0.01671  -0.20828
   D27        1.78023  -0.00001   0.00534  -0.01369  -0.00820   1.77203
   D28       -2.55297  -0.00002  -0.01216   0.00644  -0.00571  -2.55868
   D29       -0.58117  -0.00002  -0.00282   0.00554   0.00281  -0.57837
   D30       -0.52743   0.00003   0.01593  -0.03427  -0.01815  -0.54558
   D31        0.57747  -0.00001   0.00233  -0.00635  -0.00408   0.57339
   D32       -2.40417  -0.00000  -0.00668  -0.02163  -0.02795  -2.43212
   D33        3.13529  -0.00001   0.00959  -0.01980  -0.01045   3.12484
   D34        1.78777   0.00001  -0.00653  -0.02165  -0.02788   1.75989
   D35        1.04404  -0.00001   0.00974  -0.01982  -0.01038   1.03366
   D36       -0.30856  -0.00004  -0.00658  -0.02244  -0.02872  -0.33728
   D37       -1.05228  -0.00005   0.00968  -0.02061  -0.01123  -1.06351
   D38        3.12538  -0.00001  -0.01371   0.01371   0.00008   3.12546
   D39       -1.06594  -0.00001  -0.01390   0.01400   0.00034  -1.06560
   D40        1.03234   0.00003  -0.01413   0.01433   0.00002   1.03237
   D41        3.13438   0.00004  -0.00218   0.02810   0.02592  -3.12288
   D42        2.40612   0.00003   0.00845   0.02165   0.03005   2.43616
   D43        1.03931   0.00004  -0.00202   0.02842   0.02644   1.06575
   D44        0.31105   0.00003   0.00862   0.02197   0.03056   0.34161
   D45       -1.05692   0.00003  -0.00198   0.02772   0.02591  -1.03102
   D46       -1.78519   0.00003   0.00866   0.02127   0.03003  -1.75516
         Item               Value     Threshold  Converged?
 Maximum Force            0.000378     0.000015     NO 
 RMS     Force            0.000087     0.000010     NO 
 Maximum Displacement     0.101763     0.000060     NO 
 RMS     Displacement     0.024476     0.000040     NO 
 GradGradGradGradGradGradGradGradGradGradGradGradGradGradGradGradGradGrad

                    Distance matrix (angstroms):
                    1          2          3          4          5
     1  Cl   0.000000
     2  C    1.777619   0.000000
     3  Cl   2.901389   1.775510   0.000000
     4  Cl   2.901751   1.775379   2.901475   0.000000
     5  Cl   2.900417   1.777251   2.900123   2.900317   0.000000
     6  Cl   6.490227   6.359044   5.923427   5.654312   8.080180
     7  C    4.963311   4.664325   4.430375   3.877555   6.357822
     8  Cl   5.295753   4.432039   3.766805   3.735761   5.922928
     9  Cl   5.267533   4.959413   5.291169   3.644336   6.484841
    10  Cl   3.650707   3.879812   3.734639   3.689277   5.656570
                    6          7          8          9         10
     6  Cl   0.000000
     7  C    1.777342   0.000000
     8  Cl   2.900032   1.775498   0.000000
     9  Cl   2.900221   1.777671   2.901471   0.000000
    10  Cl   2.900333   1.775276   2.901521   2.901961   0.000000
 Framework group  C1[X(C2Cl8)]
 Deg. of freedom    24
                         Standard orientation:                         
 ---------------------------------------------------------------------
 Center     Atomic      Atomic             Coordinates (Angstroms)
 Number     Number       Type             X           Y           Z
 ---------------------------------------------------------------------
      1         17           0       -2.302523   -1.224322   -1.287127
      2          6           0       -2.332273    0.000690    0.000657
      3         17           0       -1.766470   -0.723244    1.519940
      4         17           0       -1.273548    1.354619   -0.444257
      5         17           0       -3.994415    0.593631    0.211194
      6         17           0        3.995826   -0.607176    0.152659
      7          6           0        2.332051   -0.000815    0.000585
      8         17           0        1.767834    0.578192    1.581345
      9         17           0        2.298134    1.338235   -1.168137
     10         17           0        1.275241   -1.309889   -0.566054
 ---------------------------------------------------------------------
 Rotational constants (GHZ):           0.8583690           0.2252902           0.2252857
   172 basis functions,   346 primitive gaussians,   182 cartesian basis functions
    74 alpha electrons       74 beta electrons
       nuclear repulsion energy      1477.1176885129 Hartrees.
 NAtoms=   10 NActive=   10 NUniq=   10 SFac= 1.00D+00 NAtFMM=   60 NAOKFM=F Big=F
 Nuclear repulsion after empirical dispersion term =     1477.1127818655 Hartrees.
   1 Symmetry operations used in ECPInt.
 ECPInt:  NShTT=    2926 NPrTT=   14406 LenC2=    2555 LenP2D=    7856.
 LDataN:  DoStor=T MaxTD1= 4 Len=   56
 Initial guess from the checkpoint file:  "/scratch/user/peterchao1/peterchao1/6269708_1663082857000000543186962/Gau-246788.chk"
 B after Tr=     0.000000   -0.000000   -0.000000
         Rot=    0.991702   -0.128552    0.000178   -0.001215 Ang= -14.77 deg.
 ExpMin= 1.31D-01 ExpMax= 1.04D+04 ExpMxC= 1.57D+03 IAcc=3 IRadAn=         5 AccDes= 0.00D+00
 Harris functional with IExCor= 4639 and IRadAn=       5 diagonalized for initial guess.
 HarFok:  IExCor= 4639 AccDes= 0.00D+00 IRadAn=         5 IDoV= 1 UseB2=F ITyADJ=14
 ICtDFT=  3500011 ScaDFX=  1.000000  1.000000  1.000000  1.000000
 FoFCou: FMM=F IPFlag=           0 FMFlag=      100000 FMFlg1=           0
         NFxFlg=           0 DoJE=T BraDBF=F KetDBF=T FulRan=T
         wScrn=  0.000000 ICntrl=       500 IOpCl=  0 I1Cent=   200000004 NGrid=           0
         NMat0=    1 NMatS0=      1 NMatT0=    0 NMatD0=    1 NMtDS0=    0 NMtDT0=    0
 Petite list used in FoFCou.
     Accept linear search using points  3 and  4.
     Minimum is close to point  3 DX=  2.57D-02 DF= -4.50D-08 DXR=  2.29D-02 DFR=  5.23D-04 which will be used.
     Accept linear search using points  1 and  2.
     Minimum is close to point  2 DX= -2.70D-05 DF=  0.00D+00 DXR=  2.70D-05 DFR=  0.00D+00 which will be used.
 SCF Done:  E(RwB97XD) =  -3756.48823632     a.u. after    5 cycles
            Convg  =    0.3071D-08                    26 Fock formations.
              S**2 =  0.0000                  -V/T =  2.0021
 DoSCS=F DFT=T ScalE2(SS,OS)=  1.000000  1.000000
 NROrb=    172 NOA=    74 NOB=    74 NVA=    98 NVB=    98
   1 Symmetry operations used in ECPInt.
 ECPInt:  NShTT=    2926 NPrTT=   14406 LenC2=    2555 LenP2D=    7856.
 LDataN:  DoStor=T MaxTD1= 5 Len=  102
 Symmetrizing basis deriv contribution to polar:
 IMax=3 JMax=2 DiffMx= 0.00D+00
 Calling FoFCou, ICntrl=  3107 FMM=F I1Cent=   0 AccDes= 0.00D+00.
 End of G2Drv F.D. properties file   721 does not exist.
 End of G2Drv F.D. properties file   722 does not exist.
 End of G2Drv F.D. properties file   788 does not exist.
          IDoAtm=1111111111
 End of Minotr F.D. properties file   721 does not exist.
 End of Minotr F.D. properties file   722 does not exist.
 End of Minotr F.D. properties file   788 does not exist.
   1 Symmetry operations used in ECPInt.
 ECPInt:  NShTT=    2926 NPrTT=   14406 LenC2=    2555 LenP2D=    7856.
 LDataN:  DoStor=T MaxTD1= 6 Len=  172
 Calling FoFJK, ICntrl=    100127 FMM=F ISym2X=0 I1Cent= 0 IOpClX= 0 NMat=1 NMatS=1 NMatT=0.
 FormGI is forming the generalized inverse of G from B-inverse, IUseBI=4.

 GradGradGradGradGradGradGradGradGradGradGradGradGradGradGradGradGradGrad
 Using GEDIIS/GDIIS optimizer.
 Internal  Forces:  Max     0.000146892 RMS     0.000033151
 Step number   5 out of a maximum of   95
 All quantities printed in internal units (Hartrees-Bohrs-Radians)
 Mixed Optimization -- En-DIIS/RFO-DIIS
 Swapping is turned off.
 Second derivative matrix not updated -- analytic derivatives used.
 Trust test= 8.90D-01 RLast= 2.89D-01 DXMaxT set to 9.94D-01
 ITU=  1  1  1  1  0
     Eigenvalues ---    0.00079   0.00080   0.00105   0.00200   0.00237
     Eigenvalues ---    0.00290   0.04830   0.04878   0.05621   0.05933
     Eigenvalues ---    0.07474   0.07789   0.08787   0.09131   0.09280
     Eigenvalues ---    0.10900   0.16363   0.17227   0.17878   0.18296
     Eigenvalues ---    0.19158   0.19317   0.26871   0.27938
 En-DIIS/RFO-DIIS/Sim-DIIS IScMMF=       -3 using points:     5    4    3    2
 RFO step:  Lambda=-1.52822337D-05.
 DidBck=T Rises=F RFO-DIIS coefs:    0.73088    0.47489   -0.18191   -0.02386
 Iteration  1 RMS(Cart)=  0.00596853 RMS(Int)=  0.00010642
 Iteration  2 RMS(Cart)=  0.00002840 RMS(Int)=  0.00010324
 Iteration  3 RMS(Cart)=  0.00000000 RMS(Int)=  0.00010324
 Variable       Old X    -DE/DX   Delta X   Delta X   Delta X     New X
                                 (Linear)    (Quad)   (Total)
    R1        3.35921   0.00001  -0.00006   0.00016   0.00004   3.35926
    R2        6.89884   0.00007   0.01530   0.00482   0.02019   6.91903
    R3        3.35523   0.00007   0.00004   0.00019   0.00008   3.35531
    R4        3.35498   0.00005  -0.00016   0.00028   0.00004   3.35502
    R5        3.35852   0.00005   0.00027  -0.00005   0.00022   3.35874
    R6        7.11823   0.00006   0.00420   0.00094   0.00524   7.12347
    R7        7.05745   0.00006  -0.00661   0.01910   0.01248   7.06993
    R8        7.05956   0.00008   0.02442  -0.00147   0.02297   7.08254
    R9        6.88680   0.00006   0.02665  -0.01312   0.01359   6.90038
   R10        3.35869   0.00001   0.00010  -0.00009   0.00000   3.35869
   R11        3.35520   0.00015   0.00048   0.00009   0.00046   3.35566
   R12        3.35931   0.00002  -0.00003   0.00012   0.00001   3.35932
   R13        3.35478   0.00008  -0.00028   0.00055   0.00022   3.35500
    A1        1.46003  -0.00002  -0.00482   0.00106  -0.00379   1.45624
    A2        1.91090   0.00001  -0.00004  -0.00000  -0.00010   1.91080
    A3        1.91136   0.00001   0.00046  -0.00028   0.00027   1.91162
    A4        1.90857  -0.00007  -0.00042  -0.00007  -0.00046   1.90811
    A5        1.91277   0.00001  -0.00003   0.00051   0.00037   1.91313
    A6        1.90996   0.00003   0.00004   0.00001   0.00012   1.91008
    A7        1.91025   0.00000  -0.00001  -0.00017  -0.00021   1.91004
    A8        1.74374  -0.00000   0.00521  -0.00086   0.00421   1.74795
    A9        1.41582  -0.00002   0.00134  -0.00295  -0.00159   1.41423
   A10        0.79426   0.00003  -0.00006  -0.00095  -0.00080   0.79346
   A11        1.76309  -0.00001  -0.00139  -0.00009  -0.00160   1.76149
   A12        2.25338   0.00001   0.00175   0.00414   0.00591   2.25929
   A13        0.80775   0.00002  -0.00340   0.00089  -0.00223   0.80552
   A14        1.90981   0.00002  -0.00012   0.00006  -0.00004   1.90976
   A15        1.90826  -0.00004   0.00010  -0.00031  -0.00017   1.90809
   A16        1.91028  -0.00001   0.00019  -0.00041  -0.00020   1.91007
   A17        1.91095   0.00001  -0.00009   0.00007  -0.00004   1.91091
   A18        1.91290   0.00002   0.00009   0.00043   0.00051   1.91341
   A19        1.91160   0.00000  -0.00018   0.00015  -0.00006   1.91154
   A20        0.79413   0.00001  -0.00212   0.00024  -0.00152   0.79261
   A21        1.74262  -0.00003  -0.00096   0.00266   0.00160   1.74422
   A22        1.41390  -0.00004  -0.00212  -0.00187  -0.00407   1.40983
   A23        1.46208  -0.00002  -0.00273   0.00139  -0.00142   1.46066
   A24        0.80717   0.00001  -0.00066  -0.00147  -0.00198   0.80519
   A25        2.25127  -0.00000   0.00797  -0.00186   0.00608   2.25734
   A26        1.76270  -0.00001   0.00273  -0.00341  -0.00074   1.76197
    D1       -1.06494  -0.00002  -0.00133  -0.00417  -0.00538  -1.07033
    D2        1.03267   0.00000  -0.00111  -0.00373  -0.00483   1.02784
    D3        3.12578  -0.00003  -0.00110  -0.00415  -0.00520   3.12058
    D4        0.57372   0.00001   0.00139   0.00069   0.00204   0.57576
[...]
   D34        1.76536   0.00000   0.00000   0.00028   0.00028   1.76564
   D35        1.04555  -0.00000   0.00000   0.00024   0.00024   1.04579
   D36       -0.33213   0.00000   0.00000   0.00029   0.00029  -0.33183
   D37       -1.05194   0.00000   0.00000   0.00026   0.00026  -1.05168
   D38        3.11542  -0.00000   0.00000  -0.00006  -0.00006   3.11536
   D39       -1.07562   0.00000   0.00000  -0.00005  -0.00005  -1.07567
   D40        1.02281  -0.00000   0.00000  -0.00006  -0.00006   1.02275
   D41        3.13819   0.00000   0.00000  -0.00021  -0.00021   3.13797
   D42        2.42936  -0.00000   0.00000  -0.00027  -0.00027   2.42909
   D43        1.04329   0.00000   0.00000  -0.00022  -0.00022   1.04307
   D44        0.33446  -0.00000   0.00000  -0.00027  -0.00027   0.33419
   D45       -1.05359   0.00000   0.00000  -0.00021  -0.00021  -1.05379
   D46       -1.76241  -0.00000   0.00000  -0.00026  -0.00026  -1.76268
         Item               Value     Threshold  Converged?
 Maximum Force            0.000002     0.000015     YES
 RMS     Force            0.000000     0.000010     YES
 Maximum Displacement     0.000799     0.000060     NO 
 RMS     Displacement     0.000224     0.000040     NO 
                           ----------------------------
                           ! Non-Optimized Parameters !
                           ! (Angstroms and Degrees)  !
 --------------------------                            --------------------------
 ! Name  Definition              Value          Derivative Info.                !
 --------------------------------------------------------------------------------
 ! R1    R(1,2)                  1.7777         -DE/DX =    0.0                 !
 ! R2    R(1,10)                 3.6672         -DE/DX =    0.0                 !
 ! R3    R(2,3)                  1.7757         -DE/DX =    0.0                 !
 ! R4    R(2,4)                  1.7754         -DE/DX =    0.0                 !
 ! R5    R(2,5)                  1.7774         -DE/DX =    0.0                 !
 ! R6    R(3,8)                  3.7703         -DE/DX =    0.0                 !
 ! R7    R(3,10)                 3.7525         -DE/DX =    0.0                 !
 ! R8    R(4,8)                  3.7526         -DE/DX =    0.0                 !
 ! R9    R(4,9)                  3.6677         -DE/DX =    0.0                 !
 ! R10   R(6,7)                  1.7774         -DE/DX =    0.0                 !
 ! R11   R(7,8)                  1.7757         -DE/DX =    0.0                 !
 ! R12   R(7,9)                  1.7777         -DE/DX =    0.0                 !
 ! R13   R(7,10)                 1.7754         -DE/DX =    0.0                 !
 ! A1    A(2,1,10)              83.4269         -DE/DX =    0.0                 !
 ! A2    A(1,2,3)              109.4781         -DE/DX =    0.0                 !
 ! A3    A(1,2,4)              109.5356         -DE/DX =    0.0                 !
 ! A4    A(1,2,5)              109.3195         -DE/DX =    0.0                 !
 ! A5    A(3,2,4)              109.6241         -DE/DX =    0.0                 !
 ! A6    A(3,2,5)              109.4381         -DE/DX =    0.0                 !
 ! A7    A(4,2,5)              109.4315         -DE/DX =    0.0                 !
 ! A8    A(2,3,8)              100.2283         -DE/DX =    0.0                 !
 ! A9    A(2,3,10)              80.8535         -DE/DX =    0.0                 !
 ! A10   A(8,3,10)              45.3853         -DE/DX =    0.0                 !
 ! A11   A(2,4,8)              100.8644         -DE/DX =    0.0                 !
 ! A12   A(2,4,9)              129.6236         -DE/DX =    0.0                 !
 ! A13   A(8,4,9)               46.0178         -DE/DX =    0.0                 !
 ! A14   A(6,7,8)              109.4382         -DE/DX =    0.0                 !
 ! A15   A(6,7,9)              109.3197         -DE/DX =    0.0                 !
 ! A16   A(6,7,10)             109.4316         -DE/DX =    0.0                 !
 ! A17   A(8,7,9)              109.478          -DE/DX =    0.0                 !
 ! A18   A(8,7,10)             109.624          -DE/DX =    0.0                 !
 ! A19   A(9,7,10)             109.5354         -DE/DX =    0.0                 !
 ! A20   A(3,8,4)               45.3847         -DE/DX =    0.0                 !
 ! A21   A(3,8,7)              100.2281         -DE/DX =    0.0                 !
 ! A22   A(4,8,7)               80.8578         -DE/DX =    0.0                 !
 ! A23   A(4,9,7)               83.4202         -DE/DX =    0.0                 !
 ! A24   A(1,10,3)              46.0218         -DE/DX =    0.0                 !
 ! A25   A(1,10,7)             129.6349         -DE/DX =    0.0                 !
 ! A26   A(3,10,7)             100.8684         -DE/DX =    0.0                 !
 ! D1    D(10,1,2,3)           -61.6295         -DE/DX =    0.0                 !
 ! D2    D(10,1,2,4)            58.6017         -DE/DX =    0.0                 !
 ! D3    D(10,1,2,5)           178.4995         -DE/DX =    0.0                 !
 ! D4    D(2,1,10,3)            33.0591         -DE/DX =    0.0                 !
 ! D5    D(2,1,10,7)           -29.6162         -DE/DX =    0.0                 !
 ! D6    D(1,2,3,8)            101.1534         -DE/DX =    0.0                 !
 ! D7    D(1,2,3,10)            59.9104         -DE/DX =    0.0                 !
 ! D8    D(4,2,3,8)            -19.0237         -DE/DX =    0.0                 !
 ! D9    D(4,2,3,10)           -60.2668         -DE/DX =    0.0                 !
 ! D10   D(5,2,3,8)           -139.0483         -DE/DX =    0.0                 !
 ! D11   D(5,2,3,10)           179.7086         -DE/DX =    0.0                 !
 ! D12   D(1,2,4,8)           -100.9842         -DE/DX =    0.0                 !
 ! D13   D(1,2,4,9)            -60.3706         -DE/DX =    0.0                 !
 ! D14   D(3,2,4,8)             19.1578         -DE/DX =    0.0                 !
 ! D15   D(3,2,4,9)             59.7715         -DE/DX =    0.0                 !
 ! D16   D(5,2,4,8)            139.1865         -DE/DX =    0.0                 !
 ! D17   D(5,2,4,9)            179.8001         -DE/DX =    0.0                 !
 ! D18   D(2,3,8,4)             11.7747         -DE/DX =    0.0                 !
 ! D19   D(2,3,8,7)            -54.3444         -DE/DX =    0.0                 !
 ! D20   D(10,3,8,4)            77.8874         -DE/DX =    0.0                 !
 ! D21   D(10,3,8,7)            11.7683         -DE/DX =    0.0                 !
 ! D22   D(2,3,10,1)           -33.3328         -DE/DX =    0.0                 !
 ! D23   D(2,3,10,7)           102.5051         -DE/DX =    0.0                 !
 ! D24   D(8,3,10,1)          -147.633          -DE/DX =    0.0                 !
 ! D25   D(8,3,10,7)           -11.7951         -DE/DX =    0.0                 !
 ! D26   D(2,4,8,3)            -11.8014         -DE/DX =    0.0                 !
 ! D27   D(2,4,8,7)            102.4941         -DE/DX =    0.0                 !
 ! D28   D(9,4,8,3)           -147.6292         -DE/DX =    0.0                 !
 ! D29   D(9,4,8,7)            -33.3338         -DE/DX =    0.0                 !
 ! D30   D(2,4,9,7)            -29.6177         -DE/DX =    0.0                 !
 ! D31   D(8,4,9,7)             33.061          -DE/DX =    0.0                 !
 ! D32   D(6,7,8,3)           -139.0375         -DE/DX =    0.0                 !
 ! D33   D(6,7,8,4)            179.7181         -DE/DX =    0.0                 !
 ! D34   D(9,7,8,3)            101.1639         -DE/DX =    0.0                 !
 ! D35   D(9,7,8,4)             59.9196         -DE/DX =    0.0                 !
 ! D36   D(10,7,8,3)           -19.0127         -DE/DX =    0.0                 !
 ! D37   D(10,7,8,4)           -60.2571         -DE/DX =    0.0                 !
 ! D38   D(6,7,9,4)            178.4972         -DE/DX =    0.0                 !
 ! D39   D(8,7,9,4)            -61.6316         -DE/DX =    0.0                 !
 ! D40   D(10,7,9,4)            58.5992         -DE/DX =    0.0                 !
 ! D41   D(6,7,10,1)           179.7926         -DE/DX =    0.0                 !
 ! D42   D(6,7,10,3)           139.1765         -DE/DX =    0.0                 !
 ! D43   D(8,7,10,1)            59.7638         -DE/DX =    0.0                 !
 ! D44   D(8,7,10,3)            19.1477         -DE/DX =    0.0                 !
 ! D45   D(9,7,10,1)           -60.3779         -DE/DX =    0.0                 !
 ! D46   D(9,7,10,3)          -100.994          -DE/DX =    0.0                 !
 --------------------------------------------------------------------------------
 GradGradGradGradGradGradGradGradGradGradGradGradGradGradGradGradGradGrad


 ----------------------------------------------------------------------

 Electric dipole moment (input orientation):
 (Debye = 10**-18 statcoulomb cm , SI units = C m)
                  (au)            (Debye)         (10**-30 SI)
   Tot        0.104107D-01      0.264613D-01      0.882654D-01
   x         -0.411327D-04     -0.104549D-03     -0.348737D-03
   y         -0.103778D-01     -0.263777D-01     -0.879865D-01
   z         -0.825841D-03     -0.209908D-02     -0.700177D-02

 Dipole polarizability, Alpha (input orientation).
 (esu units = cm**3 , SI units = C**2 m**2 J**-1)
 Alpha(0;0):
               (au)            (10**-24 esu)      (10**-40 SI)
   iso        0.918287D+02      0.136076D+02      0.151405D+02
   aniso      0.155155D+02      0.229915D+01      0.255815D+01
   xx         0.102109D+03      0.151310D+02      0.168355D+02
   yx         0.794602D-01      0.117748D-01      0.131012D-01
   yy         0.868526D+02      0.128702D+02      0.143201D+02
   zx        -0.973000D+00     -0.144184D+00     -0.160426D+00
   zy         0.274915D-01      0.407382D-02      0.453273D-02
   zz         0.865246D+02      0.128216D+02      0.142660D+02

 ----------------------------------------------------------------------

 Dipole orientation:
    17          4.39045348          2.43175425         -2.31545780
     6          4.42317949         -0.01746911         -0.01651619
    17          3.36546771          1.19698049          2.92736875
    17          2.40063656         -2.50694450         -1.00058293
    17          7.55409728         -1.18694892          0.31674600
    17         -7.55174912          1.18482938          0.38044744
     6         -4.42317390          0.01747487          0.01896104
    17         -3.34193503         -1.20564112          2.95070248
    17         -4.40777600         -2.42467680         -2.28768574
    17         -2.40925772          2.51067456         -0.97333970

 Electric dipole moment (dipole orientation):
 (Debye = 10**-18 statcoulomb cm , SI units = C m)
                  (au)            (Debye)         (10**-30 SI)
   Tot        0.104107D-01      0.264613D-01      0.882654D-01
   x          0.000000D+00      0.000000D+00      0.000000D+00
   y          0.000000D+00      0.000000D+00      0.000000D+00
   z          0.104107D-01      0.264613D-01      0.882654D-01

 Dipole polarizability, Alpha (dipole orientation).
 (esu units = cm**3 , SI units = C**2 m**2 J**-1)
 Alpha(0;0):
               (au)            (10**-24 esu)      (10**-40 SI)
   iso        0.918287D+02      0.136076D+02      0.151405D+02
   aniso      0.155155D+02      0.229915D+01      0.255815D+01
   xx         0.102100D+03      0.151297D+02      0.168340D+02
   yx        -0.104287D+01     -0.154538D+00     -0.171947D+00
   yy         0.865310D+02      0.128226D+02      0.142670D+02
   zx        -0.622813D-01     -0.922914D-02     -0.102688D-01
   zy         0.291294D-02      0.431653D-03      0.480278D-03
   zz         0.868551D+02      0.128706D+02      0.143205D+02

 ----------------------------------------------------------------------
 1\1\GINC-C322\Freq\RwB97XD\def2SVPP\C2Cl8\PETERCHAO1\13-Sep-2022\0\\#T
  Geom=AllCheck Guess=TCheck SCRF=Check GenChk RwB97XD/def2SVPP Freq\\d
 imer\\0,1\Cl,2.3226247634,1.1094200944,1.3891407726\C,2.340680175,-0.0
 005674558,0.0007261757\Cl,1.7720684516,-1.6020573807,0.5155659922\Cl,1
 .2781077298,0.6275918064,-1.2754055446\Cl,3.999413067,-0.1343711265,-0
 .6236243302\Cl,-3.9996233781,-0.2333185873,0.5932445896\C,-2.340682343
 9,-0.0007224663,-0.000825753\Cl,-1.7718858824,-1.4983471428,-0.7668332
 786\Cl,-2.3221831308,1.318505489,-1.192214181\Cl,-1.2785511743,0.41352
 61472,1.3602158944\\Version=ES64L-G16RevB.01\State=1-A\HF=-3756.488242
 4\RMSD=6.101e-10\RMSF=2.560e-06\ZeroPoint=0.0201066\Thermal=0.0334846\
 Dipole=-0.0000411,-0.0103778,-0.0008258\DipoleDeriv=-0.182528,0.002349
 4,0.0078429,0.0038546,-0.3562149,-0.2720541,0.0143261,-0.2775481,-0.47
 78713,1.4938058,0.0002113,-0.0174538,-0.002728,1.2873523,0.0042608,-0.
 0081206,0.0161842,1.2772609,-0.229335,-0.158965,0.0535556,-0.1863405,-
 0.5882094,0.1462425,0.0654839,0.1417369,-0.1819412,-0.3668497,0.118812
 6,-0.2392294,0.1326601,-0.2049141,0.1382891,-0.2780893,0.1348363,-0.41
 26303,-0.7150166,0.0392074,0.1954067,0.0459104,-0.1378404,-0.0164661,0
 .2058301,-0.0176487,-0.2049918,-0.7151286,-0.0701786,0.186376,-0.07847
 13,-0.1450007,0.0262191,0.1955917,0.027404,-0.1976938,1.493756,0.00264
 09,-0.0172202,0.0041339,1.2903324,-0.0020864,-0.0075999,-0.0140105,1.2
 742617,-0.2294066,0.1482957,0.0784873,0.173349,-0.5318693,-0.2033362,0
 .0946789,-0.1988235,-0.2382496,-0.182523,-0.0036931,0.0074482,-0.00628
 11,-0.4467788,0.2771227,0.0136651,0.282622,-0.3872947,-0.3667743,-0.07
 86805,-0.2552133,-0.0860872,-0.1668573,-0.0981913,-0.2957661,-0.094752
 6,-0.4508498\Polar=102.1089436,0.0794602,86.8525683,-0.9729995,0.02749
 15,86.5245991\Quadrupole=-0.103879,0.0658596,0.0380195,0.004346,-0.053
 8274,0.0022846\PG=C01 [X(C2Cl8)]\NImag=0\\0.03947896,-0.00075885,0.104
 14538,-0.00116943,0.08239039,0.14064786,-0.03268626,0.00046183,0.00067
 903,0.25724126,0.00036710,-0.06926822,-0.04563361,0.00024597,0.2568752
 7,0.00063968,-0.04569927,-0.08937058,0.00015543,-0.00084698,0.25731869
 ,0.00413080,-0.00803206,-0.00246684,-0.04240000,-0.02774307,0.00887489
 ,0.06006802,-0.00945488,-0.03780865,-0.01111355,-0.02741936,-0.1098410
 6,0.02519191,0.04804381,0.17732601,-0.00426322,-0.01788477,0.00301386,
 0.00873886,0.02517609,-0.04114237,-0.01585019,-0.04463141,0.05346585,-
 0.00022900,-0.00234906,-0.01480710,-0.06681409,0.02017306,-0.04151641,
 0.00566289,0.00476189,-0.00304212,0.10299426,-0.00513000,0.00583421,-0
 .01029303,0.01980485,-0.04443617,0.02393033,0.00984778,-0.02325271,0.0
 2635769,-0.03467573,0.06043155,-0.01825480,-0.00475420,-0.03641551,-0.
 04083730,0.02391830,-0.08193012,-0.00608568,0.02196893,-0.01300175,0.0
 7242358,-0.04361142,0.12738842,-0.00966990,0.01094717,0.01802248,-0.11
 530844,0.00673182,0.03128923,-0.02295169,-0.01723207,0.01450532,-0.038
 01475,0.01145391,-0.00782331,0.18607025,0.01542102,-0.00288050,-0.0153
 3123,0.00669717,-0.03315973,-0.00255897,-0.02372476,-0.00571178,0.0114
 8266,0.01359849,0.00265479,0.00195952,-0.01197197,0.03910926,0.0235733
 9,-0.01407005,-0.01811524,0.03125976,-0.00257892,-0.04441628,0.0156433
 6,0.00892609,-0.00173974,-0.01445536,0.00329770,0.00501597,-0.05593690
 ,0.00442917,0.05923390,-0.00037092,0.00003122,0.00009316,0.00116991,-0
 .00017564,-0.00016087,-0.00022052,-0.00007434,0.00006766,-0.00024032,0
 .00010369,-0.00020696,-0.00046300,0.00005392,0.00013939,0.18611245,-0.
 00008143,0.00011967,0.00009713,0.00012905,-0.00051156,0.00004504,-0.00
 000218,0.00025256,-0.00003811,0.00006409,0.00005373,-0.00012002,-0.000
 07581,0.00007682,-0.00000798,0.02082957,0.04103774,-0.00006837,0.00014
 709,0.00026573,-0.00021474,-0.00016833,-0.00076150,0.00002945,0.000064
 51,0.00009027,0.00004509,-0.00005202,0.00034574,0.00012883,0.00000776,
 0.00007785,-0.05323519,-0.00739270,0.05726960,0.00006125,-0.00007718,0
 .00005592,-0.00296604,0.00009765,-0.00035529,0.00073752,0.00025442,-0.
 00012485,0.00095161,-0.00039292,0.00063421,0.00116948,-0.00009249,-0.0
 0023301,-0.11533515,-0.01164866,0.02974973,0.25726573,0.00008398,-0.00
 086079,-0.00055958,-0.00004062,0.00365371,-0.00075678,-0.00031817,-0.0
 0184050,0.00038740,-0.00023952,-0.00060075,0.00080503,0.00020052,-0.00
 053792,0.00020523,-0.01168703,-0.03426710,0.00423299,-0.00027408,0.256
 60737,0.00053472,-0.00093222,-0.00177022,-0.00036709,0.00051233,0.0051
 2797,0.00038443,-0.00006598,-0.00071048,0.00009693,0.00055862,-0.00235
 906,-0.00013065,-0.00000804,-0.00073523,0.02977282,0.00421325,-0.04328
 960,0.00009826,0.00074028,0.25757879,-0.00001449,-0.00006033,-0.000132
 48,0.00073859,0.00025152,0.00043199,-0.00223928,-0.00000809,-0.0010523
 1,-0.00279576,-0.00175905,0.00036395,-0.00022081,-0.00000239,0.0000292
 3,-0.02296177,0.02089843,0.01925571,-0.04241316,0.02596031,0.01323430,
 0.06012127,0.00003424,0.00051269,0.00042873,-0.00023011,-0.00176024,-0
 .00010377,0.00017634,0.00103404,-0.00013221,-0.00131512,-0.00088130,0.
 00014793,0.00006195,0.00025262,-0.00003823,0.01467312,-0.00236429,-0.0
 0902404,0.02566226,-0.10004040,-0.03480075,-0.04487465,0.15990291,0.00
 001622,0.00033428,0.00039835,-0.00016415,-0.00055753,-0.00079142,-0.00
 103710,0.00036137,-0.00037316,0.00082761,0.00026383,0.00020323,0.00007
 889,0.00006443,0.00009032,0.01708611,-0.01157864,-0.00507666,0.0130479
 7,-0.03478481,-0.05092574,-0.02341422,0.06199278,0.07087547,0.00000333
 ,0.00000541,-0.00001025,0.00006044,-0.00016888,0.00051444,-0.00001428,
 -0.00003652,0.00001057,-0.00067679,0.00063375,-0.00091397,-0.00037105,
 0.00009139,-0.00005426,-0.00968290,-0.01902434,0.02078222,-0.03268727,
 -0.00047574,0.00058609,0.00413189,0.01001819,-0.00268306,0.03945148,-0
 .00000382,0.00014560,-0.00010817,0.00006809,-0.00112220,0.00103920,0.0
 0008069,0.00063141,-0.00029652,0.00020884,0.00016746,-0.00053055,-0.00
 004626,0.00016242,-0.00016405,-0.01371419,-0.00795095,0.01572413,-0.00
 057432,-0.08430895,0.04650516,0.00832311,-0.04135729,0.01064084,0.0009
 5721,0.13128750,-0.00001093,0.00007213,0.00036536,0.00006719,0.0006663
 8,-0.00150959,-0.00012073,-0.00039113,0.00027991,-0.00024075,-0.000256
 47,0.00087663,0.00008716,-0.00011414,0.00022304,0.01602518,0.01698402,
 -0.01303096,0.00060674,0.04643991,-0.07430262,-0.00114188,0.00387095,0
 .00656610,-0.00104797,-0.08389572,0.11346390,-0.00070377,-0.00016816,-
 0.00026448,0.00096462,0.00022047,0.00012692,-0.00277346,0.00116513,0.0
 0101028,-0.00083804,0.00011371,0.00070028,-0.00024011,-0.00007039,0.00
 003440,-0.03800780,-0.01108872,-0.01647272,-0.06678397,-0.01320965,-0.
 04420981,0.00565353,-0.00420623,-0.00375827,-0.00021484,0.00470064,-0.
 01422401,0.10294384,-0.00047736,0.00006059,0.00012291,0.00028312,-0.00
 042979,-0.00024071,0.00167162,-0.00078931,-0.00042083,-0.00022695,0.00
 002919,0.00021648,-0.00006926,0.00003401,0.00000105,-0.01004033,0.0035
 5339,-0.00353939,-0.01295465,-0.03780467,-0.01672266,-0.00872887,-0.01
 529875,-0.02673655,0.00799951,0.00234501,0.01662406,0.02254319,0.04830
 033,-0.00099726,0.00039663,0.00098038,0.00068302,-0.00048773,-0.002524
 80,0.00062840,-0.00031074,0.00011760,0.00066853,-0.00019524,-0.0001235
 5,-0.00022106,0.00006884,0.00036540,-0.00958130,-0.00220198,0.00410952
 ,-0.04347966,-0.01670967,-0.08861383,-0.00757428,-0.02234140,-0.020966
 49,-0.01718381,0.01108567,-0.03293178,0.07705742,0.03069563,0.13958755
 \\0.00000237,-0.00000040,-0.00000433,-0.00000016,-0.00000111,-0.000002
 66,0.00000225,0.00000258,-0.00000363,-0.00000388,-0.00000038,-0.000000
 63,-0.00000056,0.00000051,-0.00000624,0.00000131,-0.00000051,0.0000057
 0,-0.00000015,0.00000096,0.00000455,0.00000027,-0.00000233,0.00000126,
 -0.00000150,0.00000050,0.00000277,0.00000005,0.00000017,0.00000320\\\@


 The number of Unix installations has grown to 10,
  with more expected.
                  -- The Unix Programmer's Manual,
                     2nd Edition, June, 1972.
 File lengths (MBytes):  RWF=     58 Int=      0 D2E=      0 Chk=      3 Scr=      1
 Normal termination of Gaussian 16 at Tue Sep 13 10:48:43 2022.
real 1265.37
user 4809.75
sys 32.50
