 Entering Gaussian System, Link 0=g16
 Input=gaussian_test.inp
 Output=gaussian_test.log
 Initial command:
 /sw/restricted/lms/sw/Gaussian/g16_B01/g16/l1.exe "/scratch/user/peterchao1/peterchao1/6318284_1663960373000000632252334/Gau-215925.inp" -scrdir="/scratch/user/peterchao1/peterchao1/6318284_1663960373000000632252334/"
 Entering Link 1 = /sw/restricted/lms/sw/Gaussian/g16_B01/g16/l1.exe PID=    215927.
  
 Copyright (c) 1988-2017, Gaussian, Inc.  All Rights Reserved.
  
 This is part of the Gaussian(R) 16 program.  It is based on
 the Gaussian(R) 09 system (copyright 2009, Gaussian, Inc.),
 the Gaussian(R) 03 system (copyright 2003, Gaussian, Inc.),
 the Gaussian(R) 98 system (copyright 1998, Gaussian, Inc.),
 the Gaussian(R) 94 system (copyright 1995, Gaussian, Inc.),
 the Gaussian 92(TM) system (copyright 1992, Gaussian, Inc.),
 the Gaussian 90(TM) system (copyright 1990, Gaussian, Inc.),
 the Gaussian 88(TM) system (copyright 1988, Gaussian, Inc.),
 the Gaussian 86(TM) system (copyright 1986, Carnegie Mellon
 University), and the Gaussian 82(TM) system (copyright 1983,
 Carnegie Mellon University). Gaussian is a federally registered
 trademark of Gaussian, Inc.
  
 This software contains proprietary and confidential information,
 including trade secrets, belonging to Gaussian, Inc.
  
 This software is provided under written license and may be
 used, copied, transmitted, or stored only in accord with that
 written license.
  
 The following legend is applicable only to US Government
 contracts under FAR:
  
                    RESTRICTED RIGHTS LEGEND
  
 Use, reproduction and disclosure by the US Government is
 subject to restrictions as set forth in subparagraphs (a)
 and (c) of the Commercial Computer Software - Restricted
 Rights clause in FAR 52.227-19.
  
 Gaussian, Inc.
 340 Quinnipiac St., Bldg. 40, Wallingford CT 06492
  
  
 ---------------------------------------------------------------
 Warning -- This program may not be used in any manner that
 competes with the business of Gaussian, Inc. or will provide
 assistance to any competitor of Gaussian, Inc.  The licensee
 of this program is prohibited from giving any competitor of
 Gaussian, Inc. access to this program.  By using this program,
 the user acknowledges that Gaussian, Inc. is engaged in the
 business of creating and licensing software in the field of
 computational chemistry and represents and warrants to the
 licensee that it is not a competitor of Gaussian, Inc. and that
 it will not use this program in any manner prohibited above.
 ---------------------------------------------------------------
  

 Cite this work as:
 Gaussian 16, Revision B.01,
 M. J. Frisch, G. W. Trucks, H. B. Schlegel, G. E. Scuseria, 
 M. A. Robb, J. R. Cheeseman, G. Scalmani, V. Barone, 
 G. A. Petersson, H. Nakatsuji, X. Li, M. Caricato, A. V. Marenich, 
 J. Bloino, B. G. Janesko, R. Gomperts, B. Mennucci, H. P. Hratchian, 
 J. V. Ortiz, A. F. Izmaylov, J. L. Sonnenberg, D. Williams-Young, 
 F. Ding, F. Lipparini, F. Egidi, J. Goings, B. Peng, A. Petrone, 
 T. Henderson, D. Ranasinghe, V. G. Zakrzewski, J. Gao, N. Rega, 
 G. Zheng, W. Liang, M. Hada, M. Ehara, K. Toyota, R. Fukuda, 
 J. Hasegawa, M. Ishida, T. Nakajima, Y. Honda, O. Kitao, H. Nakai, 
 T. Vreven, K. Throssell, J. A. Montgomery, Jr., J. E. Peralta, 
 F. Ogliaro, M. J. Bearpark, J. J. Heyd, E. N. Brothers, K. N. Kudin, 
 V. N. Staroverov, T. A. Keith, R. Kobayashi, J. Normand, 
 K. Raghavachari, A. P. Rendell, J. C. Burant, S. S. Iyengar, 
 J. Tomasi, M. Cossi, J. M. Millam, M. Klene, C. Adamo, R. Cammi, 
 J. W. Ochterski, R. L. Martin, K. Morokuma, O. Farkas, 
 J. B. Foresman, and D. J. Fox, Gaussian, Inc., Wallingford CT, 2016.
 
 ******************************************
 Gaussian 16:  ES64L-G16RevB.01 20-Dec-2017
                23-Sep-2022 
 ******************************************
 %chk=31.chk
 %nprocshared=4
 Will use up to    4 processors via shared memory.
 %mem=8000mb
 --------------------------------------------------------------
 #T wB97XD//def2svpp Volume=tight Geom=AllCheckpoint Guess=Read
 --------------------------------------------------------------
 Structure from the checkpoint file:  "31.chk"
 -------
 Monomer
 -------
 Charge =  0 Multiplicity = 1
 Redundant internal coordinates found in file.  (old form).
 C,0,-0.8104925539,0.0014704689,1.4561965192
 C,0,-0.357030941,-0.0000010459,-0.0000257763
 C,0,-0.8101179136,-1.2620102738,-0.72686498
 C,0,-0.810394977,1.2603694613,-0.7295178318
 Cl,0,1.4778807589,0.000248483,0.0002049379
 H,0,-1.9148135312,0.0015665514,1.5005833033
 H,0,-0.4406106124,0.8961419301,1.9835302857
 H,0,-0.4407012964,-0.8922115834,1.9852647506
 H,0,-1.9144311573,-1.3008440597,-0.7488917458
 H,0,-0.4399116838,-2.1659492931,-0.2157865154
 H,0,-0.4404317089,-1.2732461764,-1.7653912373
 H,0,-1.9147163114,1.2987142679,-0.7520118479
 H,0,-0.4403183044,1.2697424172,-1.767926333
 H,0,-0.4407547677,2.1654338524,-0.2200415292
 Recover connectivity data from disk.
                           ----------------------------
                           !    Current Parameters    !
                           ! (Angstroms and Degrees)  !
 --------------------------                            --------------------------
 ! Name  Definition              Value                                          !
 --------------------------------------------------------------------------------
 ! R1    R(1,2)                  1.5252                                         !
 ! R2    R(1,6)                  1.1052                                         !
 ! R3    R(1,7)                  1.1024                                         !
 ! R4    R(1,8)                  1.1024                                         !
 ! R5    R(2,3)                  1.5252                                         !
 ! R6    R(2,4)                  1.5252                                         !
 ! R7    R(2,5)                  1.8349                                         !
 ! R8    R(3,9)                  1.1052                                         !
 ! R9    R(3,10)                 1.1024                                         !
 ! R10   R(3,11)                 1.1024                                         !
 ! R11   R(4,12)                 1.1052                                         !
 ! R12   R(4,13)                 1.1024                                         !
 ! R13   R(4,14)                 1.1024                                         !
 ! A1    A(2,1,6)              109.5981                                         !
 ! A2    A(2,1,7)              110.9614                                         !
 ! A3    A(2,1,8)              110.9591                                         !
 ! A4    A(6,1,7)              108.4191                                         !
 ! A5    A(6,1,8)              108.4189                                         !
 ! A6    A(7,1,8)              108.4079                                         !
 ! A7    A(1,2,3)              111.5602                                         !
 ! A8    A(1,2,4)              111.5609                                         !
 ! A9    A(1,2,5)              107.2892                                         !
 ! A10   A(3,2,4)              111.5633                                         !
 ! A11   A(3,2,5)              107.2918                                         !
 ! A12   A(4,2,5)              107.2893                                         !
 ! A13   A(2,3,9)              109.5966                                         !
 ! A14   A(2,3,10)             110.9635                                         !
 ! A15   A(2,3,11)             110.9619                                         !
 ! A16   A(9,3,10)             108.419                                          !
 ! A17   A(9,3,11)             108.4172                                         !
 ! A18   A(10,3,11)            108.4064                                         !
 ! A19   A(2,4,12)             109.5977                                         !
 ! A20   A(2,4,13)             110.9628                                         !
 ! A21   A(2,4,14)             110.9602                                         !
 ! A22   A(12,4,13)            108.4186                                         !
 ! A23   A(12,4,14)            108.4181                                         !
 ! A24   A(13,4,14)            108.4072                                         !
 ! D1    D(6,1,2,3)            -62.7716                                         !
 ! D2    D(6,1,2,4)             62.7522                                         !
 ! D3    D(6,1,2,5)            179.989                                          !
 ! D4    D(7,1,2,3)            177.5215                                         !
 ! D5    D(7,1,2,4)            -56.9547                                         !
 ! D6    D(7,1,2,5)             60.2821                                         !
 ! D7    D(8,1,2,3)             56.9336                                         !
 ! D8    D(8,1,2,4)           -177.5426                                         !
 ! D9    D(8,1,2,5)            -60.3058                                         !
 ! D10   D(1,2,3,9)             62.7436                                         !
 ! D11   D(1,2,3,10)           -56.9634                                         !
 ! D12   D(1,2,3,11)          -177.5526                                         !
 ! D13   D(4,2,3,9)            -62.7789                                         !
 ! D14   D(4,2,3,10)           177.5141                                         !
 ! D15   D(4,2,3,11)            56.9249                                         !
 ! D16   D(5,2,3,9)            179.9814                                         !
 ! D17   D(5,2,3,10)            60.2744                                         !
 ! D18   D(5,2,3,11)           -60.3148                                         !
 ! D19   D(1,2,4,12)           -62.767                                          !
 ! D20   D(1,2,4,13)           177.5263                                         !
 ! D21   D(1,2,4,14)            56.9376                                         !
 ! D22   D(3,2,4,12)            62.755                                          !
 ! D23   D(3,2,4,13)           -56.9517                                         !
 ! D24   D(3,2,4,14)          -177.5404                                         !
 ! D25   D(5,2,4,12)           179.9963                                         !
 ! D26   D(5,2,4,13)            60.2896                                         !
 ! D27   D(5,2,4,14)           -60.2991                                         !
 --------------------------------------------------------------------------------
                    Distance matrix (angstroms):
                    1          2          3          4          5
     1  C    0.000000
     2  C    1.525193   0.000000
     3  C    2.522329   1.525205   0.000000
     4  C    2.522335   1.525199   2.522381   0.000000
     5  Cl   2.712299   1.834912   2.712354   2.712306   0.000000
     6  H    1.105213   2.162988   2.788997   2.788849   3.709651
     7  H    1.102420   2.178199   3.484308   2.762251   2.901175
     8  H    1.102418   2.178169   2.762040   3.484297   2.901363
     9  H    2.788748   2.162981   1.105215   2.789101   3.709686
    10  H    2.762348   2.178246   1.102433   3.484371   2.901205
    11  H    3.484318   2.178216   1.102420   2.762085   2.901558
    12  H    2.788967   2.162991   2.788921   1.105216   3.709657
    13  H    3.484324   2.178224   2.762306   1.102423   2.901274
    14  H    2.762104   2.178193   3.484347   1.102425   2.901327
                    6          7          8          9         10
     6  H    0.000000
     7  H    1.790748   0.000000
     8  H    1.790744   1.788354   0.000000
     9  H    2.599310   3.803291   3.132806   0.000000
    10  H    3.133590   3.770066   2.543037   1.790758   0.000000
    11  H    3.803359   4.331357   3.769961   1.790728   1.788349
    12  H    2.599380   3.133408   3.803362   2.599560   3.803483
    13  H    3.803362   3.770014   4.331338   3.133585   3.770029
    14  H    3.133005   2.542996   3.769956   3.803484   4.331385
                   11         12         13         14
    11  H    0.000000
    12  H    3.132959   0.000000
    13  H    2.542990   1.790746   0.000000
    14  H    3.769964   1.790742   1.788354   0.000000
 Framework group  C1[X(C4H9Cl)]
 Deg. of freedom    36
                         Standard orientation:                         
 ---------------------------------------------------------------------
 Center     Atomic      Atomic             Coordinates (Angstroms)
 Number     Number       Type             X           Y           Z
 ---------------------------------------------------------------------
      1          6           0        0.810481    0.038510    1.455764
      2          6           0        0.357212   -0.000007   -0.000009
      3          6           0        0.810601    1.241458   -0.761229
      4          6           0        0.810467   -1.280041   -0.694491
      5         17           0       -1.477699    0.000043   -0.000022
      6          1           0        1.914797    0.039458    1.500288
      7          1           0        0.440384   -0.841258    2.007460
      8          1           0        0.440766    0.946467    1.959997
      9          1           0        1.914924    1.279494   -0.784165
     10          1           0        0.440476    2.159173   -0.275261
     11          1           0        0.441054    1.224179   -1.799721
     12          1           0        1.914785   -1.319166   -0.715771
     13          1           0        0.440525   -1.317917   -1.732300
     14          1           0        0.440611   -2.170688   -0.160361
 ---------------------------------------------------------------------
 Rotational constants (GHZ):           4.5201852           2.9963308           2.9962795
    92 basis functions,   173 primitive gaussians,    97 cartesian basis functions
    25 alpha electrons       25 beta electrons
       nuclear repulsion energy       240.3215007063 Hartrees.
 NAtoms=   14 NActive=   14 NUniq=   14 SFac= 1.00D+00 NAtFMM=   60 NAOKFM=F Big=F
 Nuclear repulsion after empirical dispersion term =      240.3142058250 Hartrees.
   1 Symmetry operations used in ECPInt.
 ECPInt:  NShTT=    1275 NPrTT=    5355 LenC2=    1273 LenP2D=    4422.
 LDataN:  DoStor=T MaxTD1= 4 Len=   56
 Initial guess from the checkpoint file:  "31.chk"
 B after Tr=    -0.000000   -0.000000   -0.000000
         Rot=    1.000000   -0.000000   -0.000000    0.000000 Ang=   0.00 deg.
 Skip diagonalization as Alpha Fock matrix is already diagonal.
 SCF Done:  E(RwB97XD) =  -617.735122385     A.U. after    1 cycles
            NFock=  1  Conv=0.00D+00     -V/T= 2.0046

 **********************************************************************

            Population analysis using the SCF Density.

 **********************************************************************

 Orbital symmetries:
       Occupied  (A) (A) (A) (A) (A) (A) (A) (A) (A) (A) (A) (A)
                 (A) (A) (A) (A) (A) (A) (A) (A) (A) (A) (A) (A)
                 (A)
       Virtual   (A) (A) (A) (A) (A) (A) (A) (A) (A) (A) (A) (A)
                 (A) (A) (A) (A) (A) (A) (A) (A) (A) (A) (A) (A)
                 (A) (A) (A) (A) (A) (A) (A) (A) (A) (A) (A) (A)
                 (A) (A) (A) (A) (A) (A) (A) (A) (A) (A) (A) (A)
                 (A) (A) (A) (A) (A) (A) (A) (A) (A) (A) (A) (A)
                 (A) (A) (A) (A) (A) (A) (A)
 The electronic state is 1-A.
 Alpha  occ. eigenvalues -- -101.64569 -10.36637 -10.29414 -10.29414 -10.29411
 Alpha  occ. eigenvalues --   -9.55359  -7.30711  -7.29779  -7.29779  -0.96134
 Alpha  occ. eigenvalues --   -0.85241  -0.78976  -0.78975  -0.63753  -0.55683
 Alpha  occ. eigenvalues --   -0.54202  -0.54202  -0.48848  -0.48848  -0.45846
 Alpha  occ. eigenvalues --   -0.43631  -0.43631  -0.42693  -0.36443  -0.36443
 Alpha virt. eigenvalues --    0.10869   0.12900   0.19124   0.19124   0.19853
 Alpha virt. eigenvalues --    0.19853   0.20134   0.23841   0.23842   0.26620
 Alpha virt. eigenvalues --    0.26763   0.29526   0.29526   0.46434   0.46971
 Alpha virt. eigenvalues --    0.46972   0.52583   0.52584   0.58880   0.66100
 Alpha virt. eigenvalues --    0.66101   0.67305   0.73481   0.74050   0.74292
 Alpha virt. eigenvalues --    0.74292   0.75216   0.76111   0.76111   0.79547
 Alpha virt. eigenvalues --    0.79548   0.82380   0.83135   0.83135   0.85087
 Alpha virt. eigenvalues --    0.87813   0.91105   0.91695   0.91696   0.97754
 Alpha virt. eigenvalues --    0.97755   1.10221   1.10701   1.10704   1.24111
 Alpha virt. eigenvalues --    1.24114   1.43218   1.50862   1.50863   1.78931
 Alpha virt. eigenvalues --    1.88406   1.88407   2.00178   2.02091   2.02093
 Alpha virt. eigenvalues --    2.09782   2.09783   2.15883   2.22441   2.22442
 Alpha virt. eigenvalues --    2.23032   2.23820   2.52346   2.52347   2.53335
 Alpha virt. eigenvalues --    2.73407   2.73409
          Condensed to atoms (all electrons):
 Mulliken charges:
               1
     1  C   -0.240220
     2  C   -0.265103
     3  C   -0.240224
     4  C   -0.240219
     5  Cl  -0.158065
     6  H    0.118611
     7  H    0.131335
     8  H    0.131328
     9  H    0.118613
    10  H    0.131340
    11  H    0.131326
    12  H    0.118612
    13  H    0.131336
    14  H    0.131331
 Sum of Mulliken charges =  -0.00000
 Mulliken charges with hydrogens summed into heavy atoms:
               1
     1  C    0.141053
     2  C   -0.265103
     3  C    0.141055
     4  C    0.141060
     5  Cl  -0.158065
 Electronic spatial extent (au):  <R**2>=            571.0153
 Charge=              0.0000 electrons
 Dipole moment (field-independent basis, Debye):
    X=              2.1151    Y=             -0.0001    Z=             -0.0000  Tot=              2.1151
 Evaluate density.
 Using the total density.
 Monte-Carlo method of calculating molar volume:
 based on  0.001 e/bohr**3 density envelope.
 Number of points per bohr**3 =  100 CutOff= 1.00D-04
 Using the SCF density.
 There are      1804 points.  Will hold      1804 in memory.
 LenV=  1048384765 MDV=  1048576000.
 Box volume = 5876.294 fraction occupied=0.149
 Integrated density= 3.5350984042634238D+01 error=-1.4649015957365762D+01
 Molar volume =  872.975 bohr**3/mol ( 77.903 cm**3/mol)
 Recommended a0 for SCRF calculation =  3.95 angstrom (  7.47 bohr)
 1\1\GINC-C386\SP\RwB97XD\def2SVPP\C4H9Cl1\PETERCHAO1\23-Sep-2022\0\\#T
  wB97XD//def2svpp Volume=tight Geom=AllCheckpoint Guess=Read\\Monomer\
 \0,1\C,0,-0.8104925539,0.0014704689,1.4561965192\C,0,-0.357030941,-0.0
 000010459,-0.0000257763\C,0,-0.8101179136,-1.2620102738,-0.72686498\C,
 0,-0.810394977,1.2603694613,-0.7295178318\Cl,0,1.4778807589,0.00024848
 3,0.0002049379\H,0,-1.9148135312,0.0015665514,1.5005833033\H,0,-0.4406
 106124,0.8961419301,1.9835302857\H,0,-0.4407012964,-0.8922115834,1.985
 2647506\H,0,-1.9144311573,-1.3008440597,-0.7488917458\H,0,-0.439911683
 8,-2.1659492931,-0.2157865154\H,0,-0.4404317089,-1.2732461764,-1.76539
 12373\H,0,-1.9147163114,1.2987142679,-0.7520118479\H,0,-0.4403183044,1
 .2697424172,-1.767926333\H,0,-0.4407547677,2.1654338524,-0.2200415292\
 \Version=ES64L-G16RevB.01\State=1-A\HF=-617.7351224\RMSD=0.000e+00\Dip
 ole=-0.8321306,-0.0001124,-0.0001239\Quadrupole=-0.9144521,0.4573658,0
 .4570863,-0.0001681,-0.0001255,0.0000365\PG=C01 [X(C4H9Cl1)]\\@


 THOSE WITH THE GOLD MAKE THE RULES.

             -- PETER'S GOLDEN RULE
 Job cpu time:       0 days  0 hours  0 minutes  7.0 seconds.
 Elapsed time:       0 days  0 hours  0 minutes  2.0 seconds.
 File lengths (MBytes):  RWF=     10 Int=      0 D2E=      0 Chk=      2 Scr=      1
 Normal termination of Gaussian 16 at Fri Sep 23 14:18:43 2022.
