You are running Q-Chem version: 5.3.2

#
# job setting
#
local host:  tnxt-0446.cluster
current dir: /scratch/user/peterli3819/peterli3819/12613606_1663277314000000574393434
input file:  qchem_test.inp
output file: 
nprocs     : 0
nthreads   : 8
#
# qchem installation setting
#
QC:          /sw/restricted/qchem/sw/5.3.2
QCAUX:       /sw/restricted/qchem/sw/5.3.2/qcaux
QCPROG:      /sw/restricted/qchem/sw/5.3.2/exe/qcprog.exe_s
QCPROG_S:    /sw/restricted/qchem/sw/5.3.2/exe/qcprog.exe_s
PARALLEL:    -DSERIAL
QCMPI:       seq
#
# qchem directory setting
#
qcrun:       qchem4517
QCSCRATCH:   /scratch/user/peterli3819/peterli3819/12613606_1663277314000000574393434
QCLOCALSCR:  
QCTMPDIR:    /scratch/user/peterli3819/peterli3819/12613606_1663277314000000574393434
QCFILEPREF:  /scratch/user/peterli3819/peterli3819/12613606_1663277314000000574393434/qchem4517
QCSAVEDIR:   
workdirs:    /scratch/user/peterli3819/peterli3819/12613606_1663277314000000574393434/qchem4517
workdir0:    /scratch/user/peterli3819/peterli3819/12613606_1663277314000000574393434/qchem4517
partmpdirs =  
#
# parallel setting
#
QCRSH:           ssh
QCMPI:           seq
QCMPIRUN:        
QCMACHINEFILE:   /scratch/user/peterli3819/peterli3819/12613606_1663277314000000574393434/qchem4517/hostfile

#
# env setting
#
exported envs:   QC QCAUX QCSCRATCH QCRUNNAME QCFILEPREF QCPROG QCPROG_S GUIFILE

Running Job 1 of 1 qchem_test.inp
qchem qchem_test.inp_4517.0 /scratch/user/peterli3819/peterli3819/12613606_1663277314000000574393434/qchem4517/ 0
/sw/restricted/qchem/sw/5.3.2/exe/qcprog.exe_s qchem_test.inp_4517.0 /scratch/user/peterli3819/peterli3819/12613606_1663277314000000574393434/qchem4517/
                  Welcome to Q-Chem
     A Quantum Leap Into The Future Of Chemistry


 Q-Chem 5.3, Q-Chem, Inc., Pleasanton, CA (2020)

 License issued to: MRG Daniel Tabor and Mike Hall, Texas A&M University

 Yihan Shao,  Zhengting Gan,  E. Epifanovsky,  A. T. B. Gilbert,  M. Wormit,  
 J. Kussmann,  A. W. Lange,  A. Behn,  Jia Deng,  Xintian Feng,  D. Ghosh,  
 M. Goldey,  P. R. Horn,  L. D. Jacobson,  I. Kaliman,  T. Kus,  A. Landau,  
 Jie Liu,  E. I. Proynov,  R. M. Richard,  R. P. Steele,  E. J. Sundstrom,  
 H. L. Woodcock III,  P. M. Zimmerman,  D. Zuev,  B. Alam,  B. Albrecht,  
 A. Aldossary,  E. Alguire,  S. A. Baeppler,  D. Barton,  Z. Benda,  
 Y. A. Bernard,  E. J. Berquist,  K. B. Bravaya,  H. Burton,  K. Carter-Fenk,  
 D. Casanova,  Chun-Min Chang,  Yunqing Chen,  A. Chien,  K. D. Closser,  
 M. P. Coons,  S. Coriani,  S. Dasgupta,  A. L. Dempwolff,  M. Diedenhofen,  
 Hainam Do,  R. G. Edgar,  Po-Tung Fang,  S. Faraji,  S. Fatehi,  
 Qingguo Feng,  J. Fosso-Tande,  J. Gayvert,  Qinghui Ge,  A. Ghysels,  
 G. Gidofalvi,  J. Gomes,  J. Gonthier,  S. Gulania,  A. Gunina,  D. Hait,  
 M. W. D. Hanson-Heine,  S. Hammes-Schiffer,  P. H. P. Harbach,  
 A. W. Hauser,  M. F. Herbst,  J. E. Herr,  E. G. Hohenstein,  Z. C. Holden,  
 S. Houck,  Kerwin Hui,  B. C. Huynh,  M. Ivanov,  T.-C. Jagau,  Hyunjun Ji,  
 B. Kaduk,  K. Khistyaev,  Jaehoon Kim,  P. Klunzinger,  K. Koh,  
 D. Kosenkov,  L. Koulias,  T. Kowalczyk,  C. M. Krauter,  A. Kunitsa,  
 Ka Un Lao,  A. Laurent,  K. V. Lawler,  Joonho Lee,  D. Lefrancois,  
 S. Lehtola,  D. S. Levine,  Yi-Pei Li,  You-Sheng Lin,  Fenglai Liu,  
 Kuan-Yu Liu,  E. Livshits,  M. Loipersberger,  A. Luenser,  A. Manjanath,  
 P. Manohar,  E. Mansoor,  S. F. Manzer,  Shan-Ping Mao,  Yuezhi Mao,  
 N. Mardirossian,  A. V. Marenich,  T. Markovich,  L. A. Martinez-Martinez,  
 S. A. Maurer,  N. J. Mayhall,  S. C. McKenzie,  J.-M. Mewes,  P. Morgante,  
 A. F. Morrison,  J. W. Mullinax,  K. Nanda,  T. S. Nguyen-Beck,  
 R. Olivares-Amaya,  K. J. Oosterbaan,  J. A. Parkhill,  S. K. Paul,  
 F. Pavosevic,  Zheng Pei,  T. M. Perrine,  F. Plasser,  P. Pokhilko,  
 S. Prager,  A. Prociuk,  E. Ramos,  B. Rana,  D. R. Rehn,  F. Rob,  
 E. Rossomme,  M. Scheurer,  M. Schneider,  N. Sergueev,  S. M. Sharada,  
 S. Sharma,  W. Skomorowski,  D. W. Small,  T. Stauch,  C. J. Stein,  
 T. Stein,  Yu-Chuan Su,  S. P. Veccham,  Zhen Tao,  A. J. W. Thom,  
 A. Tkatchenko,  T. Tsuchimochi,  N. M. Tubman,  L. Vogt,  M. L. Vidal,  
 O. Vydrov,  M. A. Watson,  J. Wenzel,  M. de Wergifosse,  T. A. Wesolowski,  
 A. White,  J. Witte,  A. Yamada,  Jun Yang,  K. Yao,  S. Yeganeh,  
 S. R. Yost,  Zhi-Qiang You,  A. Zech,  Igor Ying Zhang,  Xing Zhang,  
 Yan Zhao,  Ying Zhu,  B. R. Brooks,  G. K. L. Chan,  C. J. Cramer,  
 M. S. Gordon,  W. J. Hehre,  A. Klamt,  M. W. Schmidt,  C. D. Sherrill,  
 D. G. Truhlar,  A. Aspuru-Guzik,  R. Baer,  A. T. Bell,  N. A. Besley,  
 Jeng-Da Chai,  A. E. DePrince, III,  R. A. DiStasio Jr.,  A. Dreuw,  
 B. D. Dunietz,  T. R. Furlani,  Chao-Ping Hsu,  Yousung Jung,  Jing Kong,  
 D. S. Lambrecht,  WanZhen Liang,  C. Ochsenfeld,  V. A. Rassolov,  
 L. V. Slipchenko,  J. E. Subotnik,  T. Van Voorhis,  J. M. Herbert,  
 A. I. Krylov,  P. M. W. Gill,  M. Head-Gordon

 Contributors to earlier versions of Q-Chem not listed above: 
 R. D. Adamson,  B. Austin,  J. Baker,  G. J. O. Beran,  K. Brandhorst,  
 S. T. Brown,  E. F. C. Byrd,  A. K. Chakraborty,  C.-L. Cheng,  
 Siu Hung Chien,  D. M. Chipman,  D. L. Crittenden,  H. Dachsel,  
 R. J. Doerksen,  A. D. Dutoi,  L. Fusti-Molnar,  W. A. Goddard III,  
 A. Golubeva-Zadorozhnaya,  S. R. Gwaltney,  G. Hawkins,  A. Heyden,  
 S. Hirata,  G. Kedziora,  F. J. Keil,  C. Kelley,  Jihan Kim,  R. A. King,  
 R. Z. Khaliullin,  P. P. Korambath,  W. Kurlancheek,  A. M. Lee,  M. S. Lee,  
 S. V. Levchenko,  Ching Yeh Lin,  D. Liotard,  R. C. Lochan,  I. Lotan,  
 P. E. Maslen,  N. Nair,  D. P. O'Neill,  D. Neuhauser,  E. Neuscamman,  
 C. M. Oana,  R. Olson,  B. Peters,  R. Peverati,  P. A. Pieniazek,  
 Y. M. Rhee,  J. Ritchie,  M. A. Rohrdanz,  E. Rosta,  N. J. Russ,  
 H. F. Schaefer III,  N. E. Schultz,  N. Shenvi,  A. C. Simmonett,  A. Sodt,  
 D. Stuck,  K. S. Thanthiriwatte,  V. Vanovschi,  Tao Wang,  A. Warshel,  
 C. F. Williams,  Q. Wu,  X. Xu,  W. Zhang

 Please cite Q-Chem as follows:
 Y. Shao et al., Mol. Phys. 113, 184-215 (2015)
 DOI: 10.1080/00268976.2014.952696

 Q-Chem 5.3.2 for Intel X86 EM64T Linux

 Parts of Q-Chem use Armadillo 9.800.1 (Horizon Scraper).
 http://arma.sourceforge.net/

 Q-Chem begins on Thu Sep 15 16:29:02 2022  

Host: 
0

     Scratch files written to /scratch/user/peterli3819/peterli3819/12613606_1663277314000000574393434/qchem4517//
 Dec820 |scratch|qcdevops|jenkins|workspace|build_RNUM 7711   
Processing $rem in /sw/restricted/qchem/sw/5.3.2/config/preferences:
Processing $rem in /home/peterli3819/.qchemrc:

 Q-Chem warning in module libgen/rem_setup.C, line 2945:

 Neither GIA nor STOLL is specified by user. Use STOLL as the default


Checking the input file for inconsistencies... 	...done.

--------------------------------------------------------------
User input:
--------------------------------------------------------------
$molecule
0 1
--
0 1
C       -3.956117    0.142058   -0.000104
C       -2.436313    0.265401   -0.000070
C       -1.923766    0.952338   -1.260535
C       -1.923819    0.952234    1.260473
Cl       -1.767585   -1.452424   -0.000129
H       -4.405890    1.151418   -0.000070
H       -4.310065   -0.396141    0.894657
H       -4.310031   -0.396065   -0.894924
H       -2.332066    1.978368   -1.306875
H       -2.244128    0.409938   -2.165434
H       -0.823881    1.021322   -1.251997
H       -2.332122    1.978260    1.306880
H       -0.823932    1.021221    1.251999
H       -2.244223    0.409760    2.165313
--
0 1
C        1.923745   -0.952343    1.260524
C        2.436314   -0.265401    0.000071
C        3.956118   -0.142057    0.000135
C        1.923839   -0.952230   -1.260483
Cl        1.767584    1.452424    0.000121
H        2.332045   -1.978373    1.306867
H        0.823859   -1.021327    1.251977
H        2.244096   -0.409946    2.165430
H        4.405891   -1.151418    0.000109
H        4.310014    0.396065    0.894963
H        4.310084    0.396142   -0.894618
H        2.332139   -1.978257   -1.306886
H        2.244254   -0.409753   -2.165317
H        0.823953   -1.021211   -1.252012
$end

$rem
JOBTYPE           eda
EDA2              2
METHOD            wB97X-D
BASIS             def2-SV(P)
SCF_CONVERGENCE   8
THRESH            14
SYMMETRY          false
DISP_FREE_X       wB97X-D
DISP_FREE_C       none
EDA_BSSE          true
$end
--------------------------------------------------------------
 ----------------------------------------------------------------
             Standard Nuclear Orientation (Angstroms)
    I     Atom           X                Y                Z
 ----------------------------------------------------------------
    1      C       3.9561168615     0.1420579644    -0.0000231291
    2      C       2.4363128614     0.2654009661    -0.0000003007
    3      C       1.9238083826     0.9522811440     1.2605129542
    4      C       1.9237763406     0.9522907906    -1.2604950483
    5      Cl      1.7675848608    -1.4524240347     0.0000038185
    6      H       4.4058898618     1.1514179648    -0.0000267996
    7      H       4.3100346771    -0.3961006995    -0.8948203294
    8      H       4.3100610456    -0.3961053735     0.8947606723
    9      H       2.3321099473     1.9783090538     1.3068854340
   10      H       2.2442009067     0.4098403518     2.1653766946
   11      H       0.8239230953     1.0212655290     1.2520151668
   12      H       2.3320777766     1.9783188814    -1.3068695686
   13      H       0.8238896272     1.0212774087    -1.2519808355
   14      H       2.2441498162     0.4098575811    -2.1653703098
   15      C      -1.9237876622    -0.9522862045    -1.2605021151
   16      C      -2.4363141415    -0.2654010260    -0.0000008592
   17      C      -3.9561181425    -0.1420570230    -0.0000080309
   18      C      -1.9237966203    -0.9522868510     1.2605048892
   19      Cl     -1.7675841406     1.4524239743     0.0000040215
   20      H      -2.3320892271    -1.9783141142    -1.3068775950
   21      H      -0.8239013746    -1.0212705899    -1.2519953277
   22      H      -2.2441691866    -0.4098484119    -2.1653728560
   23      H      -4.4058911431    -1.1514180230    -0.0000123603
   24      H      -4.3100443270     0.3961053152    -0.8947998329
   25      H      -4.3100539584     0.3961016412     0.8947811701
   26      H      -2.3320950565    -1.9783159417     1.3068754093
   27      H      -2.2441810961    -0.4098506412     2.1653741511
   28      H      -0.8239109068    -1.0212674693     1.2519936767
 ----------------------------------------------------------------
 Molecular Point Group                 C1    NOp =  1
 Largest Abelian Subgroup              C1    NOp =  1
 Nuclear Repulsion Energy =         755.45771012 hartrees
 There are       50 alpha and       50 beta electrons
 Requested basis set is def2-SV(P)
 There are 100 shells and 184 basis functions

 Total QAlloc Memory Limit  56000 MB
 Mega-Array Size       188 MB
 MEM_STATIC part       192 MB
 A cutoff of  1.0D-14 yielded   4520 shell pairs
 There are     15136 function pairs (     16747 Cartesian)
 Smallest overlap matrix eigenvalue = 1.86E-03

 Scale SEOQF with 1.000000e-01/1.000000e-01/1.000000e-01

 Standard Electronic Orientation quadrupole field applied
 Nucleus-field energy     =     0.0000000225 hartrees

 -----------------------------------------------------------------------
  General SCF calculation program by
  Eric Jon Sundstrom, Paul Horn, Yuezhi Mao, Dmitri Zuev, Alec White,
  David Stuck, Shaama M.S., Shane Yost, Joonho Lee, David Small,
  Daniel Levine, Susi Lehtola, Hugh Burton, Evgeny Epifanovsky,
  Bang C. Huynh
 -----------------------------------------------------------------------
================================================================
                 ALMO-EDA with the EDA2 driver                  
================================================================
 The second-generation ALMO-EDA (for DFT):                      
 P. R. Horn, Y. Mao and M. Head-Gordon, PCCP, 18, 23067 (2016)  
 Decomposition of the frozen energy:                            
 P. R. Horn, Y. Mao and M. Head-Gordon, JCP, 144, 114107 (2016) 
Using eda2 option set 2
Option set summary: Frozen orbital wavefunction, initial wavefunction decomposition, and traditional AO-based POL.
--------------------------------
Printing EDA Options
--------------------------------
eda_child_super_basis      0
fragmo_guess_mode          0
child_mp                   0
child_mp_orders            0
cls_elec                   1
cls_disp                   0
scfmi_mode                 1
scfmi_occs                 0
scfmi_virts                0
frz_relax                  0
frz_relax_method           0
dc_pen_start               0
dc_pen_conv                0
dc_pen_increment           0
dc_pen_steps               0
dc_pen_thresh_factor       0
dc_pen_pre_newton_thresh   0
frz_ortho_decomp           1
frz_ortho_decomp_conv      6
plot_mo_ortho_frz          0
frgm_method                2
scfmi_freeze_ss            0
separate_rehyb             0
plot_diff_den              0
eda_nocv                   0
eda_vct_relax              1
disp_free_x                -110
disp_free_c                0
eda_bsse                   1
eda_pct_a                  0
eda_covp                   0
--------------------------------
Attempting to make child job directory: /scratch/user/peterli3819/peterli3819/12613606_1663277314000000574393434/qchem4517//Frg1/
Attempting to make child job directory: /scratch/user/peterli3819/peterli3819/12613606_1663277314000000574393434/qchem4517//Frg2/
Creating input file /scratch/user/peterli3819/peterli3819/12613606_1663277314000000574393434/qchem4517/Frg1.input
using default PutDataFrgm: nothing
calling putenv with: QCSCRATCH=/scratch/user/peterli3819/peterli3819/12613606_1663277314000000574393434/qchem4517/ 
Spawning Job For Fragment 0
Done Job For Fragment 0
calling putenv with: QCSCRATCH=/scratch/user/peterli3819/peterli3819/12613606_1663277314000000574393434 
calling putenv with: QCTHREADS=8 
Creating input file /scratch/user/peterli3819/peterli3819/12613606_1663277314000000574393434/qchem4517/Frg2.input
using default PutDataFrgm: nothing
calling putenv with: QCSCRATCH=/scratch/user/peterli3819/peterli3819/12613606_1663277314000000574393434/qchem4517/ 
Spawning Job For Fragment 1
Done Job For Fragment 1
calling putenv with: QCSCRATCH=/scratch/user/peterli3819/peterli3819/12613606_1663277314000000574393434 
calling putenv with: QCTHREADS=8 
Doing General SCFMI
 Exchange:     0.2220 Hartree-Fock + 1.0000 wB97X-D + LR-HF
 Correlation:  1.0000 wB97X-D
 Using SG-2 standard quadrature grid
 Dispersion:   Grimme D
performing fock build before subrot guess so that all methods have access
Printing subrot_rss_gen Method Specification:
Occupied Subspace Method is 0
Virtual Subspace Method is 0
Energy of the unrelaxed supersystem initial determinant -1235.444438499495
write pseudocanon occs and virts to disk
write pseudocanon orbital energies to disk
Tolerance of ortho_decomp_scf: 1.00e-06
GDM subspace size: 20
Beginning the Orthogonal Decomposition of the Initial Supersystem Wavefunction
    1   -1235.4215607467      5.57e-02     ortho_decomp Preconditoned Steepest Descent
    2   -1235.4259030291      4.53e-04     ortho_decomp BFGS Step
    3   -1235.4259045911      1.84e-05     ortho_decomp BFGS Step
    4   -1235.4259045962      1.07e-06     ortho_decomp BFGS Step
    5   -1235.4259045962      2.61e-08     ortho_decomp 00000 Convergence criterion met
 Exchange:     0.2220 Hartree-Fock + 1.0000 wB97X-D + LR-HF
 Correlation:  1.0000 wB97X-D
 Using SG-2 standard quadrature grid
 Dispersion:   Grimme D
 Long-range K will be added via erf
 Coulomb attenuation parameter = 0.2 bohr**(-1)
 Exchange:     0.2220 Hartree-Fock + 1.0000 wB97X-D + LR-HF
 Correlation:  1.0000 wB97X-D
 Using SG-2 standard quadrature grid
 Dispersion:   Grimme D
 Long-range K will be added via erf
 Coulomb attenuation parameter = 0.2 bohr**(-1)
 Exchange:     0.2220 Hartree-Fock + 1.0000 wB97X-D + LR-HF
 Correlation:  1.0000 wB97X-D
 Using SG-2 standard quadrature grid
 Dispersion:   Grimme D
 Long-range K will be added via erf
 Coulomb attenuation parameter = 0.2 bohr**(-1)
Doing General SCFMI
 Exchange:     0.2220 Hartree-Fock + 1.0000 wB97X-D + LR-HF
 Correlation:  1.0000 wB97X-D
 Using SG-2 standard quadrature grid
 Dispersion:   Grimme D
performing fock build at end of subrot_r(subrot) constructor so that all methods have access
<S^2> of initial wavefunction before polarization iterations 0.0000000000
Beginning iterations for the determination of the polarized wavefunction
Energy prior to optimization (guess energy) = -1235.444438499495
Begin Timing: Total SCF Calculation
begin iterations for algorithm: DIIS         
the SCF tolerance is set to 1.00e-08
    1   -1235.4444384995      1.47e-04     00000 
    2   -1235.4447971665      4.75e-05     00000 
    3   -1235.4448205715      2.52e-05     00000 
    4   -1235.4448270142      9.49e-06     00000 
    5   -1235.4448280498      2.07e-06     00000 
    6   -1235.4448281132      7.63e-07     00000 
    7   -1235.4448281195      1.57e-07     00000 
    8   -1235.4448281198      3.64e-08     00000 
    9   -1235.4448281198      6.89e-09     00000 Convergence criterion met
write pseudocanon occs and virts to disk
write pseudocanon orbital energies to disk
Timing for Total SCF: 15.00s (wall), 110.94s (cpu)
<S^2> of polarized wavefunction after polarization iterations 0.0000000000
relaxing scfmi constraint to allow all rotations in the entire AO span
Doing General SCFMI
 Exchange:     0.2220 Hartree-Fock + 1.0000 wB97X-D + LR-HF
 Correlation:  1.0000 wB97X-D
 Using SG-2 standard quadrature grid
 Dispersion:   Grimme D
performing fock build at end of subrot_r(subrot) constructor so that all methods have access
<S^2> of polarized wavefunction before ct-allowed iterations 0.0000000000
Beginning iterations for the determination of the CT-Allowed wavefunction
Energy prior to optimization (guess energy) = -1235.444828119807
Begin Timing: Total SCF Calculation
begin iterations for algorithm: DIIS         
the SCF tolerance is set to 1.00e-08
    1   -1235.4448281198      8.28e-04     00000 
    2   -1235.4523985466      9.69e-05     00000 
    3   -1235.4528775237      2.93e-05     00000 
    4   -1235.4529129222      1.65e-05     00000 
    5   -1235.4529189563      3.41e-06     00000 
    6   -1235.4529191892      9.32e-07     00000 
    7   -1235.4529192139      3.37e-07     00000 
    8   -1235.4529192161      4.81e-08     00000 
    9   -1235.4529192162      1.68e-08     00000 
   10   -1235.4529192162      3.08e-09     00000 Convergence criterion met
write pseudocanon occs and virts to disk
write pseudocanon orbital energies to disk
Timing for Total SCF: 17.00s (wall), 128.42s (cpu)
<S^2> of ct_allowed wavefunction after ct-allowed iterations 0.0000000000
Attempting to make child job directory: /scratch/user/peterli3819/peterli3819/12613606_1663277314000000574393434/qchem4517//FrgBSSE1/
Attempting to make child job directory: /scratch/user/peterli3819/peterli3819/12613606_1663277314000000574393434/qchem4517//FrgBSSE2/
Creating input file /scratch/user/peterli3819/peterli3819/12613606_1663277314000000574393434/qchem4517/FrgBSSE1.input
calling putenv with: QCSCRATCH=/scratch/user/peterli3819/peterli3819/12613606_1663277314000000574393434/qchem4517/ 
Spawning Job For Fragment 0
Done Job For Fragment 0
calling putenv with: QCSCRATCH=/scratch/user/peterli3819/peterli3819/12613606_1663277314000000574393434 
calling putenv with: QCTHREADS=8 
Creating input file /scratch/user/peterli3819/peterli3819/12613606_1663277314000000574393434/qchem4517/FrgBSSE2.input
calling putenv with: QCSCRATCH=/scratch/user/peterli3819/peterli3819/12613606_1663277314000000574393434/qchem4517/ 
Spawning Job For Fragment 1
Done Job For Fragment 1
calling putenv with: QCSCRATCH=/scratch/user/peterli3819/peterli3819/12613606_1663277314000000574393434 
calling putenv with: QCTHREADS=8 
====================================================================
   Evaluating the BSSE with fragment SCF in the supersystem basis
   Fragment contributions (kJ/mol) 
   Frgm 1: 7.3490
   Frgm 2: 7.3490
   BSSE (kJ/mol) = 14.6979
====================================================================

================================
        Results of EDA2         
================================
Basic EDA Quantities
--------------------
Fragment Energies (Ha):
1 -617.7211442308
2 -617.7211442268
--------------------
  E_prp (kJ/mol) = 0.0000
  E_frz (kJ/mol) = -5.6450
  E_pol (kJ/mol) = -1.0230
  E_vct (kJ/mol) = -6.5455 (CP-corrected)
  E_int (kJ/mol) = -13.2135 (CP-corrected)
--------------------


Decomposition of frozen interaction energy
--------------------
  --------------------
  Orthogonal Frozen Decomposition:
  --------------------
     E_elec   (ELEC)   (kJ/mol) = -23.8365
     E_pauli  (PAULI)  (kJ/mol) = 31.1905
     E_disp   (DISP)   (kJ/mol) = -12.9990
  --------------------
  Classical Frozen Decomposition:
  --------------------
     E_cls_elec  (CLS ELEC)  (kJ/mol) = -10.2046
     E_mod_pauli (MOD PAULI) (kJ/mol) = 17.5586 (FRZ - CLS ELEC - DISP)
     E_disp      (DISP)      (kJ/mol) = -12.9990
  --------------------
--------------------

Simplified EDA Summary (kJ/mol)
--------------------
 PREPARATION      0.0000
 FROZEN           -5.6450 (ELEC + PAULI + DISP)
[ELEC + PAULI = 7.3540, DISP = -12.9990]
 POLARIZATION    -1.0230
 CHARGE TRANSFER -6.5455     (counterpoise-corrected)
 TOTAL           -13.2135     (PRP + FRZ + POL + CT)
--------------------
 
 --------------------------------------------------------------
 
                    Orbital Energies (a.u.)
 --------------------------------------------------------------
 
 Alpha MOs
 -- Occupied --
********-101.6438 -10.3649 -10.3649 -10.2925 -10.2925 -10.2874 -10.2874
-10.2874 -10.2874  -9.5580  -9.5579  -7.3118  -7.3118  -7.3030  -7.3030
 -7.3029  -7.3029  -0.9612  -0.9594  -0.8541  -0.8519  -0.7879  -0.7863
 -0.7852  -0.7834  -0.6368  -0.6325  -0.5544  -0.5543  -0.5425  -0.5388
 -0.5380  -0.5347  -0.4873  -0.4864  -0.4851  -0.4795  -0.4560  -0.4517
 -0.4369  -0.4340  -0.4329  -0.4328  -0.4248  -0.4232  -0.3700  -0.3678
 -0.3674  -0.3622
 -- Virtual --
  0.1051   0.1085   0.1258   0.1410   0.1868   0.1943   0.1959   0.1962
  0.1994   0.2005   0.2051   0.2142   0.2157   0.2252   0.2400   0.2407
  0.2447   0.2514   0.2608   0.2664   0.2682   0.2747   0.2987   0.2997
  0.3042   0.3308   0.4589   0.4656   0.4761   0.4812   0.4941   0.5180
  0.5234   0.5248   0.5500   0.5510   0.5929   0.6070   0.6551   0.6636
  0.6675   0.6718   0.6744   0.6830   0.7332   0.7401   0.7409   0.7457
  0.7473   0.7480   0.7514   0.7543   0.7616   0.7618   0.7702   0.7742
  0.7780   0.7940   0.7997   0.8044   0.8080   0.8135   0.8258   0.8360
  0.8432   0.8515   0.8564   0.8574   0.8597   0.8743   0.9034   0.9081
  0.9144   0.9161   0.9211   0.9247   0.9466   0.9559   1.0185   1.0349
  1.0361   1.0730   1.1023   1.1081   1.1198   1.1382   1.1690   1.2077
  1.2390   1.2527   1.2846   1.2948   1.4204   1.4348   1.5141   1.5150
  1.5213   1.5314   1.7914   1.7969   1.8776   1.8955   1.8965   1.8995
  2.0070   2.0165   2.0278   2.0305   2.0330   2.0511   2.0987   2.0998
  2.1017   2.1072   2.1626   2.1725   2.2255   2.2289   2.2311   2.2320
  2.2362   2.2393   2.2409   2.2492   2.5256   2.5259   2.5288   2.5348
  2.5367   2.5406   2.7376   2.7377   2.7402   2.7482
 --------------------------------------------------------------
 
          Ground-State Mulliken Net Atomic Charges

     Atom                 Charge (a.u.)
  ----------------------------------------
      1 C                    -0.239138
      2 C                    -0.268514
      3 C                    -0.252699
      4 C                    -0.252702
      5 Cl                   -0.141809
      6 H                     0.119798
      7 H                     0.130403
      8 H                     0.130403
      9 H                     0.118604
     10 H                     0.126542
     11 H                     0.141983
     12 H                     0.118604
     13 H                     0.141984
     14 H                     0.126542
     15 C                    -0.252702
     16 C                    -0.268515
     17 C                    -0.239137
     18 C                    -0.252700
     19 Cl                   -0.141809
     20 H                     0.118605
     21 H                     0.141984
     22 H                     0.126542
     23 H                     0.119798
     24 H                     0.130403
     25 H                     0.130403
     26 H                     0.118604
     27 H                     0.126542
     28 H                     0.141983
  ----------------------------------------
  Sum of atomic charges =     0.000000

 -----------------------------------------------------------------
                    Cartesian Multipole Moments
 -----------------------------------------------------------------
    Charge (ESU x 10^10)
                 0.0000
    Dipole Moment (Debye)
         X      -0.0000      Y      -0.0000      Z      -0.0000
       Tot       0.0000
    Quadrupole Moments (Debye-Ang)
        XX     -70.9634     XY       7.7575     YY     -81.4154
        XZ       0.0000     YZ       0.0000     ZZ     -78.1916
    Octopole Moments (Debye-Ang^2)
       XXX      -0.0000    XXY       0.0000    XYY       0.0000
       YYY      -0.0000    XXZ       0.0001    XYZ       0.0000
       YYZ      -0.0000    XZZ       0.0000    YZZ       0.0000
       ZZZ       0.0000
    Hexadecapole Moments (Debye-Ang^3)
      XXXX   -2946.2438   XXXY       8.8922   XXYY    -608.6639
      XYYY       1.3090   YYYY    -602.6357   XXXZ       0.0001
      XXYZ      -0.0000   XYYZ       0.0000   YYYZ       0.0000
      XXZZ    -562.6739   XYZZ     -12.8201   YYZZ    -180.2556
      XZZZ      -0.0001   YZZZ       0.0000   ZZZZ    -432.2791
 -----------------------------------------------------------------
Archival summary:
1\1\tnxt-0446.cluster\SP\ProcedureUnspecified\BasisUnspecified\l2818\peterli3\ThuSep1516:31:082022ThuSep1516:31:082022\0\\#,ProcedureUnspecified,BasisUnspecified,\\0,1\Cl\C,1,1.8434\C,2,1.52426,1,107.335\H,3,1.10208,2,110.941,1,62.6054,0\H,3,1.10258,2,111.056,1,-58.9042,0\H,3,1.10526,2,109.197,1,-178.335,0\C,2,1.52426,1,107.335,3,120.066,0\H,7,1.10208,2,110.94,1,-62.6057,0\H,7,1.10258,2,111.056,1,58.904,0\H,7,1.10526,2,109.197,1,178.335,0\C,2,1.5248,1,106.631,3,-119.967,0\H,11,1.10251,2,111.067,1,-60.4264,0\H,11,1.10251,2,111.067,1,60.4263,0\H,11,1.10504,2,109.378,1,180,0\H,4,2.62435,3,125.304,2,-62.9896,0\C,15,1.10208,4,125.304,3,-178.916,0\H,16,1.10258,15,109.094,4,59.6642,0\H,16,1.10526,15,108.113,4,177.302,0\C,16,1.52426,15,110.941,4,-62.9887,0\C,19,1.52426,16,111.576,15,-54.723,0\H,20,1.10208,19,110.94,16,54.7228,0\H,20,1.10258,19,111.056,16,176.232,0\H,20,1.10526,19,109.197,16,-64.3368,0\C,19,1.5248,16,111.814,15,179.213,0\H,24,1.10251,19,111.067,16,-177.46,0\H,24,1.10251,19,111.067,16,-56.6068,0\H,24,1.10504,19,109.378,16,62.9668,0\Cl,19,1.8434,16,107.335,15,62.6053,0\\\@

 Total job time:  126.04s(wall), 513.54s(cpu) 
 Thu Sep 15 16:31:08 2022

        *************************************************************
        *                                                           *
        *  Thank you very much for using Q-Chem.  Have a nice day.  *
        *                                                           *
        *************************************************************


remove work dirs /scratch/user/peterli3819/peterli3819/12613606_1663277314000000574393434/qchem4517.0 -- /scratch/user/peterli3819/peterli3819/12613606_1663277314000000574393434/qchem4517.-1
rm -rf /scratch/user/peterli3819/peterli3819/12613606_1663277314000000574393434/qchem4517
real 153.04
user 776.62
sys 41.67
