 Entering Gaussian System, Link 0=g16
 Input=gaussian_test.inp
 Output=gaussian_test.log
 Initial command:
 /sw/restricted/lms/sw/Gaussian/g16_B01/g16/l1.exe "/scratch/user/peterchao1/peterchao1/6949357_1675442989000000071504392/Gau-113936.inp" -scrdir="/scratch/user/peterchao1/peterchao1/6949357_1675442989000000071504392/"
 Entering Link 1 = /sw/restricted/lms/sw/Gaussian/g16_B01/g16/l1.exe PID=    113938.
  
 Copyright (c) 1988-2017, Gaussian, Inc.  All Rights Reserved.
  
 This is part of the Gaussian(R) 16 program.  It is based on
 the Gaussian(R) 09 system (copyright 2009, Gaussian, Inc.),
 the Gaussian(R) 03 system (copyright 2003, Gaussian, Inc.),
 the Gaussian(R) 98 system (copyright 1998, Gaussian, Inc.),
 the Gaussian(R) 94 system (copyright 1995, Gaussian, Inc.),
 the Gaussian 92(TM) system (copyright 1992, Gaussian, Inc.),
 the Gaussian 90(TM) system (copyright 1990, Gaussian, Inc.),
 the Gaussian 88(TM) system (copyright 1988, Gaussian, Inc.),
 the Gaussian 86(TM) system (copyright 1986, Carnegie Mellon
 University), and the Gaussian 82(TM) system (copyright 1983,
 Carnegie Mellon University). Gaussian is a federally registered
 trademark of Gaussian, Inc.
  
 This software contains proprietary and confidential information,
 including trade secrets, belonging to Gaussian, Inc.
  
 This software is provided under written license and may be
 used, copied, transmitted, or stored only in accord with that
 written license.
  
 The following legend is applicable only to US Government
 contracts under FAR:
  
                    RESTRICTED RIGHTS LEGEND
  
 Use, reproduction and disclosure by the US Government is
 subject to restrictions as set forth in subparagraphs (a)
 and (c) of the Commercial Computer Software - Restricted
 Rights clause in FAR 52.227-19.
  
 Gaussian, Inc.
 340 Quinnipiac St., Bldg. 40, Wallingford CT 06492
  
  
 ---------------------------------------------------------------
 Warning -- This program may not be used in any manner that
 competes with the business of Gaussian, Inc. or will provide
 assistance to any competitor of Gaussian, Inc.  The licensee
 of this program is prohibited from giving any competitor of
 Gaussian, Inc. access to this program.  By using this program,
 the user acknowledges that Gaussian, Inc. is engaged in the
 business of creating and licensing software in the field of
 computational chemistry and represents and warrants to the
 licensee that it is not a competitor of Gaussian, Inc. and that
 it will not use this program in any manner prohibited above.
 ---------------------------------------------------------------
  

 Cite this work as:
 Gaussian 16, Revision B.01,
 M. J. Frisch, G. W. Trucks, H. B. Schlegel, G. E. Scuseria, 
 M. A. Robb, J. R. Cheeseman, G. Scalmani, V. Barone, 
 G. A. Petersson, H. Nakatsuji, X. Li, M. Caricato, A. V. Marenich, 
 J. Bloino, B. G. Janesko, R. Gomperts, B. Mennucci, H. P. Hratchian, 
 J. V. Ortiz, A. F. Izmaylov, J. L. Sonnenberg, D. Williams-Young, 
 F. Ding, F. Lipparini, F. Egidi, J. Goings, B. Peng, A. Petrone, 
 T. Henderson, D. Ranasinghe, V. G. Zakrzewski, J. Gao, N. Rega, 
 G. Zheng, W. Liang, M. Hada, M. Ehara, K. Toyota, R. Fukuda, 
 J. Hasegawa, M. Ishida, T. Nakajima, Y. Honda, O. Kitao, H. Nakai, 
 T. Vreven, K. Throssell, J. A. Montgomery, Jr., J. E. Peralta, 
 F. Ogliaro, M. J. Bearpark, J. J. Heyd, E. N. Brothers, K. N. Kudin, 
 V. N. Staroverov, T. A. Keith, R. Kobayashi, J. Normand, 
 K. Raghavachari, A. P. Rendell, J. C. Burant, S. S. Iyengar, 
 J. Tomasi, M. Cossi, J. M. Millam, M. Klene, C. Adamo, R. Cammi, 
 J. W. Ochterski, R. L. Martin, K. Morokuma, O. Farkas, 
 J. B. Foresman, and D. J. Fox, Gaussian, Inc., Wallingford CT, 2016.
 
 ******************************************
 Gaussian 16:  ES64L-G16RevB.01 20-Dec-2017
                 3-Feb-2023 
 ******************************************
 %nprocshared=4
 Will use up to    4 processors via shared memory.
 %mem=8000mb
 %chk=35.chk
 %nprocshared=4
 Will use up to    4 processors via shared memory.
 %mem=8000mb
 ----------------------------------------------------------------------
 #T wB97XD/def2svpp opt=tight freq int(grid=ultrafine) scf=(verytight,q
 c) Volume=tight
 ----------------------------------------------------------------------
 -----
 Dimer
 -----
 Symbolic Z-matrix:
 Charge =  0 Multiplicity = 1
 C                    -3.56972  -1.54121   0.40781 
 C                    -2.60098  -0.39976   0.0803 
 C                    -2.92224   0.17381  -1.31624 
 O                    -2.18001   1.32419  -1.64116 
 C                    -2.72185   0.69862   1.15609 
 O                    -1.85432   1.79198   0.95356 
 C                    -1.19317  -0.99468   0.07272 
 O                    -0.73208  -1.25137   1.2747 
 O                    -0.57783  -1.21859  -0.94579 
 H                    -3.32457  -1.97289   1.37491 
 H                    -3.50416  -2.31856  -0.35003 
 H                    -4.59101  -1.16884   0.43731 
 H                    -3.97156   0.48073  -1.34455 
 H                    -2.76548  -0.61122  -2.06578 
 H                    -1.23816   1.09258  -1.72082 
 H                    -2.48083   0.28618   2.13857 
 H                    -3.76103   1.05457   1.16737 
 H                    -1.94864   2.04405   0.00925 
 H                     0.22469  -1.55592   1.24328 
 C                     3.56982   1.53973   0.41212 
 C                     2.6009    0.39928   0.0816 
 C                     2.92265  -0.17104  -1.31614 
 O                     2.18024  -1.32037  -1.64429 
 C                     2.72119  -0.70164   1.15484 
 O                     1.85359  -1.7944    0.94942 
 C                     1.19339   0.99494   0.07485 
 O                     0.73103   1.24639   1.27752 
 O                     0.57944   1.22406  -0.94329 
 H                     3.50446   2.31897  -0.34379 
 H                     4.59105   1.16713   0.44082 
 H                     3.32463   1.96907   1.38026 
 H                     3.97188  -0.47827  -1.34458 
 H                     2.7666    0.61586  -2.06387 
 H                     1.23834  -1.08843  -1.72282 
 H                     2.47988  -0.29155   2.13822 
 H                     3.76031  -1.05779   1.16565 
 H                     1.9482   -2.04427   0.0046 
 H                    -0.22535   1.55202   1.24659 
 
 Add virtual bond connecting atoms O25        and H19        Dist= 3.16D+00.
 Add virtual bond connecting atoms H38        and O6         Dist= 3.16D+00.

 GradGradGradGradGradGradGradGradGradGradGradGradGradGradGradGradGradGrad
 Initialization pass.
                           ----------------------------
                           !    Initial Parameters    !
                           ! (Angstroms and Degrees)  !
 --------------------------                            --------------------------
 ! Name  Definition              Value          Derivative Info.                !
 --------------------------------------------------------------------------------
 ! R1    R(1,2)                  1.5325         estimate D2E/DX2                !
 ! R2    R(1,10)                 1.0871         estimate D2E/DX2                !
 ! R3    R(1,11)                 1.0876         estimate D2E/DX2                !
 ! R4    R(1,12)                 1.0875         estimate D2E/DX2                !
 ! R5    R(2,3)                  1.5435         estimate D2E/DX2                !
 ! R6    R(2,5)                  1.5422         estimate D2E/DX2                !
 ! R7    R(2,7)                  1.5284         estimate D2E/DX2                !
 ! R8    R(3,4)                  1.4071         estimate D2E/DX2                !
 ! R9    R(3,13)                 1.0936         estimate D2E/DX2                !
 ! R10   R(3,14)                 1.0967         estimate D2E/DX2                !
 ! R11   R(4,15)                 0.9732         estimate D2E/DX2                !
 ! R12   R(5,6)                  1.4103         estimate D2E/DX2                !
 ! R13   R(5,16)                 1.0925         estimate D2E/DX2                !
 ! R14   R(5,17)                 1.0985         estimate D2E/DX2                !
 ! R15   R(6,18)                 0.9819         estimate D2E/DX2                !
 ! R16   R(6,38)                 1.6724         estimate D2E/DX2                !
 ! R17   R(7,8)                  1.3127         estimate D2E/DX2                !
 ! R18   R(7,9)                  1.2108         estimate D2E/DX2                !
 ! R19   R(8,19)                 1.0046         estimate D2E/DX2                !
 ! R20   R(19,25)                1.6723         estimate D2E/DX2                !
 ! R21   R(20,21)                1.5325         estimate D2E/DX2                !
 ! R22   R(20,29)                1.0876         estimate D2E/DX2                !
 ! R23   R(20,30)                1.0875         estimate D2E/DX2                !
 ! R24   R(20,31)                1.0871         estimate D2E/DX2                !
 ! R25   R(21,22)                1.5435         estimate D2E/DX2                !
 ! R26   R(21,24)                1.5422         estimate D2E/DX2                !
 ! R27   R(21,26)                1.5284         estimate D2E/DX2                !
 ! R28   R(22,23)                1.4071         estimate D2E/DX2                !
 ! R29   R(22,32)                1.0937         estimate D2E/DX2                !
 ! R30   R(22,33)                1.0967         estimate D2E/DX2                !
 ! R31   R(23,34)                0.9732         estimate D2E/DX2                !
 ! R32   R(24,25)                1.4103         estimate D2E/DX2                !
 ! R33   R(24,35)                1.0925         estimate D2E/DX2                !
 ! R34   R(24,36)                1.0985         estimate D2E/DX2                !
 ! R35   R(25,37)                0.9819         estimate D2E/DX2                !
 ! R36   R(26,27)                1.3128         estimate D2E/DX2                !
 ! R37   R(26,28)                1.2108         estimate D2E/DX2                !
 ! R38   R(27,38)                1.0045         estimate D2E/DX2                !
 ! A1    A(2,1,10)             110.0801         estimate D2E/DX2                !
 ! A2    A(2,1,11)             110.2022         estimate D2E/DX2                !
 ! A3    A(2,1,12)             110.1458         estimate D2E/DX2                !
 ! A4    A(10,1,11)            108.813          estimate D2E/DX2                !
 ! A5    A(10,1,12)            108.8827         estimate D2E/DX2                !
 ! A6    A(11,1,12)            108.6787         estimate D2E/DX2                !
 ! A7    A(1,2,3)              109.789          estimate D2E/DX2                !
 ! A8    A(1,2,5)              109.3819         estimate D2E/DX2                !
 ! A9    A(1,2,7)              107.0614         estimate D2E/DX2                !
 ! A10   A(3,2,5)              110.4975         estimate D2E/DX2                !
 ! A11   A(3,2,7)              109.3824         estimate D2E/DX2                !
 ! A12   A(5,2,7)              110.6634         estimate D2E/DX2                !
 ! A13   A(2,3,4)              113.7624         estimate D2E/DX2                !
 ! A14   A(2,3,13)             109.111          estimate D2E/DX2                !
 ! A15   A(2,3,14)             108.8223         estimate D2E/DX2                !
 ! A16   A(4,3,13)             105.7057         estimate D2E/DX2                !
 ! A17   A(4,3,14)             110.6104         estimate D2E/DX2                !
 ! A18   A(13,3,14)            108.6843         estimate D2E/DX2                !
 ! A19   A(3,4,15)             109.5629         estimate D2E/DX2                !
 ! A20   A(2,5,6)              113.8138         estimate D2E/DX2                !
 ! A21   A(2,5,16)             109.948          estimate D2E/DX2                !
 ! A22   A(2,5,17)             108.1849         estimate D2E/DX2                !
 ! A23   A(6,5,16)             106.6258         estimate D2E/DX2                !
 ! A24   A(6,5,17)             109.4007         estimate D2E/DX2                !
 ! A25   A(16,5,17)            108.7715         estimate D2E/DX2                !
 ! A26   A(5,6,18)             106.1429         estimate D2E/DX2                !
 ! A27   A(5,6,38)             117.5644         estimate D2E/DX2                !
 ! A28   A(18,6,38)            107.3914         estimate D2E/DX2                !
 ! A29   A(2,7,8)              113.2732         estimate D2E/DX2                !
 ! A30   A(2,7,9)              122.9735         estimate D2E/DX2                !
 ! A31   A(8,7,9)              123.7477         estimate D2E/DX2                !
 ! A32   A(7,8,19)             111.4185         estimate D2E/DX2                !
 ! A33   A(21,20,29)           110.199          estimate D2E/DX2                !
 ! A34   A(21,20,30)           110.1477         estimate D2E/DX2                !
 ! A35   A(21,20,31)           110.0828         estimate D2E/DX2                !
 ! A36   A(29,20,30)           108.6791         estimate D2E/DX2                !
 ! A37   A(29,20,31)           108.8115         estimate D2E/DX2                !
 ! A38   A(30,20,31)           108.8825         estimate D2E/DX2                !
 ! A39   A(20,21,22)           109.7838         estimate D2E/DX2                !
 ! A40   A(20,21,24)           109.3797         estimate D2E/DX2                !
 ! A41   A(20,21,26)           107.0472         estimate D2E/DX2                !
 ! A42   A(22,21,24)           110.4971         estimate D2E/DX2                !
 ! A43   A(22,21,26)           109.3887         estimate D2E/DX2                !
 ! A44   A(24,21,26)           110.6786         estimate D2E/DX2                !
 ! A45   A(21,22,23)           113.7669         estimate D2E/DX2                !
 ! A46   A(21,22,32)           109.1064         estimate D2E/DX2                !
 ! A47   A(21,22,33)           108.8221         estimate D2E/DX2                !
 ! A48   A(23,22,32)           105.7045         estimate D2E/DX2                !
 ! A49   A(23,22,33)           110.6112         estimate D2E/DX2                !
 ! A50   A(32,22,33)           108.6848         estimate D2E/DX2                !
 ! A51   A(22,23,34)           109.561          estimate D2E/DX2                !
 ! A52   A(21,24,25)           113.8143         estimate D2E/DX2                !
 ! A53   A(21,24,35)           109.952          estimate D2E/DX2                !
 ! A54   A(21,24,36)           108.1843         estimate D2E/DX2                !
 ! A55   A(25,24,35)           106.6239         estimate D2E/DX2                !
 ! A56   A(25,24,36)           109.3989         estimate D2E/DX2                !
 ! A57   A(35,24,36)           108.7712         estimate D2E/DX2                !
 ! A58   A(19,25,24)           117.5886         estimate D2E/DX2                !
 ! A59   A(19,25,37)           107.4118         estimate D2E/DX2                !
 ! A60   A(24,25,37)           106.1445         estimate D2E/DX2                !
 ! A61   A(21,26,27)           113.2628         estimate D2E/DX2                !
 ! A62   A(21,26,28)           122.9852         estimate D2E/DX2                !
 ! A63   A(27,26,28)           123.7463         estimate D2E/DX2                !
 ! A64   A(26,27,38)           111.4312         estimate D2E/DX2                !
 ! A65   L(8,19,25,9,-1)       171.0882         estimate D2E/DX2                !
 ! A66   L(6,38,27,7,-1)       168.2286         estimate D2E/DX2                !
 ! A67   L(8,19,25,9,-2)       170.957          estimate D2E/DX2                !
 ! A68   L(6,38,27,7,-2)       175.8188         estimate D2E/DX2                !
 ! D1    D(10,1,2,3)           177.928          estimate D2E/DX2                !
 ! D2    D(10,1,2,5)           -60.6672         estimate D2E/DX2                !
 ! D3    D(10,1,2,7)            59.2842         estimate D2E/DX2                !
 ! D4    D(11,1,2,3)            57.9033         estimate D2E/DX2                !
 ! D5    D(11,1,2,5)           179.308          estimate D2E/DX2                !
 ! D6    D(11,1,2,7)           -60.7405         estimate D2E/DX2                !
 ! D7    D(12,1,2,3)           -61.9966         estimate D2E/DX2                !
 ! D8    D(12,1,2,5)            59.4081         estimate D2E/DX2                !
 ! D9    D(12,1,2,7)           179.3596         estimate D2E/DX2                !
 ! D10   D(1,2,3,4)            173.3101         estimate D2E/DX2                !
 ! D11   D(1,2,3,13)            55.5627         estimate D2E/DX2                !
 ! D12   D(1,2,3,14)           -62.8813         estimate D2E/DX2                !
 ! D13   D(5,2,3,4)             52.5771         estimate D2E/DX2                !
 ! D14   D(5,2,3,13)           -65.1703         estimate D2E/DX2                !
 ! D15   D(5,2,3,14)           176.3856         estimate D2E/DX2                !
 ! D16   D(7,2,3,4)            -69.488          estimate D2E/DX2                !
 ! D17   D(7,2,3,13)           172.7646         estimate D2E/DX2                !
 ! D18   D(7,2,3,14)            54.3206         estimate D2E/DX2                !
 ! D19   D(1,2,5,6)            179.2481         estimate D2E/DX2                !
 ! D20   D(1,2,5,16)            59.7174         estimate D2E/DX2                !
 ! D21   D(1,2,5,17)           -58.9388         estimate D2E/DX2                !
 ! D22   D(3,2,5,6)            -59.7765         estimate D2E/DX2                !
 ! D23   D(3,2,5,16)          -179.3071         estimate D2E/DX2                !
 ! D24   D(3,2,5,17)            62.0366         estimate D2E/DX2                !
 ! D25   D(7,2,5,6)             61.5324         estimate D2E/DX2                !
 ! D26   D(7,2,5,16)           -57.9983         estimate D2E/DX2                !
 ! D27   D(7,2,5,17)          -176.6545         estimate D2E/DX2                !
 ! D28   D(1,2,7,8)            -74.4646         estimate D2E/DX2                !
 ! D29   D(1,2,7,9)            104.7045         estimate D2E/DX2                !
 ! D30   D(3,2,7,8)            166.6283         estimate D2E/DX2                !
 ! D31   D(3,2,7,9)            -14.2027         estimate D2E/DX2                !
 ! D32   D(5,2,7,8)             44.6628         estimate D2E/DX2                !
 ! D33   D(5,2,7,9)           -136.1681         estimate D2E/DX2                !
 ! D34   D(2,3,4,15)            66.002          estimate D2E/DX2                !
 ! D35   D(13,3,4,15)         -174.3019         estimate D2E/DX2                !
 ! D36   D(14,3,4,15)          -56.8318         estimate D2E/DX2                !
 ! D37   D(2,5,6,18)            47.5846         estimate D2E/DX2                !
 ! D38   D(2,5,6,38)           -72.5544         estimate D2E/DX2                !
 ! D39   D(16,5,6,18)          168.9821         estimate D2E/DX2                !
 ! D40   D(16,5,6,38)           48.8431         estimate D2E/DX2                !
 ! D41   D(17,5,6,18)          -73.5527         estimate D2E/DX2                !
 ! D42   D(17,5,6,38)          166.3083         estimate D2E/DX2                !
 ! D43   D(5,6,27,26)           95.6585         estimate D2E/DX2                !
 ! D44   D(18,6,27,26)         -20.7141         estimate D2E/DX2                !
 ! D45   D(2,7,8,19)          -174.4441         estimate D2E/DX2                !
 ! D46   D(9,7,8,19)             6.3942         estimate D2E/DX2                !
 ! D47   D(7,8,25,24)           95.548          estimate D2E/DX2                !
 ! D48   D(7,8,25,37)          -20.8539         estimate D2E/DX2                !
 ! D49   D(29,20,21,22)         57.9227         estimate D2E/DX2                !
 ! D50   D(29,20,21,24)        179.3223         estimate D2E/DX2                !
 ! D51   D(29,20,21,26)        -60.7174         estimate D2E/DX2                !
 ! D52   D(30,20,21,22)        -61.9768         estimate D2E/DX2                !
 ! D53   D(30,20,21,24)         59.4228         estimate D2E/DX2                !
 ! D54   D(30,20,21,26)        179.383          estimate D2E/DX2                !
 ! D55   D(31,20,21,22)        177.9452         estimate D2E/DX2                !
 ! D56   D(31,20,21,24)        -60.6552         estimate D2E/DX2                !
 ! D57   D(31,20,21,26)         59.3051         estimate D2E/DX2                !
 ! D58   D(20,21,22,23)        173.3182         estimate D2E/DX2                !
 ! D59   D(20,21,22,32)         55.5727         estimate D2E/DX2                !
 ! D60   D(20,21,22,33)        -62.8692         estimate D2E/DX2                !
 ! D61   D(24,21,22,23)         52.5915         estimate D2E/DX2                !
 ! D62   D(24,21,22,32)        -65.154          estimate D2E/DX2                !
 ! D63   D(24,21,22,33)        176.4041         estimate D2E/DX2                !
 ! D64   D(26,21,22,23)        -69.4966         estimate D2E/DX2                !
 ! D65   D(26,21,22,32)        172.758          estimate D2E/DX2                !
 ! D66   D(26,21,22,33)         54.3161         estimate D2E/DX2                !
 ! D67   D(20,21,24,25)        179.2546         estimate D2E/DX2                !
 ! D68   D(20,21,24,35)         59.7232         estimate D2E/DX2                !
 ! D69   D(20,21,24,36)        -58.9348         estimate D2E/DX2                !
 ! D70   D(22,21,24,25)        -59.778          estimate D2E/DX2                !
 ! D71   D(22,21,24,35)       -179.3094         estimate D2E/DX2                !
 ! D72   D(22,21,24,36)         62.0326         estimate D2E/DX2                !
 ! D73   D(26,21,24,25)         61.5487         estimate D2E/DX2                !
 ! D74   D(26,21,24,35)        -57.9828         estimate D2E/DX2                !
 ! D75   D(26,21,24,36)       -176.6408         estimate D2E/DX2                !
 ! D76   D(20,21,26,27)        -74.6019         estimate D2E/DX2                !
 ! D77   D(20,21,26,28)        104.5531         estimate D2E/DX2                !
 ! D78   D(22,21,26,27)        166.5019         estimate D2E/DX2                !
 ! D79   D(22,21,26,28)        -14.3431         estimate D2E/DX2                !
 ! D80   D(24,21,26,27)         44.5228         estimate D2E/DX2                !
 ! D81   D(24,21,26,28)       -136.3222         estimate D2E/DX2                !
 ! D82   D(21,22,23,34)         65.9343         estimate D2E/DX2                !
 ! D83   D(32,22,23,34)       -174.3734         estimate D2E/DX2                !
 ! D84   D(33,22,23,34)        -56.9031         estimate D2E/DX2                !
 ! D85   D(21,24,25,19)        -72.5987         estimate D2E/DX2                !
 ! D86   D(21,24,25,37)         47.5834         estimate D2E/DX2                !
 ! D87   D(35,24,25,19)         48.8029         estimate D2E/DX2                !
 ! D88   D(35,24,25,37)        168.985          estimate D2E/DX2                !
 ! D89   D(36,24,25,19)        166.2658         estimate D2E/DX2                !
 ! D90   D(36,24,25,37)        -73.552          estimate D2E/DX2                !
 ! D91   D(21,26,27,38)       -174.4727         estimate D2E/DX2                !
 ! D92   D(28,26,27,38)          6.3797         estimate D2E/DX2                !
 --------------------------------------------------------------------------------
 Number of steps in this run=    208 maximum allowed number of steps=    228.
 GradGradGradGradGradGradGradGradGradGradGradGradGradGradGradGradGradGrad

                    Distance matrix (angstroms):
                    1          2          3          4          5
     1  C    0.000000
     2  C    1.532521   0.000000
     3  C    2.516514   1.543537   0.000000
     4  O    3.786830   2.472379   1.407075   0.000000
     5  C    2.509118   1.542195   2.535344   2.917107   0.000000
     6  O    3.788216   2.474630   2.985111   2.656590   1.410332
     7  C    2.461497   1.528373   2.506845   3.047691   2.525428
     8  O    2.981224   2.375839   3.679792   4.151173   2.788492
     9  O    3.299648   2.411738   2.751775   3.084845   3.562356
    10  H    1.087080   2.162020   3.465901   4.612749   2.747388
    11  H    1.087600   2.163951   2.735702   4.085338   3.461757
    12  H    1.087458   2.163133   2.768106   4.043284   2.738217
    13  H    2.705633   2.164235   1.093644   2.002257   2.803999
    14  H    2.762301   2.162737   1.096659   2.066128   3.478219
    15  H    4.111455   2.707100   1.960604   0.973183   3.260843
    16  H    2.742371   2.172883   3.484703   3.931198   1.092460
    17  H    2.711391   2.154653   2.765436   3.234222   1.098517
    18  H    3.954851   2.530377   2.490504   1.815374   1.929574
    19  H    3.885325   3.267052   4.409789   4.732610   3.711148
    20  C    7.775939   6.476923   6.855641   6.109254   6.391087
    21  C    6.476761   5.262892   5.701742   5.165314   5.438357
    22  C    6.855667   5.702004   5.855054   5.327148   6.223225
    23  O    6.109161   5.165442   5.326864   5.099556   5.995735
    24  C    6.390500   5.437951   6.222618   5.995284   5.620267
    25  O    5.456166   4.748014   5.640536   5.718977   5.214645
    26  C    5.406496   4.042590   4.421296   3.799078   4.072589
    27  O    5.198420   3.904544   4.606998   4.122981   3.498164
    28  O    5.166019   3.714788   3.674770   2.848098   3.947400
    29  H    8.093818   6.696848   6.844697   5.914896   6.606210
    30  H    8.598507   7.369562   7.779683   7.085661   7.362713
    31  H    7.797426   6.512619   7.036870   6.312370   6.182573
    32  H    7.815136   6.725989   6.924948   6.417367   7.241845
    33  H    7.135199   5.868551   5.754762   5.014916   6.363803
    34  H    5.278452   4.297203   4.366811   4.184802   5.211985
    35  H    6.415116   5.482880   6.429061   6.213615   5.385446
    36  H    7.384944   6.486685   7.234165   6.988525   6.715911
    37  H    5.555454   4.837893   5.512322   5.576487   5.537031
    38  H    4.632111   3.288360   3.967464   3.494528   2.639884
                    6          7          8          9         10
     6  O    0.000000
     7  C    2.996403   0.000000
     8  O    3.259523   1.312718   0.000000
     9  O    3.781596   1.210845   2.226078   0.000000
    10  H    4.063666   2.682434   2.692883   3.674121   0.000000
    11  H    4.617117   2.696671   3.385708   3.182485   1.768378
    12  H    4.064776   3.421779   3.949602   4.245116   1.769032
    13  H    3.388706   3.450349   4.511627   3.816286   3.719447
    14  H    3.965093   2.681864   3.962735   2.531614   3.742337
    15  H    2.832154   2.752352   3.837093   2.525509   4.830501
    16  H    2.015980   2.750705   2.483636   3.924155   2.529521
    17  H    2.055488   3.462890   3.808336   4.445840   3.065795
    18  H    0.981917   3.131875   3.733787   3.665523   4.460272
    19  H    3.951534   1.922368   1.004563   2.355809   3.576088
    20  C    5.456930   5.405966   5.200060   5.162876   7.797310
    21  C    4.748568   4.042046   3.906005   3.711788   6.512373
    22  C    5.641314   4.421229   4.608318   3.672585   7.036769
    23  O    5.719542   3.799221   4.123935   2.846966   6.312229
    24  C    5.214784   4.071739   3.498809   3.945053   6.181886
    25  O    5.158562   3.269695   2.662030   3.136112   5.198677
    26  C    3.270469   3.107134   3.192648   3.013088   5.559692
    27  O    2.662082   3.190056   2.894733   3.568245   5.178910
    28  O    3.137478   3.016164   3.573136   2.702936   5.553005
    29  H    5.538715   5.763805   5.771921   5.435243   8.246793
    30  H    6.495857   6.185958   5.905946   5.859325   8.566752
    31  H    5.199521   5.559137   5.180667   5.549862   7.729874
    32  H    6.661836   5.380810   5.439255   4.626767   7.928909
    33  H    5.642785   4.778978   5.183950   3.974992   7.458496
    34  H    5.002434   3.024077   3.590858   1.979704   5.585553
    35  H    4.952762   4.272236   3.461742   4.440742   6.091077
    36  H    6.300022   5.073012   4.497886   4.827375   7.146800
    37  H    5.484204   3.312776   3.070139   2.822380   5.448387
    38  H    1.672427   2.966526   2.848952   3.550638   4.695381
                   11         12         13         14         15
    11  H    0.000000
    12  H    1.767201   0.000000
    13  H    3.007245   2.505953   0.000000
    14  H    2.530700   3.147848   1.779649   0.000000
    15  H    4.318524   4.584009   2.826201   2.314010   0.000000
    16  H    3.744994   3.076401   3.793705   4.308468   4.133927
    17  H    3.707626   2.483026   2.585218   3.770845   3.835101
    18  H    4.645540   4.181866   2.892906   3.467481   2.098384
    19  H    4.126077   4.897995   5.334155   4.558881   4.235597
    20  C    8.093724   8.598611   7.815349   7.134603   5.278823
    21  C    6.696612   7.369468   6.725894   5.867737   4.297404
    22  C    6.844631   7.779796   6.925001   5.754170   4.367239
    23  O    5.914711   7.085604   6.417035   5.014044   4.184921
    24  C    6.605603   7.362161   7.241394   6.362712   5.212009
    25  O    5.537938   6.495112   6.661143   5.641555   5.002370
    26  C    5.764268   6.186491   5.381061   4.778571   3.024301
    27  O    5.770143   5.904524   5.438365   5.182081   3.590460
    28  O    5.438556   5.862220   4.628731   3.977029   1.981290
    29  H    8.404009   8.849381   7.763469   7.131858   5.088482
    30  H    8.849168   9.474543   8.773646   7.972706   6.217544
    31  H    8.246819   8.566975   7.929320   7.458055   5.586053
    32  H    7.763172   8.773541   8.001113   6.777151   5.454684
    33  H    7.132351   7.973422   6.777788   5.666535   4.047593
    34  H    5.088131   6.217234   5.454209   4.046719   3.299977
    35  H    6.790354   7.325319   7.372053   6.729760   5.534601
    36  H    7.527239   8.383759   8.273445   7.295718   6.159581
    37  H    5.470756   6.611722   6.575661   5.344049   4.792675
    38  H    5.317998   5.207400   4.679285   4.701450   3.168966
                   16         17         18         19         20
    16  H    0.000000
    17  H    1.781171   0.000000
    18  H    2.811997   2.367506   0.000000
    19  H    3.393332   4.765123   4.382462   0.000000
    20  C    6.415788   7.385607   5.556083   4.632901   0.000000
    21  C    5.483417   6.487102   4.838267   3.289176   1.532541
    22  C    6.429746   7.234748   5.512964   3.968311   2.516442
    23  O    6.214221   6.988883   5.576841   3.495382   3.786809
    24  C    5.385586   6.715928   5.537018   2.640103   2.509095
    25  O    4.952788   6.299856   5.484035   1.672291   3.788216
    26  C    4.273311   5.073808   3.313206   2.968250   2.461287
    27  O    3.461131   4.497508   3.070091   2.847888   2.982229
    28  O    4.443278   4.829427   2.823284   3.554603   3.298349
    29  H    6.791021   7.527928   5.471430   5.318874   1.087600
    30  H    7.325973   8.384381   6.612324   5.208074   1.087461
    31  H    6.091841   7.147609   5.449106   4.696167   1.087085
    32  H    7.372523   8.273900   6.576285   4.679714   2.705545
    33  H    6.730874   7.296807   5.345189   4.702675   2.762102
    34  H    5.534632   6.159503   4.792640   3.169195   4.111082
    35  H    4.994240   6.457836   5.440534   2.735960   2.742440
    36  H    6.457916   7.812345   6.599307   3.571388   2.711310
    37  H    5.440692   6.599259   5.647990   2.177912   3.954846
    38  H    2.735904   3.571389   2.177811   3.140350   3.885840
                   21         22         23         24         25
    21  C    0.000000
    22  C    1.543526   0.000000
    23  O    2.472414   1.407052   0.000000
    24  C    1.542189   2.535324   2.917289   0.000000
    25  O    2.474636   2.985120   2.656826   1.410338   0.000000
    26  C    1.528373   2.506932   3.047945   2.525655   2.996861
    27  O    2.375758   3.679592   4.150351   2.787579   3.257943
    28  O    2.411830   2.752443   3.086756   3.563361   3.783770
    29  H    2.163927   2.735718   4.085297   3.461715   4.617095
    30  H    2.163176   2.767883   4.043181   2.738337   4.064850
    31  H    2.162076   3.465877   4.612806   2.747301   4.063659
    32  H    2.164175   1.093656   2.002231   2.803779   3.388471
    33  H    2.162727   1.096661   2.066120   3.478211   3.965205
    34  H    2.706617   1.960577   0.973204   3.260275   2.831574
    35  H    2.172924   3.484712   3.931370   1.092453   2.015956
    36  H    2.154636   2.765373   3.234399   1.098513   2.055467
    37  H    2.530394   2.490560   1.815685   1.929566   0.981870
    38  H    3.267055   4.409804   4.732291   3.710723   3.950798
                   26         27         28         29         30
    26  C    0.000000
    27  O    1.312793   0.000000
    28  O    1.210800   2.226091   0.000000
    29  H    2.696168   3.386884   3.180241   0.000000
    30  H    3.421642   3.950456   4.244050   1.767207   0.000000
    31  H    2.682388   2.694364   3.672872   1.768365   1.769036
    32  H    3.450378   4.511423   3.816750   3.007428   2.505661
    33  H    2.681939   3.963080   2.531651   2.530552   3.147373
    34  H    2.752110   3.835470   2.527736   4.318264   4.583614
    35  H    2.750930   2.482846   3.924850   3.744986   3.076677
    36  H    3.463035   3.807661   4.446613   3.707605   2.483092
    37  H    3.132330   3.732327   3.667967   4.645556   4.181868
    38  H    1.922528   1.004502   2.356010   4.126614   4.898476
                   31         32         33         34         35
    31  H    0.000000
    32  H    3.719297   0.000000
    33  H    3.742275   1.779666   0.000000
    34  H    4.830122   2.826229   2.314409   0.000000
    35  H    2.529526   3.793521   4.308501   4.133297   0.000000
    36  H    3.065575   2.584921   3.770722   3.834651   1.781160
    37  H    4.460263   2.892731   3.467657   2.097980   2.811955
    38  H    3.576891   5.334123   4.559301   4.234589   3.392935
                   36         37         38
    36  H    0.000000
    37  H    2.367476   0.000000
    38  H    4.764777   4.381793   0.000000
 Framework group  C1[X(C10H20O8)]
 Deg. of freedom   108
                         Standard orientation:                         
 ---------------------------------------------------------------------
 Center     Atomic      Atomic             Coordinates (Angstroms)
 Number     Number       Type             X           Y           Z
 ---------------------------------------------------------------------
      1          6           0       -3.594994    1.481270   -0.401669
      2          6           0       -2.607303    0.356180   -0.074164
      3          6           0       -2.918924   -0.222681    1.322373
      4          8           0       -2.157558   -1.360488    1.647299
      5          6           0       -2.709778   -0.744071   -1.149950
      6          8           0       -1.824089   -1.822762   -0.947422
      7          6           0       -1.209635    0.974560   -0.066589
      8          8           0       -0.752906    1.238925   -1.268561
      9          8           0       -0.598132    1.208736    0.951925
     10          1           0       -3.357097    1.916987   -1.368777
     11          1           0       -3.542441    2.259603    0.356164
     12          1           0       -4.609914    1.091869   -0.431172
     13          1           0       -3.962957   -0.547108    1.350682
     14          1           0       -2.775312    0.564861    2.071915
     15          1           0       -1.219706   -1.113154    1.726953
     16          1           0       -2.475692   -0.327658   -2.132432
     17          1           0       -3.742867   -1.117351   -1.161237
     18          1           0       -1.914181   -2.076379   -0.003111
     19          1           0        0.198636    1.559436   -1.237141
     20          6           0        3.595074   -1.479833   -0.405982
     21          6           0        2.607215   -0.355746   -0.075461
     22          6           0        2.919380    0.219880    1.322280
     23          8           0        2.157851    1.356626    1.650425
     24          6           0        2.709079    0.747033   -1.148702
     25          8           0        1.823324    1.825131   -0.943282
     26          6           0        1.209872   -0.974866   -0.068715
     27          8           0        0.751778   -1.234007   -1.271388
     28          8           0        0.599839   -1.214221    0.949423
     29          1           0        3.542757   -2.260054    0.349923
     30          1           0        4.609931   -1.090199   -0.434680
     31          1           0        3.357104   -1.913213   -1.374127
     32          1           0        3.963325    0.544615    1.350712
     33          1           0        2.776515   -0.569525    2.070005
     34          1           0        1.219969    1.108968    1.728961
     35          1           0        2.474664    0.332960   -2.132088
     36          1           0        3.742099    1.120509   -1.159512
     37          1           0        1.913739    2.076548    0.001537
     38          1           0       -0.199353   -1.555590   -1.240450
 ---------------------------------------------------------------------
 Rotational constants (GHZ):           0.7160561           0.3017118           0.2875412
   292 basis functions,   530 primitive gaussians,   310 cartesian basis functions
    72 alpha electrons       72 beta electrons
       nuclear repulsion energy      1654.9470754368 Hartrees.
 NAtoms=   38 NActive=   38 NUniq=   38 SFac= 1.00D+00 NAtFMM=   60 NAOKFM=F Big=F
 Nuclear repulsion after empirical dispersion term =     1654.9119155957 Hartrees.
   1 Symmetry operations used in ECPInt.
 ECPInt:  NShTT=   11026 NPrTT=   44250 LenC2=   10615 LenP2D=   29822.
 LDataN:  DoStor=T MaxTD1= 4 Len=   56
 ExpMin= 1.22D-01 ExpMax= 2.27D+03 ExpMxC= 3.41D+02 IAcc=3 IRadAn=         5 AccDes= 0.00D+00
 Harris functional with IExCor= 4639 and IRadAn=       5 diagonalized for initial guess.
 HarFok:  IExCor= 4639 AccDes= 0.00D+00 IRadAn=         5 IDoV= 1 UseB2=F ITyADJ=14
 ICtDFT=  3500011 ScaDFX=  1.000000  1.000000  1.000000  1.000000
 FoFCou: FMM=F IPFlag=           0 FMFlag=      100000 FMFlg1=           0
         NFxFlg=           0 DoJE=T BraDBF=F KetDBF=T FulRan=T
         wScrn=  0.000000 ICntrl=       500 IOpCl=  0 I1Cent=   200000004 NGrid=           0
         NMat0=    1 NMatS0=      1 NMatT0=    0 NMatD0=    1 NMtDS0=    0 NMtDT0=    0
 Petite list used in FoFCou.
     Minimum is close to point  3 DX= -1.39D-02 DF= -9.49D-05 DXR=  2.36D-02 DFR=  5.54D-04 which will be used.
     Accept linear search using points  2 and  3.
     Accept linear search using points  1 and  2.
     Accept linear search using points  2 and  3.
     Minimum is close to point  2 DX=  4.68D-04 DF= -3.87D-12 DXR=  4.68D-04 DFR=  2.17D-07 which will be used.
 SCF Done:  E(RwB97XD) =  -993.868295724     a.u. after    8 cycles
            Convg  =    0.4252D-09                    39 Fock formations.
              S**2 =  0.0000                  -V/T =  2.0081

 **********************************************************************

            Population analysis using the SCF Density.

 **********************************************************************

 Orbital symmetries:
       Occupied  (A) (A) (A) (A) (A) (A) (A) (A) (A) (A) (A) (A)
                 (A) (A) (A) (A) (A) (A) (A) (A) (A) (A) (A) (A)
                 (A) (A) (A) (A) (A) (A) (A) (A) (A) (A) (A) (A)
                 (A) (A) (A) (A) (A) (A) (A) (A) (A) (A) (A) (A)
                 (A) (A) (A) (A) (A) (A) (A) (A) (A) (A) (A) (A)
                 (A) (A) (A) (A) (A) (A) (A) (A) (A) (A) (A) (A)
       Virtual   (A) (A) (A) (A) (A) (A) (A) (A) (A) (A) (A) (A)
                 (A) (A) (A) (A) (A) (A) (A) (A) (A) (A) (A) (A)
                 (A) (A) (A) (A) (A) (A) (A) (A) (A) (A) (A) (A)
                 (A) (A) (A) (A) (A) (A) (A) (A) (A) (A) (A) (A)
                 (A) (A) (A) (A) (A) (A) (A) (A) (A) (A) (A) (A)
                 (A) (A) (A) (A) (A) (A) (A) (A) (A) (A) (A) (A)
                 (A) (A) (A) (A) (A) (A) (A) (A) (A) (A) (A) (A)
                 (A) (A) (A) (A) (A) (A) (A) (A) (A) (A) (A) (A)
                 (A) (A) (A) (A) (A) (A) (A) (A) (A) (A) (A) (A)
                 (A) (A) (A) (A) (A) (A) (A) (A) (A) (A) (A) (A)
                 (A) (A) (A) (A) (A) (A) (A) (A) (A) (A) (A) (A)
                 (A) (A) (A) (A) (A) (A) (A) (A) (A) (A) (A) (A)
                 (A) (A) (A) (A) (A) (A) (A) (A) (A) (A) (A) (A)
                 (A) (A) (A) (A) (A) (A) (A) (A) (A) (A) (A) (A)
                 (A) (A) (A) (A) (A) (A) (A) (A) (A) (A) (A) (A)
                 (A) (A) (A) (A) (A) (A) (A) (A) (A) (A) (A) (A)
                 (A) (A) (A) (A) (A) (A) (A) (A) (A) (A) (A) (A)
                 (A) (A) (A) (A) (A) (A) (A) (A) (A) (A) (A) (A)
                 (A) (A) (A) (A)
 The electronic state is 1-A.
 Alpha  occ. eigenvalues --  -19.29261 -19.29257 -19.27144 -19.27143 -19.26184
 Alpha  occ. eigenvalues --  -19.26179 -19.25439 -19.25430 -10.43734 -10.43726
 Alpha  occ. eigenvalues --  -10.35216 -10.35213 -10.34685 -10.34682 -10.32853
 Alpha  occ. eigenvalues --  -10.32850 -10.30206 -10.30204  -1.21149  -1.20260
 Alpha  occ. eigenvalues --   -1.14314  -1.14003  -1.12401  -1.11618  -1.10774
 Alpha  occ. eigenvalues --   -1.10629  -0.92674  -0.92357  -0.78794  -0.78653
 Alpha  occ. eigenvalues --   -0.78110  -0.77827  -0.76444  -0.75073  -0.68425
 Alpha  occ. eigenvalues --   -0.68186  -0.64527  -0.64003  -0.61197  -0.60599
 Alpha  occ. eigenvalues --   -0.59016  -0.58575  -0.58283  -0.56471  -0.56334
 Alpha  occ. eigenvalues --   -0.55273  -0.55240  -0.54344  -0.52583  -0.52358
 Alpha  occ. eigenvalues --   -0.51420  -0.50974  -0.50573  -0.50510  -0.49803
 Alpha  occ. eigenvalues --   -0.49663  -0.48272  -0.48161  -0.46031  -0.46001
 Alpha  occ. eigenvalues --   -0.44330  -0.43487  -0.42815  -0.42226  -0.41418
 Alpha  occ. eigenvalues --   -0.39478  -0.39024  -0.38316  -0.37143  -0.36020
 Alpha  occ. eigenvalues --   -0.35809  -0.35467
 Alpha virt. eigenvalues --    0.07450   0.07711   0.13375   0.13570   0.15647
 Alpha virt. eigenvalues --    0.15754   0.16608   0.17596   0.18329   0.19130
 Alpha virt. eigenvalues --    0.21226   0.21302   0.21857   0.22078   0.22879
 Alpha virt. eigenvalues --    0.23210   0.23566   0.23773   0.23786   0.24028
 Alpha virt. eigenvalues --    0.25580   0.27252   0.28096   0.28686   0.29725
 Alpha virt. eigenvalues --    0.30001   0.30546   0.30560   0.31017   0.31772
 Alpha virt. eigenvalues --    0.32302   0.32936   0.34590   0.34645   0.38687
 Alpha virt. eigenvalues --    0.42219   0.45495   0.45512   0.51864   0.51976
 Alpha virt. eigenvalues --    0.52422   0.53313   0.53731   0.54407   0.55000
 Alpha virt. eigenvalues --    0.56182   0.56674   0.58330   0.60713   0.61897
 Alpha virt. eigenvalues --    0.62396   0.63430   0.65068   0.65765   0.66369
 Alpha virt. eigenvalues --    0.67094   0.67271   0.67679   0.68799   0.69295
 Alpha virt. eigenvalues --    0.69854   0.72268   0.72368   0.73063   0.73155
 Alpha virt. eigenvalues --    0.74317   0.74347   0.75236   0.76076   0.76432
 Alpha virt. eigenvalues --    0.76525   0.77164   0.78747   0.78990   0.79337
 Alpha virt. eigenvalues --    0.79867   0.79928   0.80957   0.81311   0.82024
 Alpha virt. eigenvalues --    0.82298   0.83267   0.83556   0.83776   0.84440
 Alpha virt. eigenvalues --    0.87224   0.87360   0.91215   0.96355   0.97653
 Alpha virt. eigenvalues --    0.98019   1.01410   1.01967   1.06126   1.06897
 Alpha virt. eigenvalues --    1.07531   1.10045   1.10567   1.13193   1.15068
 Alpha virt. eigenvalues --    1.15306   1.16863   1.17094   1.19182   1.20992
 Alpha virt. eigenvalues --    1.22651   1.23858   1.26498   1.27252   1.30341
 Alpha virt. eigenvalues --    1.30718   1.32562   1.34459   1.36946   1.37017
 Alpha virt. eigenvalues --    1.40179   1.42814   1.44235   1.44572   1.46477
 Alpha virt. eigenvalues --    1.48737   1.52206   1.52583   1.53006   1.54112
 Alpha virt. eigenvalues --    1.56515   1.57509   1.63890   1.64677   1.65864
 Alpha virt. eigenvalues --    1.69156   1.71103   1.73857   1.73954   1.78771
 Alpha virt. eigenvalues --    1.80087   1.80277   1.81382   1.82421   1.84349
 Alpha virt. eigenvalues --    1.88216   1.88581   1.90419   1.91620   1.92739
 Alpha virt. eigenvalues --    1.93687   1.97279   1.97579   2.04443   2.04709
 Alpha virt. eigenvalues --    2.05994   2.07202   2.08769   2.09521   2.12718
 Alpha virt. eigenvalues --    2.12922   2.14555   2.15966   2.18540   2.18812
 Alpha virt. eigenvalues --    2.19320   2.19503   2.21540   2.21951   2.24765
 Alpha virt. eigenvalues --    2.25068   2.28117   2.28414   2.33192   2.34052
 Alpha virt. eigenvalues --    2.49668   2.50119   2.52409   2.52421   2.62891
 Alpha virt. eigenvalues --    2.63482   2.63818   2.65220   2.65500   2.65848
 Alpha virt. eigenvalues --    2.67869   2.68895   2.71764   2.73239   2.74007
 Alpha virt. eigenvalues --    2.74028   2.77089   2.77201   2.80211   2.80417
 Alpha virt. eigenvalues --    2.90528   2.90860   2.91861   2.92324   2.95465
 Alpha virt. eigenvalues --    2.99915   3.02756   3.03881   3.04110   3.05487
 Alpha virt. eigenvalues --    3.06882   3.07109   3.09002   3.10617   3.11360
 Alpha virt. eigenvalues --    3.12121   3.20736   3.20836   3.27233   3.29923
 Alpha virt. eigenvalues --    3.41623   3.43320   3.46533   3.46705   3.47919
 Alpha virt. eigenvalues --    3.49200   3.69873   3.70049   3.75873   3.77433
          Condensed to atoms (all electrons):
 Mulliken charges:
               1
     1  C   -0.260616
     2  C   -0.416065
     3  C    0.101587
     4  O   -0.525071
     5  C    0.101386
     6  O   -0.532289
     7  C    0.264724
     8  O   -0.380291
     9  O   -0.280699
    10  H    0.143335
    11  H    0.135119
    12  H    0.128310
    13  H    0.104490
    14  H    0.117309
    15  H    0.355986
    16  H    0.132217
    17  H    0.103534
    18  H    0.343063
    19  H    0.364057
    20  C   -0.260638
    21  C   -0.416159
    22  C    0.101521
    23  O   -0.525028
    24  C    0.101540
    25  O   -0.532294
    26  C    0.264701
    27  O   -0.380404
    28  O   -0.280526
    29  H    0.135167
    30  H    0.128320
    31  H    0.143284
    32  H    0.104462
    33  H    0.117347
    34  H    0.355902
    35  H    0.132201
    36  H    0.103500
    37  H    0.343004
    38  H    0.364014
 Sum of Mulliken charges =   0.00000
 Mulliken charges with hydrogens summed into heavy atoms:
               1
     1  C    0.146149
     2  C   -0.416065
     3  C    0.323387
     4  O   -0.169085
     5  C    0.337136
     6  O   -0.189226
     7  C    0.264724
     8  O   -0.016233
     9  O   -0.280699
    20  C    0.146133
    21  C   -0.416159
    22  C    0.323330
    23  O   -0.169126
    24  C    0.337241
    25  O   -0.189290
    26  C    0.264701
    27  O   -0.016391
    28  O   -0.280526
 Electronic spatial extent (au):  <R**2>=           4400.3053
 Charge=              0.0000 electrons
 Dipole moment (field-independent basis, Debye):
    X=             -0.0026    Y=              0.0051    Z=             -1.0988  Tot=              1.0988
 Evaluate density.
 Using the total density.
 Monte-Carlo method of calculating molar volume:
 based on  0.001 e/bohr**3 density envelope.
 Number of points per bohr**3 =  100 CutOff= 1.00D-04
 Using the SCF density.
 There are      2062 points.  Will hold      2062 in memory.
 LenV=  1047837549 MDV=  1048576000.
 Box volume = 8770.199 fraction occupied=0.225
 Integrated density= 1.2538727577427672D+02 error=-1.8612724225723284D+01
 Molar volume = 1973.508 bohr**3/mol (176.114 cm**3/mol)
 Recommended a0 for SCRF calculation =  5.03 angstrom (  9.51 bohr)
   1 Symmetry operations used in ECPInt.
 ECPInt:  NShTT=   11026 NPrTT=   44250 LenC2=   10615 LenP2D=   29822.
 LDataN:  DoStor=T MaxTD1= 5 Len=  102
 Calling FoFJK, ICntrl=      2127 FMM=F ISym2X=0 I1Cent= 0 IOpClX= 0 NMat=1 NMatS=1 NMatT=0.

 GradGradGradGradGradGradGradGradGradGradGradGradGradGradGradGradGradGrad
 FormGI is forming the generalized inverse of G from B-inverse, IUseBI=4.
 Internal  Forces:  Max     0.011119644 RMS     0.003211470
 Step number   1 out of a maximum of  208
 All quantities printed in internal units (Hartrees-Bohrs-Radians)
 Mixed Optimization -- RFO/linear search
 Second derivative matrix not updated -- first step.
 ITU=  0
     Eigenvalues ---    0.00230   0.00230   0.00237   0.00311   0.00335
     Eigenvalues ---    0.00336   0.00355   0.00467   0.00612   0.00915
     Eigenvalues ---    0.01157   0.01337   0.01443   0.01598   0.01598
     Eigenvalues ---    0.02104   0.02475   0.03497   0.03634   0.04115
     Eigenvalues ---    0.04301   0.04457   0.04479   0.04683   0.04683
     Eigenvalues ---    0.04968   0.05120   0.05329   0.05368   0.05504
     Eigenvalues ---    0.05659   0.05659   0.05662   0.05662   0.05809
     Eigenvalues ---    0.05809   0.06178   0.07501   0.07790   0.08107
     Eigenvalues ---    0.08836   0.09801   0.09812   0.11087   0.11199
     Eigenvalues ---    0.11805   0.11805   0.11865   0.13133   0.13226
     Eigenvalues ---    0.14059   0.14059   0.14193   0.14781   0.15226
     Eigenvalues ---    0.15891   0.16000   0.16000   0.16000   0.16000
     Eigenvalues ---    0.16000   0.16000   0.16000   0.16000   0.16626
     Eigenvalues ---    0.20412   0.20700   0.22116   0.22116   0.24239
     Eigenvalues ---    0.24998   0.24998   0.27765   0.28035   0.28208
     Eigenvalues ---    0.28209   0.28774   0.29190   0.29192   0.29574
     Eigenvalues ---    0.33847   0.33847   0.34054   0.34054   0.34394
     Eigenvalues ---    0.34395   0.34530   0.34531   0.35091   0.35091
     Eigenvalues ---    0.35108   0.35108   0.35152   0.35152   0.43140
     Eigenvalues ---    0.43921   0.44468   0.44471   0.45120   0.46894
     Eigenvalues ---    0.51014   0.51023   0.52728   0.52732   0.61982
     Eigenvalues ---    0.63367   0.99557   0.99578
 Linear search not attempted -- first point.
 Maximum step size (   0.300) exceeded in Quadratic search.
    -- Step size scaled by   0.828
 Iteration  1 RMS(Cart)=  0.22926385 RMS(Int)=  0.00780200
 Iteration  2 RMS(Cart)=  0.02102139 RMS(Int)=  0.00154828
 Iteration  3 RMS(Cart)=  0.00036397 RMS(Int)=  0.00154533
 Iteration  4 RMS(Cart)=  0.00000190 RMS(Int)=  0.00154533
 Iteration  5 RMS(Cart)=  0.00000002 RMS(Int)=  0.00154533
 Variable       Old X    -DE/DX   Delta X   Delta X   Delta X     New X
                                 (Linear)    (Quad)   (Total)
    R1        2.89604   0.00409   0.00000   0.01099   0.01099   2.90704
    R2        2.05428   0.01019   0.00000   0.02295   0.02295   2.07723
    R3        2.05527   0.01048   0.00000   0.02366   0.02366   2.07893
    R4        2.05500   0.01112   0.00000   0.02508   0.02508   2.08008
    R5        2.91686  -0.00326   0.00000  -0.00904  -0.00904   2.90782
    R6        2.91433   0.00199   0.00000   0.00664   0.00810   2.92242
    R7        2.88821  -0.00095   0.00000  -0.00251  -0.00044   2.88776
    R8        2.65899   0.00313   0.00000   0.00562   0.00562   2.66460
    R9        2.06669   0.00610   0.00000   0.01404   0.01404   2.08073
   R10        2.07238   0.00536   0.00000   0.01244   0.01244   2.08483
   R11        1.83905   0.00375   0.00000   0.00571   0.00571   1.84476
   R12        2.66514   0.00731   0.00000   0.01306   0.01160   2.67675
   R13        2.06445   0.00513   0.00000   0.01176   0.01176   2.07621
   R14        2.07590   0.00607   0.00000   0.01417   0.01417   2.09007
   R15        1.85555   0.00189   0.00000   0.00298   0.00298   1.85853
   R16        3.16043  -0.00068   0.00000  -0.00501  -0.00679   3.15363
   R17        2.48068   0.00156   0.00000   0.00133   0.00061   2.48129
   R18        2.28817   0.00610   0.00000   0.00498   0.00484   2.29300
   R19        1.89835   0.00101   0.00000   0.00177   0.00425   1.90260
   R20        3.16017  -0.00080   0.00000  -0.00605  -0.00392   3.15626
   R21        2.89608   0.00409   0.00000   0.01099   0.01099   2.90708
   R22        2.05527   0.01048   0.00000   0.02366   0.02366   2.07893
   R23        2.05500   0.01112   0.00000   0.02508   0.02508   2.08009
   R24        2.05429   0.01019   0.00000   0.02295   0.02295   2.07725
   R25        2.91684  -0.00325   0.00000  -0.00904  -0.00904   2.90780
   R26        2.91431   0.00214   0.00000   0.00702   0.00811   2.92243
   R27        2.88821  -0.00078   0.00000  -0.00206  -0.00377   2.88444
   R28        2.65894   0.00313   0.00000   0.00563   0.00563   2.66457
   R29        2.06671   0.00610   0.00000   0.01403   0.01403   2.08074
   R30        2.07239   0.00536   0.00000   0.01245   0.01245   2.08483
   R31        1.83909   0.00373   0.00000   0.00569   0.00569   1.84478
   R32        2.66515   0.00717   0.00000   0.01291   0.01341   2.67857
   R33        2.06444   0.00513   0.00000   0.01175   0.01175   2.07619
   R34        2.07589   0.00607   0.00000   0.01418   0.01418   2.09007
   R35        1.85546   0.00192   0.00000   0.00302   0.00302   1.85848
   R36        2.48082   0.00160   0.00000   0.00138  -0.00129   2.47953
   R37        2.28808   0.00612   0.00000   0.00500   0.00500   2.29308
   R38        1.89823   0.00118   0.00000   0.00201   0.00040   1.89863
    A1        1.92126   0.00186   0.00000   0.00926   0.00923   1.93050
    A2        1.92339   0.00133   0.00000   0.00613   0.00611   1.92950
    A3        1.92241   0.00070   0.00000   0.00293   0.00292   1.92532
    A4        1.89914  -0.00150   0.00000  -0.00639  -0.00642   1.89272
    A5        1.90036  -0.00127   0.00000  -0.00572  -0.00574   1.89462
    A6        1.89680  -0.00121   0.00000  -0.00666  -0.00667   1.89013
    A7        1.91618   0.00105   0.00000   0.00203   0.00278   1.91896
    A8        1.90908  -0.00158   0.00000  -0.00892  -0.01083   1.89825
    A9        1.86857   0.00116   0.00000   0.00733   0.00754   1.87612
   A10        1.92854   0.00012   0.00000  -0.00394  -0.00353   1.92502
   A11        1.90908  -0.00232   0.00000  -0.01675  -0.01843   1.89066
   A12        1.93144   0.00161   0.00000   0.02057   0.02276   1.95420
   A13        1.98553  -0.00461   0.00000  -0.01564  -0.01564   1.96989
   A14        1.90435  -0.00023   0.00000  -0.00414  -0.00412   1.90022
   A15        1.89931   0.00179   0.00000   0.00670   0.00673   1.90604
   A16        1.84491   0.00254   0.00000   0.01128   0.01124   1.85615
   A17        1.93052   0.00147   0.00000   0.00617   0.00618   1.93670
   A18        1.89690  -0.00090   0.00000  -0.00432  -0.00434   1.89256
   A19        1.91223   0.00119   0.00000   0.00558   0.00558   1.91781
   A20        1.98643   0.00650   0.00000   0.03332   0.03492   2.02134
   A21        1.91895  -0.00170   0.00000   0.00087   0.00072   1.91967
   A22        1.88818  -0.00212   0.00000  -0.01886  -0.02001   1.86817
   A23        1.86097  -0.00086   0.00000   0.00712   0.00509   1.86606
   A24        1.90940  -0.00209   0.00000  -0.01252  -0.01166   1.89774
   A25        1.89842   0.00011   0.00000  -0.01132  -0.01116   1.88726
   A26        1.85254   0.00189   0.00000   0.02060   0.01977   1.87232
   A27        2.05189   0.00696   0.00000   0.05370   0.04501   2.09689
   A28        1.87433  -0.00294   0.00000   0.00125   0.00310   1.87743
   A29        1.97699   0.00076   0.00000   0.00470   0.00748   1.98447
   A30        2.14629  -0.00216   0.00000  -0.00795  -0.00950   2.13679
   A31        2.15981   0.00141   0.00000   0.00332   0.00209   2.16189
   A32        1.94462  -0.00201   0.00000  -0.01228  -0.01186   1.93276
   A33        1.92333   0.00133   0.00000   0.00615   0.00613   1.92947
   A34        1.92244   0.00070   0.00000   0.00292   0.00291   1.92535
   A35        1.92131   0.00186   0.00000   0.00923   0.00920   1.93051
   A36        1.89681  -0.00121   0.00000  -0.00666  -0.00666   1.89015
   A37        1.89912  -0.00150   0.00000  -0.00637  -0.00640   1.89272
   A38        1.90036  -0.00127   0.00000  -0.00573  -0.00575   1.89461
   A39        1.91609   0.00115   0.00000   0.00194   0.00204   1.91813
   A40        1.90904  -0.00182   0.00000  -0.00965  -0.01022   1.89882
   A41        1.86833   0.00119   0.00000   0.00691   0.00784   1.87617
   A42        1.92854   0.00017   0.00000  -0.00343  -0.00314   1.92540
   A43        1.90919  -0.00255   0.00000  -0.01654  -0.01769   1.89150
   A44        1.93171   0.00189   0.00000   0.02106   0.02144   1.95314
   A45        1.98561  -0.00462   0.00000  -0.01568  -0.01567   1.96994
   A46        1.90427  -0.00022   0.00000  -0.00412  -0.00410   1.90016
   A47        1.89930   0.00179   0.00000   0.00670   0.00673   1.90603
   A48        1.84489   0.00254   0.00000   0.01129   0.01125   1.85614
   A49        1.93053   0.00147   0.00000   0.00618   0.00619   1.93672
   A50        1.89691  -0.00091   0.00000  -0.00432  -0.00434   1.89257
   A51        1.91220   0.00118   0.00000   0.00554   0.00554   1.91774
   A52        1.98643   0.00689   0.00000   0.03387   0.03404   2.02048
   A53        1.91903  -0.00167   0.00000   0.00043   0.00171   1.92073
   A54        1.88817  -0.00237   0.00000  -0.01869  -0.02050   1.86767
   A55        1.86094  -0.00114   0.00000   0.00691   0.00513   1.86607
   A56        1.90937  -0.00205   0.00000  -0.01254  -0.01109   1.89828
   A57        1.89842   0.00017   0.00000  -0.01137  -0.01137   1.88705
   A58        2.05231   0.00627   0.00000   0.05215   0.05266   2.10497
   A59        1.87469  -0.00261   0.00000   0.00096   0.00115   1.87584
   A60        1.85257   0.00201   0.00000   0.02012   0.01719   1.86976
   A61        1.97681   0.00118   0.00000   0.00376   0.00418   1.98098
   A62        2.14650  -0.00237   0.00000  -0.00747  -0.00766   2.13884
   A63        2.15978   0.00120   0.00000   0.00374   0.00353   2.16331
   A64        1.94484  -0.00231   0.00000  -0.00894  -0.01315   1.93169
   A65        2.98605   0.00365   0.00000   0.19504   0.19881   3.18486
   A66        2.93614  -0.00305   0.00000   0.04102   0.03491   2.97106
   A67        2.98376  -0.00542   0.00000  -0.06440  -0.05785   2.92591
   A68        3.06862   0.00507   0.00000   0.15717   0.15926   3.22787
    D1        3.10543  -0.00040   0.00000  -0.00074  -0.00118   3.10425
    D2       -1.05884  -0.00059   0.00000  -0.01001  -0.01062  -1.06946
    D3        1.03471   0.00113   0.00000   0.01392   0.01498   1.04969
    D4        1.01060  -0.00056   0.00000  -0.00261  -0.00305   1.00755
    D5        3.12952  -0.00075   0.00000  -0.01188  -0.01250   3.11702
    D6       -1.06012   0.00097   0.00000   0.01206   0.01310  -1.04702
    D7       -1.08204  -0.00034   0.00000  -0.00009  -0.00053  -1.08257
    D8        1.03687  -0.00053   0.00000  -0.00936  -0.00997   1.02689
    D9        3.13042   0.00119   0.00000   0.01457   0.01563  -3.13714
   D10        3.02483  -0.00045   0.00000   0.00122   0.00080   3.02564
   D11        0.96975  -0.00062   0.00000  -0.00041  -0.00086   0.96889
   D12       -1.09749  -0.00043   0.00000   0.00330   0.00286  -1.09462
   D13        0.91764   0.00076   0.00000   0.01353   0.01471   0.93236
   D14       -1.13744   0.00059   0.00000   0.01190   0.01305  -1.12439
   D15        3.07851   0.00078   0.00000   0.01561   0.01677   3.09528
   D16       -1.21279   0.00021   0.00000   0.00147   0.00077  -1.21203
   D17        3.01531   0.00004   0.00000  -0.00015  -0.00090   3.01441
   D18        0.94807   0.00022   0.00000   0.00355   0.00283   0.95090
   D19        3.12847   0.00131   0.00000   0.03405   0.03276  -3.12196
   D20        1.04227  -0.00071   0.00000   0.00207   0.00140   1.04366
   D21       -1.02868   0.00139   0.00000   0.02644   0.02598  -1.00270
   D22       -1.04330   0.00167   0.00000   0.02830   0.02708  -1.01622
   D23       -3.12950  -0.00035   0.00000  -0.00368  -0.00429  -3.13379
   D24        1.08274   0.00175   0.00000   0.02069   0.02029   1.10304
   D25        1.07394  -0.00010   0.00000   0.01828   0.01659   1.09054
   D26       -1.01226  -0.00212   0.00000  -0.01369  -0.01477  -1.02703
   D27       -3.08320  -0.00002   0.00000   0.01067   0.00981  -3.07339
   D28       -1.29965  -0.00076   0.00000  -0.04569  -0.04729  -1.34694
   D29        1.82744   0.00006   0.00000  -0.04007  -0.04107   1.78637
   D30        2.90821  -0.00141   0.00000  -0.04318  -0.04482   2.86339
   D31       -0.24788  -0.00059   0.00000  -0.03756  -0.03860  -0.28649
   D32        0.77951  -0.00107   0.00000  -0.04050  -0.04270   0.73681
   D33       -2.37658  -0.00025   0.00000  -0.03487  -0.03648  -2.41306
   D34        1.15195   0.00025   0.00000  -0.00218  -0.00215   1.14980
   D35       -3.04214  -0.00098   0.00000  -0.00875  -0.00881  -3.05095
   D36       -0.99190   0.00015   0.00000  -0.00428  -0.00425  -0.99615
   D37        0.83051   0.00051   0.00000  -0.00778  -0.00892   0.82159
   D38       -1.26631  -0.00158   0.00000  -0.05954  -0.06065  -1.32696
   D39        2.94929   0.00179   0.00000   0.01894   0.01833   2.96763
   D40        0.85247  -0.00029   0.00000  -0.03283  -0.03340   0.81908
   D41       -1.28374   0.00036   0.00000   0.00300   0.00197  -1.28177
   D42        2.90263  -0.00172   0.00000  -0.04877  -0.04976   2.85286
   D43        1.66956   0.00599   0.00000   0.18915   0.18742   1.85698
   D44       -0.36153   0.00161   0.00000   0.10361   0.10122  -0.26031
   D45       -3.04462   0.00746   0.00000   0.09953   0.09615  -2.94847
   D46        0.11160   0.00666   0.00000   0.09396   0.08994   0.20154
   D47        1.66763   0.00582   0.00000   0.18625   0.18150   1.84912
   D48       -0.36397   0.00153   0.00000   0.10048   0.09687  -0.26710
   D49        1.01094  -0.00062   0.00000  -0.00270  -0.00301   1.00793
   D50        3.12977  -0.00083   0.00000  -0.01185  -0.01205   3.11772
   D51       -1.05972   0.00111   0.00000   0.01202   0.01250  -1.04722
   D52       -1.08170  -0.00040   0.00000  -0.00020  -0.00050  -1.08220
   D53        1.03712  -0.00062   0.00000  -0.00935  -0.00954   1.02759
   D54        3.13082   0.00133   0.00000   0.01451   0.01501  -3.13735
   D55        3.10573  -0.00045   0.00000  -0.00082  -0.00111   3.10462
   D56       -1.05863  -0.00067   0.00000  -0.00997  -0.01015  -1.06878
   D57        1.03507   0.00128   0.00000   0.01390   0.01439   1.04946
   D58        3.02497  -0.00050   0.00000   0.00111   0.00081   3.02578
   D59        0.96993  -0.00067   0.00000  -0.00053  -0.00086   0.96907
   D60       -1.09727  -0.00049   0.00000   0.00317   0.00285  -1.09442
   D61        0.91789   0.00090   0.00000   0.01406   0.01418   0.93208
   D62       -1.13715   0.00073   0.00000   0.01242   0.01251  -1.12464
   D63        3.07883   0.00092   0.00000   0.01612   0.01622   3.09506
   D64       -1.21294   0.00012   0.00000   0.00092   0.00115  -1.21179
   D65        3.01520  -0.00005   0.00000  -0.00071  -0.00052   3.01468
   D66        0.94799   0.00013   0.00000   0.00298   0.00319   0.95119
   D67        3.12858   0.00114   0.00000   0.03381   0.03296  -3.12164
   D68        1.04237  -0.00081   0.00000   0.00205   0.00139   1.04376
   D69       -1.02861   0.00135   0.00000   0.02664   0.02598  -1.00263
   D70       -1.04332   0.00150   0.00000   0.02780   0.02700  -1.01632
   D71       -3.12954  -0.00045   0.00000  -0.00396  -0.00457  -3.13411
   D72        1.08267   0.00171   0.00000   0.02063   0.02002   1.10269
   D73        1.07423  -0.00034   0.00000   0.01871   0.01683   1.09106
   D74       -1.01199  -0.00228   0.00000  -0.01304  -0.01474  -1.02673
   D75       -3.08296  -0.00012   0.00000   0.01154   0.00985  -3.07311
   D76       -1.30205  -0.00088   0.00000  -0.04767  -0.04943  -1.35148
   D77        1.82480  -0.00013   0.00000  -0.04535  -0.04504   1.77976
   D78        2.90601  -0.00154   0.00000  -0.04492  -0.04665   2.85935
   D79       -0.25033  -0.00079   0.00000  -0.04260  -0.04226  -0.29260
   D80        0.77707  -0.00129   0.00000  -0.04334  -0.04467   0.73240
   D81       -2.37927  -0.00054   0.00000  -0.04101  -0.04028  -2.41955
   D82        1.15077   0.00026   0.00000  -0.00199  -0.00196   1.14881
   D83       -3.04339  -0.00098   0.00000  -0.00855  -0.00861  -3.05200
   D84       -0.99315   0.00016   0.00000  -0.00406  -0.00403  -0.99718
   D85       -1.26709  -0.00181   0.00000  -0.05749  -0.06173  -1.32882
   D86        0.83049   0.00037   0.00000  -0.00738  -0.00919   0.82130
   D87        0.85177  -0.00044   0.00000  -0.03114  -0.03375   0.81802
   D88        2.94935   0.00174   0.00000   0.01896   0.01880   2.96814
   D89        2.90189  -0.00194   0.00000  -0.04727  -0.05005   2.85184
   D90       -1.28373   0.00024   0.00000   0.00283   0.00250  -1.28123
   D91       -3.04512   0.00731   0.00000   0.09570   0.09919  -2.94593
   D92        0.11135   0.00659   0.00000   0.09347   0.09484   0.20618
         Item               Value     Threshold  Converged?
 Maximum Force            0.011120     0.000015     NO 
 RMS     Force            0.003211     0.000010     NO 
 Maximum Displacement     0.726998     0.000060     NO 
 RMS     Displacement     0.236476     0.000040     NO 
 GradGradGradGradGradGradGradGradGradGradGradGradGradGradGradGradGradGrad

                    Distance matrix (angstroms):
                    1          2          3          4          5
     1  C    0.000000
     2  C    1.538337   0.000000
     3  C    2.519807   1.538750   0.000000
     4  O    3.785670   2.458094   1.410047   0.000000
     5  C    2.507668   1.546479   2.531831   2.902819   0.000000
     6  O    3.811418   2.511129   3.007433   2.662086   1.416473
     7  C    2.472848   1.528139   2.486303   3.009852   2.548504
     8  O    3.026080   2.381686   3.661557   4.091476   2.808677
     9  O    3.289480   2.407543   2.720720   3.056269   3.591770
    10  H    1.099225   2.182934   3.482631   4.621607   2.761141
    11  H    1.100121   2.182885   2.749973   4.099418   3.476631
    12  H    1.100733   2.180308   2.781580   4.054938   2.737037
    13  H    2.706620   2.162479   1.101075   2.018585   2.792136
    14  H    2.771909   2.168392   1.103243   2.078116   3.486083
    15  H    4.111476   2.695307   1.969135   0.976206   3.253810
    16  H    2.741470   2.181821   3.487115   3.920761   1.098683
    17  H    2.679042   2.148775   2.757805   3.239990   1.106018
    18  H    4.003487   2.590943   2.542177   1.849273   1.949634
    19  H    3.948738   3.262878   4.366579   4.622573   3.708735
    20  C    8.086152   6.805928   7.321677   6.571658   6.513788
    21  C    6.807765   5.566393   6.088723   5.479783   5.538280
    22  C    7.326100   6.090815   6.340089   5.680987   6.381745
    23  O    6.579543   5.485185   5.684858   5.246201   6.101924
    24  C    6.518717   5.540858   6.382494   6.099107   5.578400
    25  O    5.592122   4.808209   5.706126   5.690072   5.177835
    26  C    5.824097   4.439824   4.855997   4.134971   4.264143
    27  O    5.362393   4.073410   4.790836   4.259002   3.523471
    28  O    5.838121   4.351758   4.369319   3.400922   4.331312
    29  H    8.530258   7.146948   7.457132   6.528945   6.829417
    30  H    8.880985   7.670998   8.230220   7.535632   7.462547
    31  H    8.017416   6.782871   7.438991   6.743085   6.265111
    32  H    8.234889   7.072567   7.385748   6.771611   7.370365
    33  H    7.732469   6.385372   6.404655   5.538304   6.623200
    34  H    5.829088   4.671963   4.749016   4.292348   5.352577
    35  H    6.422015   5.506379   6.516842   6.289748   5.284305
    36  H    7.514880   6.596453   7.420422   7.127595   6.676374
    37  H    5.825448   4.995064   5.669010   5.593989   5.571788
    38  H    4.755481   3.409317   4.059105   3.526146   2.676839
                    6          7          8          9         10
     6  O    0.000000
     7  C    3.073182   0.000000
     8  O    3.304704   1.313042   0.000000
     9  O    3.886971   1.213404   2.229837   0.000000
    10  H    4.101604   2.715895   2.766600   3.689445   0.000000
    11  H    4.665643   2.714128   3.438690   3.166733   1.784317
    12  H    4.071106   3.444166   4.005857   4.244201   1.786032
    13  H    3.382567   3.439606   4.508631   3.790989   3.733410
    14  H    4.008708   2.666214   3.955326   2.487637   3.765198
    15  H    2.865996   2.708733   3.758494   2.502203   4.838425
    16  H    2.029585   2.789077   2.528708   3.970612   2.537107
    17  H    2.058137   3.475822   3.832376   4.457891   3.049693
    18  H    0.983492   3.218438   3.778841   3.782667   4.521842
    19  H    3.956242   1.916774   1.006813   2.354858   3.681621
    20  C    5.584501   5.825863   5.367873   5.839028   8.018483
    21  C    4.803318   4.442233   4.077989   4.353583   6.785352
    22  C    5.703081   4.859702   4.794578   4.372782   7.443865
    23  O    5.690703   4.140353   4.261712   3.407030   6.750908
    24  C    5.174789   4.268066   3.527390   4.336307   6.270639
    25  O    5.101846   3.377578   2.663697   3.359410   5.334223
    26  C    3.373090   3.613023   3.489465   3.699423   5.939076
    27  O    2.662246   3.485280   3.076574   3.988112   5.328384
    28  O    3.353110   3.701685   3.994281   3.563269   6.171626
    29  H    5.744956   6.282712   6.014922   6.215759   8.583623
    30  H    6.613748   6.569888   6.032621   6.507040   8.751365
    31  H    5.326060   5.940606   5.334681   6.172252   7.861023
    32  H    6.721775   5.764803   5.572797   5.260902   8.275613
    33  H    5.781365   5.321740   5.445458   4.786439   7.975203
    34  H    4.963746   3.427029   3.787905   2.630440   6.113303
    35  H    4.900647   4.410510   3.454127   4.763854   6.051848
    36  H    6.271947   5.264573   4.508774   5.224286   7.223095
    37  H    5.459707   3.495979   3.127557   3.125859   5.716396
    38  H    1.668832   3.180211   3.007793   3.821930   4.833407
                   11         12         13         14         15
    11  H    0.000000
    12  H    1.783871   0.000000
    13  H    3.018358   2.509512   0.000000
    14  H    2.545162   3.165899   1.788244   0.000000
    15  H    4.334436   4.598974   2.846339   2.332772   0.000000
    16  H    3.761558   3.074592   3.787995   4.322861   4.127781
    17  H    3.688358   2.439288   2.560577   3.764705   3.848343
    18  H    4.720595   4.212885   2.908520   3.539116   2.168534
    19  H    4.207782   4.967691   5.309516   4.535179   4.097485
    20  C    8.532609   8.878829   8.228874   7.730407   5.823212
    21  C    7.150870   7.671278   7.069496   6.385270   4.667729
    22  C    7.463950   8.233252   7.384813   6.406867   4.745783
    23  O    6.539081   7.542720   6.775094   5.544086   4.291999
    24  C    6.836420   7.466217   7.370713   6.625771   5.350224
    25  O    5.754184   6.620651   6.725113   5.785608   4.962527
    26  C    6.282375   6.566953   5.760209   5.319418   3.423317
    27  O    6.009995   6.027148   5.569084   5.441755   3.786421
    28  O    6.217019   6.504304   5.255622   4.785519   2.627216
    29  H    8.977557   9.260550   8.325197   7.883955   5.789421
    30  H    9.265337   9.731134   9.177913   8.558879   6.740867
    31  H    8.584763   8.748029   8.269056   7.972571   6.107830
    32  H    8.334075   9.182429   8.443824   7.403349   5.831142
    33  H    7.888307   8.559362   7.399800   6.501371   4.610831
    34  H    5.796992   6.746269   5.834045   4.615447   3.337303
    35  H    6.888288   7.302350   7.417458   6.904212   5.663979
    36  H    7.767956   8.492084   8.430164   7.593212   6.334810
    37  H    5.838819   6.873163   6.740603   5.596924   4.776257
    38  H    5.486621   5.297240   4.730337   4.841454   3.240802
                   16         17         18         19         20
    16  H    0.000000
    17  H    1.785140   0.000000
    18  H    2.836396   2.382723   0.000000
    19  H    3.428042   4.771735   4.378775   0.000000
    20  C    6.418826   7.508445   5.814791   4.766990   0.000000
    21  C    5.504879   6.593073   4.987988   3.419131   1.538358
    22  C    6.516881   7.419045   5.663953   4.065239   2.519087
    23  O    6.292601   7.130443   5.593681   3.528225   3.785186
    24  C    5.284924   6.676090   5.567534   2.685038   2.508203
    25  O    4.903933   6.275322   5.459173   1.670219   3.812342
    26  C    4.407401   5.260000   3.489377   3.190428   2.471495
    27  O    3.449543   4.505259   3.125234   3.013710   3.023752
    28  O    4.759942   5.218019   3.116890   3.833623   3.286357
    29  H    6.883379   7.758996   5.825854   5.497690   1.100120
    30  H    7.300393   8.487006   6.863327   5.307698   1.100734
    31  H    6.048112   7.215883   5.705343   4.846645   1.099231
    32  H    7.417907   8.429199   6.735305   4.735702   2.705723
    33  H    6.902737   7.589628   5.590073   4.848129   2.770919
    34  H    5.666020   6.337307   4.776986   3.241775   4.110782
    35  H    4.821047   6.346063   5.461946   2.792943   2.743088
    36  H    6.347072   7.774417   6.651198   3.596065   2.679210
    37  H    5.466313   6.655921   5.653192   2.177959   4.001451
    38  H    2.782495   3.590043   2.177870   3.255558   3.944643
                   21         22         23         24         25
    21  C    0.000000
    22  C    1.538743   0.000000
    23  O    2.458108   1.410029   0.000000
    24  C    1.546482   2.532162   2.903159   0.000000
    25  O    2.511254   3.007550   2.661763   1.417437   0.000000
    26  C    1.526377   2.485629   3.009623   2.546145   3.070941
    27  O    2.376720   3.657885   4.087338   2.799669   3.295520
    28  O    2.407315   2.723339   3.061576   3.592262   3.888775
    29  H    2.182879   2.749209   4.098693   3.477020   4.666072
    30  H    2.180342   2.780533   4.054116   2.738048   4.072620
    31  H    2.182965   3.482121   4.621474   2.761485   4.102782
    32  H    2.162434   1.101079   2.018563   2.792614   3.383254
    33  H    2.168385   1.103247   2.078117   3.486316   4.008595
    34  H    2.694842   1.969077   0.976215   3.253223   2.864179
    35  H    2.182591   3.487832   3.921393   1.098673   2.030410
    36  H    2.148392   2.757597   3.239728   1.106016   2.059358
    37  H    2.588566   2.539813   1.847344   1.948714   0.983467
    38  H    3.256142   4.361639   4.616933   3.697372   3.943615
                   26         27         28         29         30
    26  C    0.000000
    27  O    1.312109   0.000000
    28  O    1.213448   2.229884   0.000000
    29  H    2.713227   3.438809   3.162336   0.000000
    30  H    3.442646   4.002382   4.241848   1.783881   0.000000
    31  H    2.714827   2.765111   3.685575   1.784316   1.786032
    32  H    3.438555   4.503984   3.793069   3.017661   2.508089
    33  H    2.666276   3.954125   2.489620   2.543947   3.164509
    34  H    2.708637   3.755088   2.508456   4.333569   4.598027
    35  H    2.787626   2.520224   3.970542   3.762985   3.076533
    36  H    3.473310   3.823720   4.458190   3.688603   2.440048
    37  H    3.214871   3.769673   3.784239   4.718056   4.211207
    38  H    1.913657   1.004713   2.354007   4.206602   4.962538
                   31         32         33         34         35
    31  H    0.000000
    32  H    3.732525   0.000000
    33  H    3.764454   1.788256   0.000000
    34  H    4.838075   2.846331   2.333072   0.000000
    35  H    2.538714   3.788597   4.323615   4.127617   0.000000
    36  H    3.049569   2.560542   3.764503   3.847379   1.784991
    37  H    4.520319   2.906804   3.536645   2.165697   2.835891
    38  H    3.677897   5.303626   4.533322   4.092646   3.416632
                   36         37         38
    36  H    0.000000
    37  H    2.381878   0.000000
    38  H    4.760761   4.367048   0.000000
 Framework group  C1[X(C10H20O8)]
 Deg. of freedom   108
                         Standard orientation:                         
 ---------------------------------------------------------------------
 Center     Atomic      Atomic             Coordinates (Angstroms)
 Number     Number       Type             X           Y           Z
 ---------------------------------------------------------------------
      1          6           0       -3.848320    1.243841   -0.657307
      2          6           0       -2.770619    0.269816   -0.151031
      3          6           0       -3.158521   -0.266471    1.238099
      4          8           0       -2.289844   -1.277857    1.697155
      5          6           0       -2.640666   -0.895860   -1.158954
      6          8           0       -1.699443   -1.899686   -0.823054
      7          6           0       -1.467518    1.056469   -0.015710
      8          8           0       -0.864594    1.279969   -1.160529
      9          8           0       -1.047137    1.439765    1.056071
     10          1           0       -3.563550    1.662985   -1.632766
     11          1           0       -3.982884    2.073723    0.052238
     12          1           0       -4.812119    0.723683   -0.767492
     13          1           0       -4.159362   -0.721461    1.177532
     14          1           0       -3.199566    0.572988    1.952779
     15          1           0       -1.399564   -0.907219    1.848839
     16          1           0       -2.355891   -0.508253   -2.146764
     17          1           0       -3.640158   -1.361224   -1.246862
     18          1           0       -1.848849   -2.136426    0.119755
     19          1           0        0.064972    1.636361   -1.010308
     20          6           0        3.844454   -1.247558   -0.659995
     21          6           0        2.769393   -0.271482   -0.151995
     22          6           0        3.159644    0.260336    1.238186
     23          8           0        2.294314    1.273243    1.700144
     24          6           0        2.641903    0.896626   -1.157420
     25          8           0        1.702588    1.902286   -0.817622
     26          6           0        1.465338   -1.053573   -0.019320
     27          8           0        0.863354   -1.265512   -1.165761
     28          8           0        1.044657   -1.444891    1.049490
     29          1           0        3.976281   -2.079371    0.047798
     30          1           0        4.809823   -0.730000   -0.768679
     31          1           0        3.558845   -1.663750   -1.636479
     32          1           0        4.161819    0.712454    1.178095
     33          1           0        3.198578   -0.580949    1.950841
     34          1           0        1.402783    0.905083    1.850565
     35          1           0        2.355773    0.512884   -2.146335
     36          1           0        3.642702    1.359346   -1.244388
     37          1           0        1.855157    2.134273    0.125835
     38          1           0       -0.066483   -1.616531   -1.018663
 ---------------------------------------------------------------------
 Rotational constants (GHZ):           0.7009248           0.2751450           0.2610586
   292 basis functions,   530 primitive gaussians,   310 cartesian basis functions
    72 alpha electrons       72 beta electrons
       nuclear repulsion energy      1611.8414155233 Hartrees.
 NAtoms=   38 NActive=   38 NUniq=   38 SFac= 1.00D+00 NAtFMM=   60 NAOKFM=F Big=F
 Nuclear repulsion after empirical dispersion term =     1611.8079576812 Hartrees.
   1 Symmetry operations used in ECPInt.
 ECPInt:  NShTT=   11026 NPrTT=   44250 LenC2=   10528 LenP2D=   29272.
 LDataN:  DoStor=T MaxTD1= 4 Len=   56
 Initial guess from the checkpoint file:  "35.chk"
 B after Tr=    -0.000000    0.000000    0.000000
         Rot=    0.999725   -0.000255    0.000040   -0.023431 Ang=  -2.69 deg.
 ExpMin= 1.22D-01 ExpMax= 2.27D+03 ExpMxC= 3.41D+02 IAcc=3 IRadAn=         5 AccDes= 0.00D+00
 Harris functional with IExCor= 4639 and IRadAn=       5 diagonalized for initial guess.
 HarFok:  IExCor= 4639 AccDes= 0.00D+00 IRadAn=         5 IDoV= 1 UseB2=F ITyADJ=14
 ICtDFT=  3500011 ScaDFX=  1.000000  1.000000  1.000000  1.000000
[...]
 .00159815,0.00173308,-0.00078406,-0.02463394,0.00114605,-0.00363387,-0
 .41712600,0.10422460,-0.04579726,-0.00028283,0.00052642,-0.00047083,-0
 .00285989,-0.00033374,0.00345343,0.00461209,-0.00134562,0.00070172,-0.
 00199271,0.00031633,0.00017547,-0.00385568,0.00061696,-0.00065313,0.00
 000597,-0.00010189,-0.00009140,-0.00004255,-0.00007581,-0.00008105,0.0
 0036173,0.00029820,0.00026286,0.00073346,-0.00291709,-0.00042867,0.001
 47732,0.00207919,0.00067490,0.43709939,0.00012440,-0.00014642,0.000033
 44,0.00023767,-0.00009957,-0.00055110,0.00036349,0.00071198,-0.0002840
 4,-0.00080982,-0.00051857,0.00017584,0.00054380,0.00057844,-0.00002652
 ,-0.00090654,-0.00037271,0.00015812,0.00029488,0.00014719,0.00266136,-
 0.00029905,-0.00003256,-0.00123865,0.00214338,-0.00272617,-0.00283864,
 -0.00003482,-0.00000416,0.00002364,-0.00006137,-0.00002388,-0.00001910
 ,0.00008050,0.00002327,-0.00002081,-0.00004194,-0.00011546,0.00005285,
 -0.00006778,-0.00008217,-0.00005867,0.00120900,0.00011222,-0.00004649,
 -0.00001633,-0.00000964,0.00003301,-0.00006463,-0.00014954,-0.00006038
 ,0.00026356,0.00002015,-0.00007318,0.00027361,0.00031811,0.00046945,0.
 00037990,-0.00051708,-0.00004914,-0.00045419,0.00031211,-0.00045450,-0
 .03767517,0.00855606,-0.00520508,0.14745864,-0.09103536,0.01268973,0.0
 0091773,0.00097568,-0.00022616,-0.00158280,-0.00081578,-0.00048711,-0.
 00258656,-0.00012883,-0.00933928,-0.00118690,-0.00020483,0.00351970,0.
 00162743,0.00198845,0.00517424,-0.00011931,-0.00005795,0.00002691,0.00
 029352,0.00014398,0.00014605,0.00004210,-0.00005769,-0.00001421,-0.003
 57396,-0.00415362,-0.00144594,-0.00082609,0.00019962,0.00078829,-0.110
 84432,0.08805254,-0.00000837,0.00026792,-0.00006018,-0.00004841,0.0005
 7198,0.00063411,-0.00011556,-0.00015742,0.00059816,0.00003456,0.000173
 10,-0.00076631,-0.00027079,-0.00008729,-0.00021397,-0.00028700,0.00027
 369,-0.00013519,0.00248865,-0.00034180,-0.00488742,-0.00033309,-0.0005
 3563,0.00135439,-0.00423981,-0.00127704,0.00113463,0.00005380,0.000006
 75,-0.00002784,0.00004130,-0.00003372,-0.00000497,-0.00012221,-0.00003
 849,0.00002889,-0.00003855,0.00007099,-0.00009440,-0.00001362,-0.00006
 714,0.00003492,-0.00007901,0.00004405,0.00100364,0.00005375,-0.0000473
 0,-0.00006624,-0.00008883,0.00014457,0.00010157,0.00014596,-0.00015147
 ,0.00027638,0.00044985,0.00030769,-0.00097727,0.00006543,-0.00053753,-
 0.00023366,-0.00167453,0.00153502,0.00011114,-0.01035545,0.00270866,-0
 .00187775,-0.03818175,0.00297196,-0.01788315,-0.00195965,-0.00122539,-
 0.00094888,0.00265925,-0.00023908,0.00084473,0.00044860,-0.00290443,-0
 .00169596,-0.00041759,0.00037723,0.00001003,0.00010982,0.00115459,-0.0
 0116939,0.00005647,0.00019412,0.00000564,0.00024161,0.00008862,0.00005
 133,0.00008657,-0.00002834,0.00000559,0.00008460,-0.00104751,0.0003468
 3,0.00124688,-0.00034144,0.00060956,0.05451526,-0.00560617,0.02668378,
 -0.00000706,-0.00000624,0.00000837,-0.00000582,0.00000122,0.00002612,-
 0.00002013,-0.00002822,-0.00001633,0.00005428,0.00002674,0.00005529,-0
 .00008400,-0.00008062,-0.00000013,0.00025771,-0.00000590,0.00005140,0.
 00004822,-0.00000249,-0.00063989,0.00021666,0.00012092,0.00055836,-0.0
 0022777,0.00013737,0.00025780,-0.00000549,-0.00000610,-0.00000149,0.00
 000449,0.00000665,0.00000546,0.00000500,-0.00000042,0.00000043,0.00000
 842,0.00000027,0.00000077,0.00000032,0.00000828,0.00000819,-0.00005878
 ,-0.00001616,-0.00005380,-0.00002191,0.00000467,0.00000866,0.00003174,
 0.00000894,0.00000945,-0.00002541,0.00002379,-0.00005967,0.00045790,-0
 .00041810,-0.00061341,-0.00007800,-0.00011629,0.00066848,0.00081078,-0
 .00028076,-0.00408338,-0.00006010,0.00002182,-0.00004670,0.00019745,0.
 00070531,-0.00059759,-0.06973122,0.02980090,0.07058397,0.00273907,-0.0
 1638440,-0.02881924,0.00054318,-0.00087064,-0.00119493,-0.00146319,0.0
 0116955,-0.00032109,0.00013866,0.00017953,0.00045229,-0.00012195,-0.00
 001803,-0.00018474,-0.00000890,0.00012661,0.00011282,0.00019735,-0.000
 42650,0.00013072,0.00033103,-0.00007831,-0.00032803,0.00047963,0.00009
 265,-0.00007853,0.00011385,-0.00014055,0.00018042,0.07250535,-0.000001
 97,0.00001952,-0.00001310,-0.00001644,-0.00000086,0.00000789,0.0000023
 5,0.00000399,0.00002171,-0.00001968,0.00000027,-0.00004631,0.00004410,
 0.00007121,-0.00004964,-0.00023593,-0.00000629,-0.00002253,0.00021153,
 -0.00004997,-0.00003866,-0.00061276,0.00003250,0.00015581,-0.00016869,
 0.00009298,-0.00003072,0.00000501,0.00000002,-0.00000166,0.00000306,-0
 .00000358,0.00000068,-0.00000990,-0.00000136,0.00000235,-0.00000787,0.
 00000665,-0.00000392,0.00000443,-0.00000446,0.00000308,0.00001307,-0.0
 0000968,0.00004747,0.00000470,-0.00000594,-0.00000242,-0.00002377,-0.0
 0000557,0.00000749,0.00001703,-0.00001994,0.00003989,0.00118155,-0.000
 04565,-0.00059220,0.00025755,0.00158858,0.00072169,-0.00611116,0.00898
 994,0.02151425,0.00019594,-0.00509431,0.00257693,0.00091441,0.00116546
 ,-0.00134031,0.02357095,-0.08303562,-0.08499047,-0.00166864,-0.0162367
 2,-0.02963329,-0.00051313,0.00111479,0.00103999,0.00117484,-0.00133109
 ,0.00017851,-0.00002475,-0.00003456,-0.00054508,0.00013829,0.00007247,
 -0.00016887,-0.00003789,-0.00007159,-0.00008536,-0.00019857,-0.0005549
 9,-0.00018000,-0.00003943,-0.00004583,-0.00012695,-0.00027139,0.000793
 97,0.00150945,-0.00010756,-0.00010385,0.00020555,-0.01848272,0.0993225
 5,-0.00000659,0.00001204,0.00001133,-0.00000352,0.00002860,-0.00000773
 ,-0.00003194,-0.00003131,-0.00000634,0.00003331,0.00005013,0.00007738,
 -0.00010801,-0.00016155,0.00001506,0.00041444,0.00006952,0.00005701,0.
 00005925,-0.00009841,-0.00035407,-0.00028462,0.00018167,0.00017571,-0.
 00025565,0.00007584,0.00021575,0.00000165,-0.00000420,-0.00000238,0.00
 000767,0.00000818,0.00000312,-0.00000465,-0.00000179,-0.00000073,0.000
 00017,0.00000488,-0.00000487,0.00000763,0.00001007,0.00000992,-0.00002
 040,-0.00003284,-0.00006622,-0.00000865,0.00000240,0.00000185,0.000036
 52,0.00003073,0.00000695,-0.00003369,0.00000357,-0.00009828,0.00052510
 ,-0.00044115,-0.00026959,-0.00038211,-0.00098563,0.00061434,0.00556285
 ,-0.00721310,-0.02002898,-0.00049595,0.00504800,-0.00120775,-0.0004670
 5,-0.00032494,0.00036553,0.05897223,-0.08921901,-0.27451056,-0.0029101
 7,-0.00431152,-0.00259668,0.00180916,-0.00128149,-0.00333244,0.0008572
 5,-0.00083586,0.00224612,-0.00005192,0.00020113,0.00124320,-0.00021604
 ,0.00011389,0.00025752,-0.00001644,0.00013142,-0.00004580,0.00040689,0
 .00071769,0.00036198,0.00002809,0.00001928,0.00023899,0.00038789,-0.00
 048130,-0.00131038,0.00032720,-0.00006300,0.00006951,-0.06226739,0.097
 72377,0.29156548,-0.00001077,0.00008210,-0.00001049,-0.00006576,0.0000
 3324,-0.00009835,-0.00005993,-0.00003529,0.00010281,-0.00001684,0.0000
 8017,-0.00008732,0.00000145,-0.00008474,-0.00004925,-0.00008827,0.0001
 2723,0.00000015,0.00081064,-0.00036438,0.00138076,-0.00272711,0.000697
 09,-0.00042621,-0.00020411,0.00011199,-0.00075036,0.00003682,0.0000080
 3,-0.00001269,0.00001367,-0.00000539,-0.00000352,-0.00004395,-0.000005
 99,0.00000002,-0.00002739,0.00002872,-0.00002890,0.00002136,-0.0000042
 2,0.00000803,0.00002924,-0.00006491,0.00008862,0.00003175,-0.00002366,
 -0.00003659,-0.00003539,0.00004019,0.00000297,0.00002628,-0.00007292,0
 .00002398,0.00421063,-0.00065187,-0.00104619,0.00080125,-0.00053272,0.
 00031149,-0.00290009,0.00179856,0.00096900,-0.00035079,-0.00066428,0.0
 0057749,0.00070168,0.00047137,-0.00089506,-0.26224531,0.09312081,-0.00
 264723,-0.02750898,-0.00970405,-0.00473378,0.00071236,-0.00047520,0.00
 065173,0.00000863,0.00023307,-0.00036683,0.00004241,0.00020529,-0.0004
 8986,0.00037352,-0.00000597,-0.00003209,0.00041905,0.00024087,0.000139
 14,-0.00002302,0.00003900,-0.00009416,0.00033980,-0.00012603,-0.000565
 83,0.00030298,0.00001036,-0.00001970,-0.00017093,-0.00010895,0.0004584
 6,-0.00414542,0.00328235,-0.00058105,0.29247229,-0.00002111,0.00004512
 ,0.00000492,-0.00004256,0.00007401,-0.00011195,-0.00016642,-0.00017717
 ,0.00009637,0.00028900,0.00018165,0.00003233,-0.00018691,-0.00028702,0
 .00003852,0.00053113,0.00014817,-0.00002583,0.00040233,-0.00038852,0.0
 0117899,-0.00264343,0.00091735,-0.00024864,-0.00006432,0.00023821,-0.0
 0060015,0.00002660,0.00000666,-0.00001678,0.00001351,0.00000604,0.0000
 0425,-0.00002231,-0.00000512,-0.00000227,0.00001249,0.00003477,-0.0000
 3613,0.00001824,0.00002816,0.00001021,-0.00031326,-0.00014928,-0.00014
 539,0.00000897,-0.00000546,-0.00003076,0.00004020,0.00005990,0.0000055
 3,-0.00011065,0.00000540,-0.00001665,0.00355258,-0.00114680,-0.0010309
 5,0.00156797,0.00076075,-0.00011569,0.02116678,-0.00987363,0.00068014,
 -0.00011577,0.00005373,-0.00149960,0.00030651,0.00064206,-0.00029344,0
 .09620492,-0.08741250,-0.00047759,-0.04012713,0.00298430,-0.00208386,-
 0.00335210,-0.00221441,0.00217000,0.00138483,-0.00018261,0.00005774,0.
 00279558,-0.00018058,0.00157320,-0.00029914,0.00022579,-0.00007356,-0.
 00091648,-0.00056715,0.00029322,0.00003559,-0.00002049,-0.00003386,-0.
 00040036,0.00035731,0.00050418,-0.00016505,0.00000908,-0.00016616,-0.0
 0004821,-0.00027566,0.00007524,0.00928363,-0.00236447,0.00173027,-0.08
 752249,0.09773872,0.00000533,0.00000282,0.00000423,0.00000668,-0.00000
 680,-0.00002161,0.00002936,0.00007319,-0.00001884,-0.00013770,-0.00004
 246,-0.00000836,0.00002483,0.00002826,-0.00003200,-0.00004204,-0.00000
 116,0.00006285,-0.00007092,0.00003963,-0.00005263,-0.00025093,0.000057
 16,0.00009474,0.00004033,-0.00008167,-0.00001138,-0.00000272,-0.000004
 02,0.00000176,-0.00000141,-0.00000050,-0.00000018,0.00000035,-0.000000
 45,-0.00000069,-0.00001309,-0.00001239,0.00000137,-0.00000390,-0.00001
 215,0.00000116,0.00016175,0.00005961,0.00010137,-0.00000942,-0.0000075
 3,0.00000682,-0.00000286,-0.00000536,0.00000642,0.00005141,-0.00001478
 ,-0.00004895,0.00018571,-0.00021327,-0.00023776,-0.00076854,-0.0010593
 8,0.00044432,-0.02205980,0.01376641,-0.00198878,-0.00172978,0.00031415
 ,0.00138906,0.00042180,-0.00028785,-0.00028992,-0.00031385,-0.00092139
 ,-0.05569780,-0.00877872,-0.00062350,0.00370487,0.00390501,0.00246368,
 -0.00444860,-0.00010982,-0.00066663,0.00150105,-0.00241803,0.00002121,
 -0.00036395,0.00012876,-0.00025548,-0.00009581,0.00054684,0.00003553,0
 .00029167,0.00017679,0.00005156,-0.00001340,0.00056566,-0.00012006,-0.
 00052631,0.00025490,-0.00003690,0.00030485,-0.00012945,0.00008621,0.00
 012370,0.02556858,-0.01009167,0.00395717,0.00602337,-0.00293843,0.0517
 1316,0.00011367,-0.00020912,0.00001936,0.00030914,0.00001234,-0.000426
 17,0.00001615,0.00021460,-0.00019474,-0.00006136,-0.00027764,0.0001405
 7,0.00021060,0.00025604,0.00012517,-0.00018809,-0.00028793,-0.00006509
 ,-0.00331071,0.00139261,0.00363571,-0.00293476,-0.00001836,-0.00299539
 ,0.00316728,-0.00193943,-0.00017805,-0.00004038,0.00000852,0.00001700,
 -0.00006050,-0.00000916,-0.00000855,0.00010347,0.00003102,-0.00002507,
 0.00004060,-0.00007401,0.00002208,-0.00006454,-0.00001558,-0.00006530,
 0.00010312,0.00026399,-0.00014520,-0.00002543,0.00001693,0.00003376,0.
 00002630,-0.00011050,-0.00005173,0.00000169,0.00013880,0.00002566,0.00
 306041,0.00180205,0.00865909,-0.00010373,0.00033983,0.00017091,0.00099
 239,-0.00127451,0.00043992,-0.00047062,-0.00405824,0.00209579,-0.00963
 155,0.00137776,-0.00221402,0.00303908,-0.01046050,-0.02808817,-0.04796
 505,-0.00328002,0.05786246,0.00080152,0.00046711,0.00020204,-0.0005510
 2,0.00006412,0.00012010,-0.00066880,-0.00008966,0.00001858,-0.00003135
 ,0.00001061,0.00002025,-0.00016596,-0.00006257,-0.00007586,0.00004726,
 0.00016161,0.00004976,-0.00053502,-0.00012751,0.00030453,-0.00016724,0
 .00022797,-0.00008541,0.00210588,0.00382117,-0.00556639,-0.00264351,-0
 .00290527,-0.00042784,-0.00088656,-0.00022916,-0.00114115,0.05606824,0
 .00005486,0.00008526,-0.00000360,0.00003872,0.00017564,0.00008938,0.00
 013911,0.00020239,0.00000298,-0.00035170,-0.00015022,-0.00004356,0.000
 12090,0.00020597,-0.00010587,-0.00052715,-0.00006426,0.00006803,0.0010
 7887,0.00017147,-0.00079453,-0.00047736,-0.00055872,0.00042579,-0.0015
 3859,-0.00116153,0.00016893,-0.00000218,0.00001366,0.00003150,-0.00002
 213,-0.00001102,-0.00004331,-0.00002672,-0.00002704,0.00000382,-0.0000
 4922,0.00000538,0.00000272,0.00001715,-0.00003092,-0.00000074,0.000390
 66,0.00001948,0.00015078,0.00002361,-0.00001981,-0.00000333,-0.0000728
 5,0.00000530,0.00001492,0.00013888,-0.00005912,-0.00000045,0.00215035,
 0.00097306,-0.00119680,-0.00041500,0.00034089,-0.00014737,0.00156395,0
 .00100770,-0.00059562,-0.00463701,-0.00652505,0.00376334,0.00183988,-0
 .00284363,-0.00653826,-0.00092604,-0.01299467,-0.03575315,-0.01262681,
 -0.05288596,-0.06904512,0.00180802,-0.00185400,-0.00117981,-0.00101472
 ,0.00040845,0.00094321,-0.00064509,0.00054973,0.00024611,0.00019130,0.
 00023680,0.00012111,0.00016903,0.00004721,-0.00002113,0.00017502,0.000
 32875,0.00019022,0.00047124,0.00019075,-0.00002121,0.00002372,0.000330
 59,-0.00024539,0.00212656,-0.00036815,0.00381006,-0.00454022,-0.004132
 00,-0.00063325,-0.00001970,0.00070313,0.00052799,0.01468764,0.07786740
 ,-0.00001551,0.00001649,0.00000613,-0.00003212,-0.00001344,-0.00064483
 ,-0.00027795,-0.00007225,0.00024950,0.00020617,0.00007465,-0.00034529,
 0.00009663,-0.00011797,0.00012687,-0.00005336,0.00013064,-0.00025339,0
 .00089417,-0.00069546,0.00813579,-0.00725302,0.00188750,-0.00399247,0.
 00305737,-0.00024687,-0.00492141,0.00008028,0.00003354,-0.00005570,-0.
 00000770,-0.00002770,0.00000685,-0.00001777,0.00001469,-0.00002222,0.0
 0001161,0.00002090,-0.00007547,-0.00003038,-0.00001504,-0.00003545,-0.
 00022377,0.00007246,0.00027699,0.00005975,-0.00003964,-0.00009840,-0.0
 0002419,0.00001679,-0.00004887,-0.00002529,-0.00000045,0.00024947,0.01
 167502,-0.00116684,-0.00066253,0.00023244,0.00057231,-0.00252795,0.000
 39593,0.00154857,0.00242110,0.01086182,0.01183966,0.00671596,-0.007762
 28,-0.01150249,0.00058176,-0.00775030,-0.01177028,-0.00506803,0.032630
 86,-0.09772873,-0.38758143,0.00061143,-0.00047051,0.00453556,0.0007815
 2,0.00036318,-0.00217212,-0.00073530,-0.00066900,-0.00281730,0.0003702
 1,0.00070649,0.00005683,-0.00008171,-0.00006403,0.00023149,-0.00033334
 ,-0.00060298,-0.00022356,-0.00101607,-0.00053671,-0.00045306,-0.001580
 91,-0.00324104,-0.00120052,-0.00549099,0.00226791,-0.00295730,0.000647
 58,0.00233466,0.00191786,0.00227346,0.00141939,-0.00000563,-0.03231270
 ,0.10580441,0.39060472,-0.00054715,0.00097827,0.00138638,0.00129522,0.
 00107347,-0.00151389,-0.00112901,-0.00024881,-0.00121175,-0.00149104,0
 .00202777,0.00592193,-0.00890929,-0.01795758,0.00530195,0.00944922,0.0
 0777587,0.00641952,0.00784126,-0.00345604,-0.00133985,-0.00534674,0.00
 073669,-0.00074749,-0.00501481,0.00014798,0.00191680,0.00006754,-0.000
 15709,-0.00012546,0.00044709,0.00062537,0.00008135,-0.00026354,-0.0001
 8896,-0.00010327,-0.00023092,-0.00010612,-0.00021655,0.00021049,0.0002
 6445,0.00054763,0.00437182,0.00027502,-0.00044787,0.00045786,0.0011830
 0,-0.00052139,0.00421050,0.00355293,-0.00017408,0.00306472,0.00218527,
 -0.01166769,0.00434234,0.00081441,-0.00010052,0.00051451,-0.00126853,-
 0.00009230,0.00252216,0.00023280,-0.00185476,0.00172884,0.00112222,0.0
 0144633,-0.00119715,-0.00171330,-0.00087699,0.00105528,0.00272683,-0.0
 0019360,-0.00247547,-0.00230577,-0.00003913,-0.01998918,0.01083250,0.0
 4476768,-0.28778120,0.06729543,-0.03053195,-0.00690978,-0.00079218,-0.
 02160943,-0.00016044,0.00002200,-0.00005428,0.00066383,0.00014120,-0.0
 0008203,-0.00067484,-0.00025308,-0.00029864,0.00026597,-0.00055018,-0.
 00051978,-0.00028107,-0.00008645,0.00011921,0.00124944,0.00132627,0.00
 037936,-0.00043243,0.00043636,-0.00086365,0.00015482,-0.00089402,-0.00
 011334,0.00029936,0.00068304,0.00013840,0.29862179,0.00025222,-0.00050
 120,-0.00021897,-0.00092799,-0.00034008,0.00021937,0.00022111,0.000227
 06,-0.00015494,0.00009825,-0.00069240,-0.00043908,-0.00452544,0.004061
 81,-0.00310680,0.00076618,-0.01721164,0.00452407,-0.00323738,-0.001352
 95,-0.00364441,0.00171242,0.00045379,0.00178094,0.00051520,0.00011367,
 0.00112681,-0.00007768,0.00000655,0.00004194,-0.00007956,-0.00011060,0
 .00000579,0.00018743,0.00009408,0.00001107,0.00010663,-0.00005476,0.00
 009006,-0.00008894,-0.00007484,-0.00006552,-0.00066318,0.00032044,-0.0
 0030390,-0.00042002,-0.00004874,0.00044170,-0.00065502,-0.00115048,0.0
 0021037,0.00182798,0.00096593,0.00117200,0.00081416,-0.00129301,-0.000
 02416,0.00064062,0.00007887,0.00000668,0.00193713,0.00389491,-0.001411
 29,0.00027397,0.00047712,-0.00014008,-0.00028760,-0.00004680,0.0002002
 2,0.00011435,0.00047308,-0.00000426,-0.00081891,0.00019171,0.00000093,
 0.01248761,-0.00080446,-0.01080651,0.06668739,-0.04834273,0.00608284,-
 0.00087538,-0.00571682,0.00531768,-0.00005438,-0.00008714,0.00010954,0
 .00000828,0.00002620,0.00017611,0.00012858,0.00021498,0.00011383,-0.00
 008094,0.00004580,0.00000856,0.00007964,-0.00003387,-0.00005096,0.0002
 3372,-0.00014017,-0.00031459,0.00018381,-0.00011653,-0.00004276,-0.000
 13768,0.00003057,-0.00012359,0.00013446,-0.00018292,-0.00014280,-0.076
 48102,0.06662558,-0.00002606,-0.00005199,0.00008635,-0.00022953,0.0003
 6264,-0.00030144,-0.00058274,-0.00063969,0.00002585,0.00097306,0.00039
 893,0.00025807,0.00101657,-0.00362913,0.00139922,0.00567831,0.00417347
 ,-0.01515374,0.00031449,-0.00124498,0.00192868,-0.00088169,-0.00018912
 ,-0.00141403,0.00018528,0.00048061,-0.00073557,0.00002326,0.00005371,-
 0.00003266,0.00002578,0.00004930,-0.00000215,0.00000632,0.00000323,-0.
 00000981,0.00008689,0.00003621,-0.00005106,0.00004712,0.00013702,-0.00
 001643,-0.00035443,-0.00046549,-0.00097978,0.00061229,0.00059310,-0.00
 026644,0.00104516,0.00102894,-0.00023383,-0.00865291,0.00120208,-0.000
 65960,0.00010383,0.00001959,0.00027765,-0.00042266,-0.00000098,-0.0000
 5996,0.00025303,-0.00118035,-0.00520095,0.00144740,-0.00025521,0.00065
 227,-0.00042796,-0.00002090,-0.00006917,-0.00036215,0.00027693,-0.0003
 5551,-0.00009599,0.00004201,-0.00004939,0.04881079,-0.01550869,0.00654
 199,-0.05020929,0.01255248,-0.06169769,-0.00580667,0.00253642,0.000974
 79,0.00002448,0.00004475,0.00003639,-0.00000653,0.00000450,0.00003720,
 0.00018143,0.00017150,0.00010112,0.00008054,-0.00013757,-0.00038910,0.
 00001825,0.00004881,-0.00006585,0.00021195,-0.00019858,-0.00002866,-0.
 00002881,-0.00012801,0.00043100,-0.00003604,0.00007317,0.00015203,0.00
 010410,0.00000721,0.00004610,0.00687313,-0.00064590,0.07482409\\-0.000
 00010,-0.00000079,0.00000013,0.00000052,-0.00000127,0.00000045,0.00000
 121,0.00000192,-0.00000110,-0.00000148,-0.00000205,-0.00000014,0.00000
 013,0.00000031,0.00000084,-0.00000151,-0.00000077,0.,0.00000036,-0.000
 00071,0.00000073,-0.00000044,0.00000038,-0.00000065,0.00000024,-0.0000
 0023,0.00000012,0.00000061,-0.00000042,0.00000021,0.00000047,-0.000000
 68,-0.00000025,0.00000002,-0.00000068,-0.00000015,-0.00000042,-0.00000
 087,0.00000034,0.,-0.00000066,-0.00000021,0.00000018,-0.00000006,0.000
 00035,0.,-0.00000053,0.,-0.00000024,-0.00000064,-0.00000039,0.00000028
 ,-0.00000020,0.00000026,0.00000041,0.00000008,-0.00000065,-0.00000001,
 0.00000052,0.00000024,-0.00000060,0.00000138,0.00000027,-0.00000111,-0
 .00000156,-0.00000137,0.00000154,0.00000182,0.,-0.00000010,-0.00000044
 ,0.00000083,0.00000188,0.00000068,0.00000021,0.00000037,0.00000044,0.0
 0000132,0.00000034,-0.00000035,-0.00000118,-0.00000058,0.00000036,-0.0
 0000020,-0.00000046,0.00000070,-0.00000023,0.,0.00000067,-0.00000014,-
 0.00000059,0.00000045,0.00000022,0.00000035,0.00000081,0.00000034,0.00
 000006,0.00000061,-0.00000024,-0.00000030,0.00000010,0.00000024,-0.000
 00010,0.00000062,0.00000002,0.00000034,0.00000071,-0.00000020,-0.00000
 042,0.00000004,0.00000005,-0.00000086,0.00000028,-0.00000008\\\@


 THE HURRIEDER I GO, THE BEHINDER I GET.
 Job cpu time:       0 days  1 hours  5 minutes 55.0 seconds.
 Elapsed time:       0 days  0 hours 16 minutes 32.7 seconds.
 File lengths (MBytes):  RWF=    407 Int=      0 D2E=      0 Chk=      9 Scr=      1
 Normal termination of Gaussian 16 at Fri Feb  3 13:22:30 2023.
real 9159.66
user 36297.11
sys 25.16
