You are running Q-Chem version: 5.3.2

#
# job setting
#
local host:  tnxt-0468.cluster
current dir: /scratch/user/peterli3819/peterli3819/12613585_1663277324000000969821639
input file:  qchem_test.inp
output file: 
nprocs     : 0
nthreads   : 8
#
# qchem installation setting
#
QC:          /sw/restricted/qchem/sw/5.3.2
QCAUX:       /sw/restricted/qchem/sw/5.3.2/qcaux
QCPROG:      /sw/restricted/qchem/sw/5.3.2/exe/qcprog.exe_s
QCPROG_S:    /sw/restricted/qchem/sw/5.3.2/exe/qcprog.exe_s
PARALLEL:    -DSERIAL
QCMPI:       seq
#
# qchem directory setting
#
qcrun:       qchem37501
QCSCRATCH:   /scratch/user/peterli3819/peterli3819/12613585_1663277324000000969821639
QCLOCALSCR:  
QCTMPDIR:    /scratch/user/peterli3819/peterli3819/12613585_1663277324000000969821639
QCFILEPREF:  /scratch/user/peterli3819/peterli3819/12613585_1663277324000000969821639/qchem37501
QCSAVEDIR:   
workdirs:    /scratch/user/peterli3819/peterli3819/12613585_1663277324000000969821639/qchem37501
workdir0:    /scratch/user/peterli3819/peterli3819/12613585_1663277324000000969821639/qchem37501
partmpdirs =  
#
# parallel setting
#
QCRSH:           ssh
QCMPI:           seq
QCMPIRUN:        
QCMACHINEFILE:   /scratch/user/peterli3819/peterli3819/12613585_1663277324000000969821639/qchem37501/hostfile

#
# env setting
#
exported envs:   QC QCAUX QCSCRATCH QCRUNNAME QCFILEPREF QCPROG QCPROG_S GUIFILE

Running Job 1 of 1 qchem_test.inp
qchem qchem_test.inp_37501.0 /scratch/user/peterli3819/peterli3819/12613585_1663277324000000969821639/qchem37501/ 0
/sw/restricted/qchem/sw/5.3.2/exe/qcprog.exe_s qchem_test.inp_37501.0 /scratch/user/peterli3819/peterli3819/12613585_1663277324000000969821639/qchem37501/
                  Welcome to Q-Chem
     A Quantum Leap Into The Future Of Chemistry


 Q-Chem 5.3, Q-Chem, Inc., Pleasanton, CA (2020)

 License issued to: MRG Daniel Tabor and Mike Hall, Texas A&M University

 Yihan Shao,  Zhengting Gan,  E. Epifanovsky,  A. T. B. Gilbert,  M. Wormit,  
 J. Kussmann,  A. W. Lange,  A. Behn,  Jia Deng,  Xintian Feng,  D. Ghosh,  
 M. Goldey,  P. R. Horn,  L. D. Jacobson,  I. Kaliman,  T. Kus,  A. Landau,  
 Jie Liu,  E. I. Proynov,  R. M. Richard,  R. P. Steele,  E. J. Sundstrom,  
 H. L. Woodcock III,  P. M. Zimmerman,  D. Zuev,  B. Alam,  B. Albrecht,  
 A. Aldossary,  E. Alguire,  S. A. Baeppler,  D. Barton,  Z. Benda,  
 Y. A. Bernard,  E. J. Berquist,  K. B. Bravaya,  H. Burton,  K. Carter-Fenk,  
 D. Casanova,  Chun-Min Chang,  Yunqing Chen,  A. Chien,  K. D. Closser,  
 M. P. Coons,  S. Coriani,  S. Dasgupta,  A. L. Dempwolff,  M. Diedenhofen,  
 Hainam Do,  R. G. Edgar,  Po-Tung Fang,  S. Faraji,  S. Fatehi,  
 Qingguo Feng,  J. Fosso-Tande,  J. Gayvert,  Qinghui Ge,  A. Ghysels,  
 G. Gidofalvi,  J. Gomes,  J. Gonthier,  S. Gulania,  A. Gunina,  D. Hait,  
 M. W. D. Hanson-Heine,  S. Hammes-Schiffer,  P. H. P. Harbach,  
 A. W. Hauser,  M. F. Herbst,  J. E. Herr,  E. G. Hohenstein,  Z. C. Holden,  
 S. Houck,  Kerwin Hui,  B. C. Huynh,  M. Ivanov,  T.-C. Jagau,  Hyunjun Ji,  
 B. Kaduk,  K. Khistyaev,  Jaehoon Kim,  P. Klunzinger,  K. Koh,  
 D. Kosenkov,  L. Koulias,  T. Kowalczyk,  C. M. Krauter,  A. Kunitsa,  
 Ka Un Lao,  A. Laurent,  K. V. Lawler,  Joonho Lee,  D. Lefrancois,  
 S. Lehtola,  D. S. Levine,  Yi-Pei Li,  You-Sheng Lin,  Fenglai Liu,  
 Kuan-Yu Liu,  E. Livshits,  M. Loipersberger,  A. Luenser,  A. Manjanath,  
 P. Manohar,  E. Mansoor,  S. F. Manzer,  Shan-Ping Mao,  Yuezhi Mao,  
 N. Mardirossian,  A. V. Marenich,  T. Markovich,  L. A. Martinez-Martinez,  
 S. A. Maurer,  N. J. Mayhall,  S. C. McKenzie,  J.-M. Mewes,  P. Morgante,  
 A. F. Morrison,  J. W. Mullinax,  K. Nanda,  T. S. Nguyen-Beck,  
 R. Olivares-Amaya,  K. J. Oosterbaan,  J. A. Parkhill,  S. K. Paul,  
 F. Pavosevic,  Zheng Pei,  T. M. Perrine,  F. Plasser,  P. Pokhilko,  
 S. Prager,  A. Prociuk,  E. Ramos,  B. Rana,  D. R. Rehn,  F. Rob,  
 E. Rossomme,  M. Scheurer,  M. Schneider,  N. Sergueev,  S. M. Sharada,  
 S. Sharma,  W. Skomorowski,  D. W. Small,  T. Stauch,  C. J. Stein,  
 T. Stein,  Yu-Chuan Su,  S. P. Veccham,  Zhen Tao,  A. J. W. Thom,  
 A. Tkatchenko,  T. Tsuchimochi,  N. M. Tubman,  L. Vogt,  M. L. Vidal,  
 O. Vydrov,  M. A. Watson,  J. Wenzel,  M. de Wergifosse,  T. A. Wesolowski,  
 A. White,  J. Witte,  A. Yamada,  Jun Yang,  K. Yao,  S. Yeganeh,  
 S. R. Yost,  Zhi-Qiang You,  A. Zech,  Igor Ying Zhang,  Xing Zhang,  
 Yan Zhao,  Ying Zhu,  B. R. Brooks,  G. K. L. Chan,  C. J. Cramer,  
 M. S. Gordon,  W. J. Hehre,  A. Klamt,  M. W. Schmidt,  C. D. Sherrill,  
 D. G. Truhlar,  A. Aspuru-Guzik,  R. Baer,  A. T. Bell,  N. A. Besley,  
 Jeng-Da Chai,  A. E. DePrince, III,  R. A. DiStasio Jr.,  A. Dreuw,  
 B. D. Dunietz,  T. R. Furlani,  Chao-Ping Hsu,  Yousung Jung,  Jing Kong,  
 D. S. Lambrecht,  WanZhen Liang,  C. Ochsenfeld,  V. A. Rassolov,  
 L. V. Slipchenko,  J. E. Subotnik,  T. Van Voorhis,  J. M. Herbert,  
 A. I. Krylov,  P. M. W. Gill,  M. Head-Gordon

 Contributors to earlier versions of Q-Chem not listed above: 
 R. D. Adamson,  B. Austin,  J. Baker,  G. J. O. Beran,  K. Brandhorst,  
 S. T. Brown,  E. F. C. Byrd,  A. K. Chakraborty,  C.-L. Cheng,  
 Siu Hung Chien,  D. M. Chipman,  D. L. Crittenden,  H. Dachsel,  
 R. J. Doerksen,  A. D. Dutoi,  L. Fusti-Molnar,  W. A. Goddard III,  
 A. Golubeva-Zadorozhnaya,  S. R. Gwaltney,  G. Hawkins,  A. Heyden,  
 S. Hirata,  G. Kedziora,  F. J. Keil,  C. Kelley,  Jihan Kim,  R. A. King,  
 R. Z. Khaliullin,  P. P. Korambath,  W. Kurlancheek,  A. M. Lee,  M. S. Lee,  
 S. V. Levchenko,  Ching Yeh Lin,  D. Liotard,  R. C. Lochan,  I. Lotan,  
 P. E. Maslen,  N. Nair,  D. P. O'Neill,  D. Neuhauser,  E. Neuscamman,  
 C. M. Oana,  R. Olson,  B. Peters,  R. Peverati,  P. A. Pieniazek,  
 Y. M. Rhee,  J. Ritchie,  M. A. Rohrdanz,  E. Rosta,  N. J. Russ,  
 H. F. Schaefer III,  N. E. Schultz,  N. Shenvi,  A. C. Simmonett,  A. Sodt,  
 D. Stuck,  K. S. Thanthiriwatte,  V. Vanovschi,  Tao Wang,  A. Warshel,  
 C. F. Williams,  Q. Wu,  X. Xu,  W. Zhang

 Please cite Q-Chem as follows:
 Y. Shao et al., Mol. Phys. 113, 184-215 (2015)
 DOI: 10.1080/00268976.2014.952696

 Q-Chem 5.3.2 for Intel X86 EM64T Linux

 Parts of Q-Chem use Armadillo 9.800.1 (Horizon Scraper).
 http://arma.sourceforge.net/

 Q-Chem begins on Thu Sep 15 16:29:03 2022  

Host: 
0

     Scratch files written to /scratch/user/peterli3819/peterli3819/12613585_1663277324000000969821639/qchem37501//
 Dec820 |scratch|qcdevops|jenkins|workspace|build_RNUM 7711   
Processing $rem in /sw/restricted/qchem/sw/5.3.2/config/preferences:
Processing $rem in /home/peterli3819/.qchemrc:

 Q-Chem warning in module libgen/rem_setup.C, line 2945:

 Neither GIA nor STOLL is specified by user. Use STOLL as the default


Checking the input file for inconsistencies... 	...done.

--------------------------------------------------------------
User input:
--------------------------------------------------------------
$molecule
0 1
--
0 1
O       -0.883000    0.966068   -1.335798
C       -2.085599    0.238200   -1.417202
C       -2.626231   -0.206267   -0.040512
C       -2.853594    1.010604    0.884793
O       -1.716654    1.836618    1.026598
C       -3.957356   -0.932393   -0.242246
F       -4.888993   -0.101579   -0.819807
C       -1.644088   -1.178701    0.610774
F       -2.144297   -1.642266    1.809798
H       -1.007492    1.607434   -0.602813
H       -1.889515   -0.648282   -2.046669
H       -2.869252    0.833667   -1.922177
H       -3.207923    0.656163    1.870408
H       -3.641780    1.646410    0.453663
H       -1.017510    1.399819    1.549724
H       -4.357589   -1.280723    0.724258
H       -3.820021   -1.806818   -0.905261
H       -0.688187   -0.672037    0.815930
H       -1.460777   -2.050953   -0.044062
--
0 1
O        1.716637    1.836546   -1.026727
C        2.853580    1.010543   -0.884879
C        2.626234   -0.206259    0.040520
C        2.085608    0.238310    1.417179
O        0.882987    0.966137    1.335725
C        1.644096   -1.178753   -0.610683
F        2.144315   -1.642432   -1.809658
C        3.957367   -0.932357    0.242301
F        4.888990   -0.101498    0.819821
H        1.017484    1.399705   -1.549807
H        3.641773    1.646381   -0.453810
H        3.207891    0.656029   -1.870474
H        2.869250    0.833843    1.922093
H        1.889556   -0.648122    2.046726
H        1.007467    1.607460    0.602701
H        0.688196   -0.672109   -0.815896
H        1.460777   -2.050943    0.044234
H        4.357611   -1.280735   -0.724181
H        3.820041   -1.806747    0.905364
$end

$rem
JOBTYPE           eda
EDA2              2
METHOD            wB97X-D
BASIS             def2-SV(P)
SCF_CONVERGENCE   8
THRESH            14
SYMMETRY          false
DISP_FREE_X       wB97X-D
DISP_FREE_C       none
EDA_BSSE          true
$end
--------------------------------------------------------------
 ----------------------------------------------------------------
             Standard Nuclear Orientation (Angstroms)
    I     Atom           X                Y                Z
 ----------------------------------------------------------------
    1      O      -0.8830000114     0.9660715406    -1.3357954505
    2      C      -2.0855990214     0.2382037602    -1.4172012674
    3      C      -2.6262309831    -0.2062667416    -0.0405123829
    4      C      -2.8535939419     1.0106019034     0.8847957243
    5      O      -1.7166539290     1.8366155305     1.0266027933
    6      C      -3.9573559968    -0.9323922140    -0.2422481914
    7      F      -4.8889930063    -0.1015767331    -0.8198070458
    8      C      -1.6440879728    -1.1787024109     0.6107711091
    9      F      -2.1442969402    -1.6422704604     1.8097939436
   10      H      -1.0074919821     1.6074356744    -0.6028088126
   11      H      -1.8895150501    -0.6482766381    -2.0466705320
   12      H      -2.8692520310     0.8336720547    -1.9221747260
   13      H      -3.2079229148     0.6561583960     1.8704098323
   14      H      -3.6417799488     1.6464090098     0.4536673687
   15      H      -1.0175099172     1.3998151906     1.5497276587
   16      H      -4.3575889703    -1.2807246723     0.7242549336
   17      H      -3.8200210264    -1.8068155263    -0.9052654234
   18      H      -0.6881869612    -0.6720389433     0.8159283701
   19      H      -1.4607770021    -2.0509527444    -0.0440671188
   20      O       1.7166370071     1.8365487266    -1.0267223137
   21      C       2.8535800030     1.0105453536    -0.8848764535
   22      C       2.6262340194    -0.2062590017     0.0405194536
   23      C       2.0856080668     0.2383064966     1.4171796030
   24      O       0.8829870717     0.9661337164     1.3357274947
   25      C       1.6440959892    -1.1787513326    -0.6106859934
   26      F       2.1443149472    -1.6424272831    -1.8096621903
   27      C       3.9573670183    -0.9323575294     0.2422985623
   28      F       4.8889900448    -0.1015000102     0.8198206500
   29      H       1.0174839863     1.3997090664    -1.5498034049
   30      H       3.6417730230     1.6463822473    -0.4538058581
   31      H       3.2078909687     0.6560338609    -1.8704723677
   32      H       2.8692500886     0.8338382022     1.9220950958
   33      H       1.8895560774    -0.6481271053     2.0467243508
   34      H       1.0074670555     1.6074585826     0.6027051247
   35      H       0.6881959880    -0.6721068000    -0.8158976729
   36      H       1.4607770007    -2.0509429992     0.0442287902
   37      H       4.3576109846    -1.2807330712    -0.7241843377
   38      H       3.8200410300    -1.8067492172     0.9053593389
 ----------------------------------------------------------------
 Molecular Point Group                 C1    NOp =  1
 Largest Abelian Subgroup              C1    NOp =  1
 Nuclear Repulsion Energy =        1618.01191278 hartrees
 There are       74 alpha and       74 beta electrons
 Requested basis set is def2-SV(P)
 There are 148 shells and 292 basis functions

 Total QAlloc Memory Limit  56000 MB
 Mega-Array Size       188 MB
 MEM_STATIC part       192 MB
 A cutoff of  1.0D-14 yielded   9188 shell pairs
 There are     34160 function pairs (     38032 Cartesian)
 Smallest overlap matrix eigenvalue = 1.36E-03

 Scale SEOQF with 1.000000e-01/1.000000e-01/1.000000e-01

 Standard Electronic Orientation quadrupole field applied
 Nucleus-field energy     =     0.0000000357 hartrees

 -----------------------------------------------------------------------
  General SCF calculation program by
  Eric Jon Sundstrom, Paul Horn, Yuezhi Mao, Dmitri Zuev, Alec White,
  David Stuck, Shaama M.S., Shane Yost, Joonho Lee, David Small,
  Daniel Levine, Susi Lehtola, Hugh Burton, Evgeny Epifanovsky,
  Bang C. Huynh
 -----------------------------------------------------------------------
================================================================
                 ALMO-EDA with the EDA2 driver                  
================================================================
 The second-generation ALMO-EDA (for DFT):                      
 P. R. Horn, Y. Mao and M. Head-Gordon, PCCP, 18, 23067 (2016)  
 Decomposition of the frozen energy:                            
 P. R. Horn, Y. Mao and M. Head-Gordon, JCP, 144, 114107 (2016) 
Using eda2 option set 2
Option set summary: Frozen orbital wavefunction, initial wavefunction decomposition, and traditional AO-based POL.
--------------------------------
Printing EDA Options
--------------------------------
eda_child_super_basis      0
fragmo_guess_mode          0
child_mp                   0
child_mp_orders            0
cls_elec                   1
cls_disp                   0
scfmi_mode                 1
scfmi_occs                 0
scfmi_virts                0
frz_relax                  0
frz_relax_method           0
dc_pen_start               0
dc_pen_conv                0
dc_pen_increment           0
dc_pen_steps               0
dc_pen_thresh_factor       0
dc_pen_pre_newton_thresh   0
frz_ortho_decomp           1
frz_ortho_decomp_conv      6
plot_mo_ortho_frz          0
frgm_method                2
scfmi_freeze_ss            0
separate_rehyb             0
plot_diff_den              0
eda_nocv                   0
eda_vct_relax              1
disp_free_x                -110
disp_free_c                0
eda_bsse                   1
eda_pct_a                  0
eda_covp                   0
--------------------------------
Attempting to make child job directory: /scratch/user/peterli3819/peterli3819/12613585_1663277324000000969821639/qchem37501//Frg1/
Attempting to make child job directory: /scratch/user/peterli3819/peterli3819/12613585_1663277324000000969821639/qchem37501//Frg2/
Creating input file /scratch/user/peterli3819/peterli3819/12613585_1663277324000000969821639/qchem37501/Frg1.input
using default PutDataFrgm: nothing
calling putenv with: QCSCRATCH=/scratch/user/peterli3819/peterli3819/12613585_1663277324000000969821639/qchem37501/ 
Spawning Job For Fragment 0
Done Job For Fragment 0
calling putenv with: QCSCRATCH=/scratch/user/peterli3819/peterli3819/12613585_1663277324000000969821639 
calling putenv with: QCTHREADS=8 
Creating input file /scratch/user/peterli3819/peterli3819/12613585_1663277324000000969821639/qchem37501/Frg2.input
using default PutDataFrgm: nothing
calling putenv with: QCSCRATCH=/scratch/user/peterli3819/peterli3819/12613585_1663277324000000969821639/qchem37501/ 
Spawning Job For Fragment 1
Done Job For Fragment 1
calling putenv with: QCSCRATCH=/scratch/user/peterli3819/peterli3819/12613585_1663277324000000969821639 
calling putenv with: QCTHREADS=8 
Doing General SCFMI
 Exchange:     0.2220 Hartree-Fock + 1.0000 wB97X-D + LR-HF
 Correlation:  1.0000 wB97X-D
 Using SG-2 standard quadrature grid
 Dispersion:   Grimme D
performing fock build before subrot guess so that all methods have access
Printing subrot_rss_gen Method Specification:
Occupied Subspace Method is 0
Virtual Subspace Method is 0
Energy of the unrelaxed supersystem initial determinant -1092.117197924104
write pseudocanon occs and virts to disk
write pseudocanon orbital energies to disk
Tolerance of ortho_decomp_scf: 1.00e-06
GDM subspace size: 20
Beginning the Orthogonal Decomposition of the Initial Supersystem Wavefunction
    1   -1092.0240583532      4.48e-02     ortho_decomp Preconditoned Steepest Descent
    2   -1092.0342452191      7.71e-04     ortho_decomp BFGS Step
    3   -1092.0342639975      6.18e-05     ortho_decomp BFGS Step
    4   -1092.0342640472      2.36e-06     ortho_decomp BFGS Step
    5   -1092.0342640473      6.80e-08     ortho_decomp 00000 Convergence criterion met
 Exchange:     0.2220 Hartree-Fock + 1.0000 wB97X-D + LR-HF
 Correlation:  1.0000 wB97X-D
 Using SG-2 standard quadrature grid
 Dispersion:   Grimme D
 Long-range K will be added via erf
 Coulomb attenuation parameter = 0.2 bohr**(-1)
 Exchange:     0.2220 Hartree-Fock + 1.0000 wB97X-D + LR-HF
 Correlation:  1.0000 wB97X-D
 Using SG-2 standard quadrature grid
 Dispersion:   Grimme D
 Long-range K will be added via erf
 Coulomb attenuation parameter = 0.2 bohr**(-1)
 Exchange:     0.2220 Hartree-Fock + 1.0000 wB97X-D + LR-HF
 Correlation:  1.0000 wB97X-D
 Using SG-2 standard quadrature grid
 Dispersion:   Grimme D
 Long-range K will be added via erf
 Coulomb attenuation parameter = 0.2 bohr**(-1)
Doing General SCFMI
 Exchange:     0.2220 Hartree-Fock + 1.0000 wB97X-D + LR-HF
 Correlation:  1.0000 wB97X-D
 Using SG-2 standard quadrature grid
 Dispersion:   Grimme D
performing fock build at end of subrot_r(subrot) constructor so that all methods have access
<S^2> of initial wavefunction before polarization iterations 0.0000000000
Beginning iterations for the determination of the polarized wavefunction
Energy prior to optimization (guess energy) = -1092.117197924104
Begin Timing: Total SCF Calculation
begin iterations for algorithm: DIIS         
the SCF tolerance is set to 1.00e-08
    1   -1092.1171979241      3.28e-04     00000 
    2   -1092.1216434151      1.00e-04     00000 
    3   -1092.1219521031      6.51e-05     00000 
    4   -1092.1220354162      2.22e-05     00000 
    5   -1092.1220478466      5.20e-06     00000 
    6   -1092.1220488093      2.12e-06     00000 
    7   -1092.1220489145      5.24e-07     00000 
    8   -1092.1220489210      2.12e-07     00000 
    9   -1092.1220489220      5.89e-08     00000 
   10   -1092.1220489221      1.47e-08     00000 
   11   -1092.1220489221      5.58e-09     00000 Convergence criterion met
write pseudocanon occs and virts to disk
write pseudocanon orbital energies to disk
Timing for Total SCF: 51.00s (wall), 389.14s (cpu)
<S^2> of polarized wavefunction after polarization iterations 0.0000000000
relaxing scfmi constraint to allow all rotations in the entire AO span
Doing General SCFMI
 Exchange:     0.2220 Hartree-Fock + 1.0000 wB97X-D + LR-HF
 Correlation:  1.0000 wB97X-D
 Using SG-2 standard quadrature grid
 Dispersion:   Grimme D
performing fock build at end of subrot_r(subrot) constructor so that all methods have access
<S^2> of polarized wavefunction before ct-allowed iterations 0.0000000000
Beginning iterations for the determination of the CT-Allowed wavefunction
Energy prior to optimization (guess energy) = -1092.122048922099
Begin Timing: Total SCF Calculation
begin iterations for algorithm: DIIS         
the SCF tolerance is set to 1.00e-08
    1   -1092.1220489221      4.93e-04     00000 
    2   -1092.1393143399      1.02e-04     00000 
    3   -1092.1401644937      6.66e-05     00000 
    4   -1092.1403156130      2.03e-05     00000 
    5   -1092.1403351045      4.53e-06     00000 
    6   -1092.1403360526      1.28e-06     00000 
    7   -1092.1403361407      4.65e-07     00000 
    8   -1092.1403361495      1.36e-07     00000 
    9   -1092.1403361503      2.91e-08     00000 
   10   -1092.1403361504      9.28e-09     00000 Convergence criterion met
write pseudocanon occs and virts to disk
write pseudocanon orbital energies to disk
Timing for Total SCF: 48.00s (wall), 365.62s (cpu)
<S^2> of ct_allowed wavefunction after ct-allowed iterations 0.0000000000
Attempting to make child job directory: /scratch/user/peterli3819/peterli3819/12613585_1663277324000000969821639/qchem37501//FrgBSSE1/
Attempting to make child job directory: /scratch/user/peterli3819/peterli3819/12613585_1663277324000000969821639/qchem37501//FrgBSSE2/
Creating input file /scratch/user/peterli3819/peterli3819/12613585_1663277324000000969821639/qchem37501/FrgBSSE1.input
calling putenv with: QCSCRATCH=/scratch/user/peterli3819/peterli3819/12613585_1663277324000000969821639/qchem37501/ 
Spawning Job For Fragment 0
Done Job For Fragment 0
calling putenv with: QCSCRATCH=/scratch/user/peterli3819/peterli3819/12613585_1663277324000000969821639 
calling putenv with: QCTHREADS=8 
Creating input file /scratch/user/peterli3819/peterli3819/12613585_1663277324000000969821639/qchem37501/FrgBSSE2.input
calling putenv with: QCSCRATCH=/scratch/user/peterli3819/peterli3819/12613585_1663277324000000969821639/qchem37501/ 
Spawning Job For Fragment 1
Done Job For Fragment 1
calling putenv with: QCSCRATCH=/scratch/user/peterli3819/peterli3819/12613585_1663277324000000969821639 
calling putenv with: QCTHREADS=8 
====================================================================
   Evaluating the BSSE with fragment SCF in the supersystem basis
   Fragment contributions (kJ/mol) 
   Frgm 1: 12.8681
   Frgm 2: 12.8681
   BSSE (kJ/mol) = 25.7362
====================================================================

================================
        Results of EDA2         
================================
Basic EDA Quantities
--------------------
Fragment Energies (Ha):
1 -546.0531986146
2 -546.0531986518
--------------------
  E_prp (kJ/mol) = -0.0000
  E_frz (kJ/mol) = -28.3575
  E_pol (kJ/mol) = -12.7364
  E_vct (kJ/mol) = -22.2775 (CP-corrected)
  E_int (kJ/mol) = -63.3714 (CP-corrected)
--------------------


Decomposition of frozen interaction energy
--------------------
  --------------------
  Orthogonal Frozen Decomposition:
  --------------------
     E_elec   (ELEC)   (kJ/mol) = -146.6202
     E_pauli  (PAULI)  (kJ/mol) = 142.1046
     E_disp   (DISP)   (kJ/mol) = -23.8418
  --------------------
  Classical Frozen Decomposition:
  --------------------
     E_cls_elec  (CLS ELEC)  (kJ/mol) = -79.3738
     E_mod_pauli (MOD PAULI) (kJ/mol) = 74.8581 (FRZ - CLS ELEC - DISP)
     E_disp      (DISP)      (kJ/mol) = -23.8418
  --------------------
--------------------

Simplified EDA Summary (kJ/mol)
--------------------
 PREPARATION      -0.0000
 FROZEN           -28.3575 (ELEC + PAULI + DISP)
[ELEC + PAULI = -4.5157, DISP = -23.8418]
 POLARIZATION    -12.7364
 CHARGE TRANSFER -22.2775     (counterpoise-corrected)
 TOTAL           -63.3714     (PRP + FRZ + POL + CT)
--------------------
 
 --------------------------------------------------------------
 
                    Orbital Energies (a.u.)
 --------------------------------------------------------------
 
 Alpha MOs
 -- Occupied --
-24.8091 -24.8091 -24.8072 -24.8072 -19.2725 -19.2725 -19.2655 -19.2655
-10.3808 -10.3808 -10.3794 -10.3794 -10.3574 -10.3574 -10.3543 -10.3543
-10.3294 -10.3294  -1.2917  -1.2916  -1.2898  -1.2898  -1.1492  -1.1389
 -1.1227  -1.1147  -0.9329  -0.9305  -0.8015  -0.7949  -0.7899  -0.7868
 -0.7810  -0.7802  -0.6893  -0.6792  -0.6464  -0.6464  -0.6273  -0.6234
 -0.6194  -0.6119  -0.6017  -0.5902  -0.5897  -0.5861  -0.5774  -0.5745
 -0.5577  -0.5569  -0.5498  -0.5481  -0.5324  -0.5291  -0.5224  -0.5189
 -0.5058  -0.4999  -0.4816  -0.4782  -0.4694  -0.4540  -0.4505  -0.4455
 -0.4384  -0.4378  -0.4222  -0.4201  -0.4113  -0.4036  -0.3793  -0.3675
 -0.3661  -0.3626
 -- Virtual --
  0.1175   0.1265   0.1331   0.1390   0.1579   0.1605   0.1624   0.1673
  0.1774   0.1887   0.1962   0.1970   0.2089   0.2130   0.2159   0.2195
  0.2240   0.2325   0.2373   0.2458   0.2548   0.2558   0.2613   0.2714
  0.2826   0.2963   0.3006   0.3046   0.3154   0.3176   0.3215   0.3352
  0.3385   0.3456   0.3496   0.3723   0.5064   0.5179   0.5189   0.5336
  0.5615   0.5629   0.5676   0.5679   0.5723   0.5881   0.5964   0.6001
  0.6064   0.6109   0.6265   0.6383   0.6461   0.6509   0.6708   0.6729
  0.6904   0.6936   0.7067   0.7169   0.7201   0.7244   0.7284   0.7325
  0.7350   0.7367   0.7440   0.7611   0.7632   0.7676   0.7695   0.7782
  0.7859   0.7920   0.8013   0.8087   0.8095   0.8180   0.8248   0.8273
  0.8284   0.8562   0.8565   0.8571   0.9176   0.9487   0.9834   0.9976
  1.0033   1.0602   1.0976   1.1014   1.1232   1.1315   1.1471   1.1693
  1.1995   1.2068   1.2186   1.2471   1.2833   1.2891   1.2931   1.2975
  1.3039   1.3108   1.3276   1.3485   1.3752   1.3787   1.3830   1.4102
  1.4112   1.4289   1.4503   1.4517   1.4725   1.4888   1.4993   1.4995
  1.5427   1.5484   1.5800   1.5825   1.6248   1.6309   1.6739   1.6821
  1.7447   1.7484   1.7829   1.7870   1.8142   1.8245   1.8481   1.8501
  1.8652   1.8884   1.8932   1.9079   1.9685   1.9692   1.9830   1.9965
  2.0311   2.0368   2.0480   2.0494   2.0575   2.0615   2.0703   2.0787
  2.1210   2.1390   2.1402   2.1408   2.1536   2.1548   2.1842   2.2010
  2.2021   2.2195   2.2275   2.2296   2.2462   2.2495   2.2762   2.3163
  2.5029   2.5064   2.5285   2.5320   2.6554   2.6604   2.6635   2.6678
  2.6923   2.7011   2.7421   2.7485   2.7656   2.7684   2.8727   2.8814
  2.9289   2.9329   3.0024   3.0146   3.0613   3.0629   3.0784   3.0983
  3.1148   3.1320   3.1855   3.1870   3.1901   3.1903   3.2001   3.2016
  3.2036   3.2072   3.3713   3.3729   3.3739   3.3763   3.4057   3.4083
  3.4415   3.4447   3.4532   3.4645   3.4787   3.4928   3.8484   3.8557
  3.8742   3.8859
 --------------------------------------------------------------
 
          Ground-State Mulliken Net Atomic Charges

     Atom                 Charge (a.u.)
  ----------------------------------------
      1 O                    -0.533677
      2 C                     0.082094
      3 C                    -0.435965
      4 C                     0.049776
      5 O                    -0.526134
      6 C                     0.153905
      7 F                    -0.272954
      8 C                     0.081745
      9 F                    -0.279207
     10 H                     0.343496
     11 H                     0.108160
     12 H                     0.124532
     13 H                     0.122327
     14 H                     0.131820
     15 H                     0.362949
     16 H                     0.125684
     17 H                     0.106238
     18 H                     0.146155
     19 H                     0.109057
     20 O                    -0.526134
     21 C                     0.049778
     22 C                    -0.435965
     23 C                     0.082093
     24 O                    -0.533676
     25 C                     0.081750
     26 F                    -0.279206
     27 C                     0.153905
     28 F                    -0.272954
     29 H                     0.362949
     30 H                     0.131819
     31 H                     0.122326
     32 H                     0.124532
     33 H                     0.108160
     34 H                     0.343494
     35 H                     0.146150
     36 H                     0.109057
     37 H                     0.125684
     38 H                     0.106238
  ----------------------------------------
  Sum of atomic charges =     0.000000

 -----------------------------------------------------------------
                    Cartesian Multipole Moments
 -----------------------------------------------------------------
    Charge (ESU x 10^10)
                 0.0000
    Dipole Moment (Debye)
         X      -0.0000      Y      -2.5127      Z       0.0001
       Tot       2.5127
    Quadrupole Moments (Debye-Ang)
        XX    -115.1748     XY       0.0000     YY    -110.5239
        XZ      -0.0584     YZ       0.0001     ZZ    -111.4455
    Octopole Moments (Debye-Ang^2)
       XXX       0.0005    XXY     -17.3829    XYY      -0.0011
       YYY     -19.4342    XXZ       0.0004    XYZ     -10.5990
       YYZ       0.0015    XZZ       0.0007    YZZ       4.3210
       ZZZ      -0.0002
    Hexadecapole Moments (Debye-Ang^3)
      XXXX   -5491.3682   XXXY      -0.0080   XXYY    -938.3443
      XYYY       0.0057   YYYY    -927.7879   XXXZ    -185.3030
      XXYZ      -0.0025   XYYZ      49.4672   YYYZ      -0.0012
      XXZZ    -982.6200   XYZZ      -0.0030   YYZZ    -316.0596
      XZZZ      11.9751   YZZZ       0.0039   ZZZZ    -847.5300
 -----------------------------------------------------------------
Archival summary:
1\1\tnxt-0468.cluster\SP\ProcedureUnspecified\BasisUnspecified\441020\peterli3\ThuSep1516:34:342022ThuSep1516:34:342022\0\\#,ProcedureUnspecified,BasisUnspecified,\\0,1\O\H,1,0.981893\C,1,1.40807,2,105.814\H,3,1.10477,1,107.226,2,-165.89,0\H,3,1.10621,1,110.681,2,77.3628,0\C,3,1.54438,1,113.342,2,-44.5265,0\C,6,1.52788,3,109.763,1,-64.0107,0\H,7,1.10116,6,110.157,3,64.0404,0\H,7,1.106,6,110.861,3,-56.9762,0\F,7,1.37941,6,110.568,3,-176.778,0\C,6,1.52966,3,108.886,1,177.633,0\H,11,1.10257,6,110.503,3,178.812,0\H,11,1.10592,6,110.263,3,58.6026,0\F,11,1.37542,6,110.982,3,-61.098,0\C,6,1.54553,3,111.014,1,57.6966,0\H,15,1.10062,6,109.006,3,64.3887,0\H,15,1.10572,6,109.173,3,-178.151,0\O,15,1.41246,6,113.712,3,-53.7984,0\H,18,0.976349,15,111.627,6,-70.435,0\O,19,1.96104,18,137.26,15,125.809,0\H,20,0.981894,19,93.4341,18,17.6955,0\C,20,1.40807,19,159.341,18,-141.212,0\H,22,1.10478,20,107.226,19,-7.81162,0\H,22,1.10621,20,110.681,19,-124.558,0\C,22,1.54438,20,113.342,19,113.552,0\C,25,1.52788,22,109.763,20,-64.0119,0\H,26,1.10116,25,110.157,22,64.039,0\H,26,1.106,25,110.861,22,-56.9777,0\F,26,1.37941,25,110.568,22,-176.78,0\C,25,1.52966,22,108.886,20,177.631,0\H,30,1.10257,25,110.503,22,178.81,0\H,30,1.10592,25,110.263,22,58.6012,0\F,30,1.37542,25,110.982,22,-61.0995,0\C,25,1.54553,22,111.014,20,57.6953,0\H,34,1.10062,25,109.006,22,64.3879,0\H,34,1.10572,25,109.173,22,-178.151,0\O,34,1.41246,25,113.712,22,-53.7991,0\H,37,0.976349,34,111.627,25,-70.4352,0\\\@

 Total job time:  331.70s(wall), 1552.67s(cpu) 
 Thu Sep 15 16:34:35 2022

        *************************************************************
        *                                                           *
        *  Thank you very much for using Q-Chem.  Have a nice day.  *
        *                                                           *
        *************************************************************


remove work dirs /scratch/user/peterli3819/peterli3819/12613585_1663277324000000969821639/qchem37501.0 -- /scratch/user/peterli3819/peterli3819/12613585_1663277324000000969821639/qchem37501.-1
rm -rf /scratch/user/peterli3819/peterli3819/12613585_1663277324000000969821639/qchem37501
real 338.79
user 2325.69
sys 70.34
