 Entering Gaussian System, Link 0=g16
 Input=gaussian_test.inp
 Output=gaussian_test.log
 Initial command:
 /sw/restricted/lms/sw/Gaussian/g16_B01/g16/l1.exe "/scratch/user/peterchao1/peterchao1/7003936_1675700546000000829001487/Gau-132381.inp" -scrdir="/scratch/user/peterchao1/peterchao1/7003936_1675700546000000829001487/"
 Entering Link 1 = /sw/restricted/lms/sw/Gaussian/g16_B01/g16/l1.exe PID=    132383.
  
 Copyright (c) 1988-2017, Gaussian, Inc.  All Rights Reserved.
  
 This is part of the Gaussian(R) 16 program.  It is based on
 the Gaussian(R) 09 system (copyright 2009, Gaussian, Inc.),
 the Gaussian(R) 03 system (copyright 2003, Gaussian, Inc.),
 the Gaussian(R) 98 system (copyright 1998, Gaussian, Inc.),
 the Gaussian(R) 94 system (copyright 1995, Gaussian, Inc.),
 the Gaussian 92(TM) system (copyright 1992, Gaussian, Inc.),
 the Gaussian 90(TM) system (copyright 1990, Gaussian, Inc.),
 the Gaussian 88(TM) system (copyright 1988, Gaussian, Inc.),
 the Gaussian 86(TM) system (copyright 1986, Carnegie Mellon
 University), and the Gaussian 82(TM) system (copyright 1983,
 Carnegie Mellon University). Gaussian is a federally registered
 trademark of Gaussian, Inc.
  
 This software contains proprietary and confidential information,
 including trade secrets, belonging to Gaussian, Inc.
  
 This software is provided under written license and may be
 used, copied, transmitted, or stored only in accord with that
 written license.
  
 The following legend is applicable only to US Government
 contracts under FAR:
  
                    RESTRICTED RIGHTS LEGEND
  
 Use, reproduction and disclosure by the US Government is
 subject to restrictions as set forth in subparagraphs (a)
 and (c) of the Commercial Computer Software - Restricted
 Rights clause in FAR 52.227-19.
  
 Gaussian, Inc.
 340 Quinnipiac St., Bldg. 40, Wallingford CT 06492
  
  
 ---------------------------------------------------------------
 Warning -- This program may not be used in any manner that
 competes with the business of Gaussian, Inc. or will provide
 assistance to any competitor of Gaussian, Inc.  The licensee
 of this program is prohibited from giving any competitor of
 Gaussian, Inc. access to this program.  By using this program,
 the user acknowledges that Gaussian, Inc. is engaged in the
 business of creating and licensing software in the field of
 computational chemistry and represents and warrants to the
 licensee that it is not a competitor of Gaussian, Inc. and that
 it will not use this program in any manner prohibited above.
 ---------------------------------------------------------------
  

 Cite this work as:
 Gaussian 16, Revision B.01,
 M. J. Frisch, G. W. Trucks, H. B. Schlegel, G. E. Scuseria, 
 M. A. Robb, J. R. Cheeseman, G. Scalmani, V. Barone, 
 G. A. Petersson, H. Nakatsuji, X. Li, M. Caricato, A. V. Marenich, 
 J. Bloino, B. G. Janesko, R. Gomperts, B. Mennucci, H. P. Hratchian, 
 J. V. Ortiz, A. F. Izmaylov, J. L. Sonnenberg, D. Williams-Young, 
 F. Ding, F. Lipparini, F. Egidi, J. Goings, B. Peng, A. Petrone, 
 T. Henderson, D. Ranasinghe, V. G. Zakrzewski, J. Gao, N. Rega, 
 G. Zheng, W. Liang, M. Hada, M. Ehara, K. Toyota, R. Fukuda, 
 J. Hasegawa, M. Ishida, T. Nakajima, Y. Honda, O. Kitao, H. Nakai, 
 T. Vreven, K. Throssell, J. A. Montgomery, Jr., J. E. Peralta, 
 F. Ogliaro, M. J. Bearpark, J. J. Heyd, E. N. Brothers, K. N. Kudin, 
 V. N. Staroverov, T. A. Keith, R. Kobayashi, J. Normand, 
 K. Raghavachari, A. P. Rendell, J. C. Burant, S. S. Iyengar, 
 J. Tomasi, M. Cossi, J. M. Millam, M. Klene, C. Adamo, R. Cammi, 
 J. W. Ochterski, R. L. Martin, K. Morokuma, O. Farkas, 
 J. B. Foresman, and D. J. Fox, Gaussian, Inc., Wallingford CT, 2016.
 
 ******************************************
 Gaussian 16:  ES64L-G16RevB.01 20-Dec-2017
                 6-Feb-2023 
 ******************************************
 %nprocshared=4
 Will use up to    4 processors via shared memory.
 %mem=8000mb
 %chk=18.chk
 %nprocshared=4
 Will use up to    4 processors via shared memory.
 %mem=8000mb
 ----------------------------------------------------------------------
 #T wB97XD/def2svpp opt=tight freq int(grid=ultrafine) scf=(verytight,q
 c) Volume=tight
 ----------------------------------------------------------------------
 -------
 Monomer
 -------
 Symbolic Z-matrix:
 Charge =  0 Multiplicity = 1
 C                     2.55406   0.91103  -0.00002 
 C                     1.32518  -0.01649   0. 
 C                     1.35189  -0.89376  -1.25782 
 C                     1.35188  -0.89368   1.25788 
 C                     0.09938   0.90801  -0.00003 
 Br                   -1.63089   0.00278  0. 
 H                     2.57061   1.55943   0.89426 
 H                     2.57061   1.55937  -0.89435 
 H                     3.48302   0.31436   0. 
 H                     2.27005  -1.50675  -1.27856 
 H                     1.33445  -0.27722  -2.17463 
 H                     0.48537  -1.5756   -1.28949 
 H                     1.33443  -0.27708   2.17465 
 H                     2.27004  -1.50667   1.27867 
 H                     0.48536  -1.57551   1.28959 
 H                     0.09151   1.54887  -0.89458 
 H                     0.09151   1.54893   0.89447 
 

 GradGradGradGradGradGradGradGradGradGradGradGradGradGradGradGradGradGrad
 Initialization pass.
                           ----------------------------
                           !    Initial Parameters    !
                           ! (Angstroms and Degrees)  !
 --------------------------                            --------------------------
 ! Name  Definition              Value          Derivative Info.                !
 --------------------------------------------------------------------------------
 ! R1    R(1,2)                  1.5396         estimate D2E/DX2                !
 ! R2    R(1,7)                  1.1047         estimate D2E/DX2                !
 ! R3    R(1,8)                  1.1047         estimate D2E/DX2                !
 ! R4    R(1,9)                  1.1041         estimate D2E/DX2                !
 ! R5    R(2,3)                  1.5338         estimate D2E/DX2                !
 ! R6    R(2,4)                  1.5338         estimate D2E/DX2                !
 ! R7    R(2,5)                  1.5353         estimate D2E/DX2                !
 ! R8    R(3,10)                 1.1042         estimate D2E/DX2                !
 ! R9    R(3,11)                 1.105          estimate D2E/DX2                !
 ! R10   R(3,12)                 1.1031         estimate D2E/DX2                !
 ! R11   R(4,13)                 1.105          estimate D2E/DX2                !
 ! R12   R(4,14)                 1.1042         estimate D2E/DX2                !
 ! R13   R(4,15)                 1.1031         estimate D2E/DX2                !
 ! R14   R(5,6)                  1.9528         estimate D2E/DX2                !
 ! R15   R(5,16)                 1.1004         estimate D2E/DX2                !
 ! R16   R(5,17)                 1.1004         estimate D2E/DX2                !
 ! A1    A(2,1,7)              111.4402         estimate D2E/DX2                !
 ! A2    A(2,1,8)              111.4402         estimate D2E/DX2                !
 ! A3    A(2,1,9)              110.2432         estimate D2E/DX2                !
 ! A4    A(7,1,8)              108.0979         estimate D2E/DX2                !
 ! A5    A(7,1,9)              107.7321         estimate D2E/DX2                !
 ! A6    A(8,1,9)              107.7322         estimate D2E/DX2                !
 ! A7    A(1,2,3)              109.3091         estimate D2E/DX2                !
 ! A8    A(1,2,4)              109.3091         estimate D2E/DX2                !
 ! A9    A(1,2,5)              105.9321         estimate D2E/DX2                !
 ! A10   A(3,2,4)              110.1908         estimate D2E/DX2                !
 ! A11   A(3,2,5)              110.9955         estimate D2E/DX2                !
 ! A12   A(4,2,5)              110.9953         estimate D2E/DX2                !
 ! A13   A(2,3,10)             110.3295         estimate D2E/DX2                !
 ! A14   A(2,3,11)             111.1624         estimate D2E/DX2                !
 ! A15   A(2,3,12)             111.3103         estimate D2E/DX2                !
 ! A16   A(10,3,11)            107.897          estimate D2E/DX2                !
 ! A17   A(10,3,12)            108.0301         estimate D2E/DX2                !
 ! A18   A(11,3,12)            107.9793         estimate D2E/DX2                !
 ! A19   A(2,4,13)             111.1625         estimate D2E/DX2                !
 ! A20   A(2,4,14)             110.3295         estimate D2E/DX2                !
 ! A21   A(2,4,15)             111.3103         estimate D2E/DX2                !
 ! A22   A(13,4,14)            107.897          estimate D2E/DX2                !
 ! A23   A(13,4,15)            107.9793         estimate D2E/DX2                !
 ! A24   A(14,4,15)            108.0301         estimate D2E/DX2                !
 ! A25   A(2,5,6)              115.3591         estimate D2E/DX2                !
 ! A26   A(2,5,16)             110.8785         estimate D2E/DX2                !
 ! A27   A(2,5,17)             110.8785         estimate D2E/DX2                !
 ! A28   A(6,5,16)             105.2863         estimate D2E/DX2                !
 ! A29   A(6,5,17)             105.2861         estimate D2E/DX2                !
 ! A30   A(16,5,17)            108.7564         estimate D2E/DX2                !
 ! D1    D(7,1,2,3)           -179.9171         estimate D2E/DX2                !
 ! D2    D(7,1,2,4)            -59.2347         estimate D2E/DX2                !
 ! D3    D(7,1,2,5)             60.424          estimate D2E/DX2                !
 ! D4    D(8,1,2,3)             59.2347         estimate D2E/DX2                !
 ! D5    D(8,1,2,4)            179.9171         estimate D2E/DX2                !
 ! D6    D(8,1,2,5)            -60.4242         estimate D2E/DX2                !
 ! D7    D(9,1,2,3)            -60.3412         estimate D2E/DX2                !
 ! D8    D(9,1,2,4)             60.3412         estimate D2E/DX2                !
 ! D9    D(9,1,2,5)            179.9999         estimate D2E/DX2                !
 ! D10   D(1,2,3,10)            59.8761         estimate D2E/DX2                !
 ! D11   D(1,2,3,11)           -59.7836         estimate D2E/DX2                !
 ! D12   D(1,2,3,12)           179.7987         estimate D2E/DX2                !
 ! D13   D(4,2,3,10)           -60.2671         estimate D2E/DX2                !
 ! D14   D(4,2,3,11)          -179.9268         estimate D2E/DX2                !
 ! D15   D(4,2,3,12)            59.6555         estimate D2E/DX2                !
 ! D16   D(5,2,3,10)           176.3639         estimate D2E/DX2                !
 ! D17   D(5,2,3,11)            56.7042         estimate D2E/DX2                !
 ! D18   D(5,2,3,12)           -63.7135         estimate D2E/DX2                !
 ! D19   D(1,2,4,13)            59.7834         estimate D2E/DX2                !
 ! D20   D(1,2,4,14)           -59.8763         estimate D2E/DX2                !
 ! D21   D(1,2,4,15)          -179.7988         estimate D2E/DX2                !
 ! D22   D(3,2,4,13)           179.9266         estimate D2E/DX2                !
 ! D23   D(3,2,4,14)            60.2669         estimate D2E/DX2                !
 ! D24   D(3,2,4,15)           -59.6557         estimate D2E/DX2                !
 ! D25   D(5,2,4,13)           -56.7043         estimate D2E/DX2                !
 ! D26   D(5,2,4,14)          -176.364          estimate D2E/DX2                !
 ! D27   D(5,2,4,15)            63.7135         estimate D2E/DX2                !
 ! D28   D(1,2,5,6)           -179.9997         estimate D2E/DX2                !
 ! D29   D(1,2,5,16)            60.4594         estimate D2E/DX2                !
 ! D30   D(1,2,5,17)           -60.459          estimate D2E/DX2                !
 ! D31   D(3,2,5,6)             61.4533         estimate D2E/DX2                !
 ! D32   D(3,2,5,16)           -58.0876         estimate D2E/DX2                !
 ! D33   D(3,2,5,17)          -179.0061         estimate D2E/DX2                !
 ! D34   D(4,2,5,6)            -61.4527         estimate D2E/DX2                !
 ! D35   D(4,2,5,16)           179.0064         estimate D2E/DX2                !
 ! D36   D(4,2,5,17)            58.088          estimate D2E/DX2                !
 --------------------------------------------------------------------------------
 Number of steps in this run=     92 maximum allowed number of steps=    102.
 GradGradGradGradGradGradGradGradGradGradGradGradGradGradGradGradGradGrad

                    Distance matrix (angstroms):
                    1          2          3          4          5
     1  C    0.000000
     2  C    1.539617   0.000000
     3  C    2.506897   1.533767   0.000000
     4  C    2.506898   1.533767   2.515703   0.000000
     5  C    2.454682   1.535350   2.529272   2.529269   0.000000
     6  Br   4.282373   2.956138   3.359003   3.358992   1.952761
     7  H    1.104735   2.198704   3.483515   2.763200   2.707597
     8  H    1.104734   2.198704   2.763199   3.483515   2.707598
     9  H    1.104078   2.183055   2.753797   2.753797   3.435327
    10  H    2.749726   2.179079   1.104175   2.766303   3.489634
    11  H    2.761937   2.190225   1.104975   3.487473   2.767496
    12  H    3.482169   2.190638   1.103067   2.775779   2.824892
    13  H    2.761937   2.190225   3.487472   1.104974   2.767493
    14  H    2.749728   2.179079   2.766302   1.104175   3.489632
    15  H    3.482169   2.190638   2.775780   1.103067   2.824888
    16  H    2.696516   2.184618   2.772533   3.491083   1.100444
    17  H    2.696512   2.184618   3.491084   2.772531   1.100444
                    6          7          8          9         10
     6  Br   0.000000
     7  H    4.568966   0.000000
     8  H    4.568971   1.788607   0.000000
     9  H    5.123397   1.783928   1.783927   0.000000
    10  H    4.373872   3.770009   3.104688   2.534262   0.000000
    11  H    3.687905   3.784105   2.557401   3.113738   1.786073
    12  H    2.938137   4.352628   3.785817   3.771026   1.786037
    13  H    3.687890   2.557400   3.784104   3.113736   3.783141
    14  H    4.373863   3.104691   3.770010   2.534263   2.557228
    15  H    2.938122   3.785817   4.352628   3.771027   3.128136
    16  H    2.481398   3.057118   2.479125   3.718416   3.772305
    17  H    2.481395   2.479118   3.057115   3.718412   4.336508
                   11         12         13         14         15
    11  H    0.000000
    12  H    1.786110   0.000000
    13  H    4.349279   3.795698   0.000000
    14  H    3.783141   3.128132   1.786072   0.000000
    15  H    3.795698   2.579079   1.786110   1.786038   0.000000
    16  H    2.553035   3.173856   3.781413   4.336508   3.832422
    17  H    3.781413   3.832426   2.553034   3.772303   3.173855
                   16         17
    16  H    0.000000
    17  H    1.789055   0.000000
 Framework group  C1[X(C5H11Br)]
 Deg. of freedom    45
                         Standard orientation:                         
 ---------------------------------------------------------------------
 Center     Atomic      Atomic             Coordinates (Angstroms)
 Number     Number       Type             X           Y           Z
 ---------------------------------------------------------------------
      1          6           0        2.554056    0.911029   -0.000024
      2          6           0        1.325182   -0.016489    0.000000
      3          6           0        1.351891   -0.893763   -1.257823
      4          6           0        1.351878   -0.893682    1.257880
      5          6           0        0.099376    0.908010   -0.000033
      6         35           0       -1.630893    0.002779   -0.000001
      7          1           0        2.570605    1.559430    0.894259
      8          1           0        2.570614    1.559372   -0.894348
      9          1           0        3.483021    0.314361    0.000000
     10          1           0        2.270049   -1.506754   -1.278562
     11          1           0        1.334445   -0.277217   -2.174631
     12          1           0        0.485373   -1.575599   -1.289493
     13          1           0        1.334426   -0.277078    2.174648
     14          1           0        2.270035   -1.506674    1.278666
     15          1           0        0.485358   -1.575514    1.289586
     16          1           0        0.091511    1.548866   -0.894582
     17          1           0        0.091509    1.548926    0.894473
 ---------------------------------------------------------------------
 Rotational constants (GHZ):           4.3576732           1.1380906           1.1349700
   124 basis functions,   249 primitive gaussians,   132 cartesian basis functions
    38 alpha electrons       38 beta electrons
       nuclear repulsion energy       432.7315327228 Hartrees.
 NAtoms=   17 NActive=   17 NUniq=   17 SFac= 1.00D+00 NAtFMM=   60 NAOKFM=F Big=F
 Nuclear repulsion after empirical dispersion term =      432.7200724147 Hartrees.
   1 Symmetry operations used in ECPInt.
 ECPInt:  NShTT=    2080 NPrTT=    9183 LenC2=    2063 LenP2D=    7287.
 LDataN:  DoStor=T MaxTD1= 4 Len=   56
 ExpMin= 1.22D-01 ExpMax= 1.13D+05 ExpMxC= 1.70D+04 IAcc=3 IRadAn=         5 AccDes= 0.00D+00
 Harris functional with IExCor= 4639 and IRadAn=       5 diagonalized for initial guess.
 HarFok:  IExCor= 4639 AccDes= 0.00D+00 IRadAn=         5 IDoV= 1 UseB2=F ITyADJ=14
 ICtDFT=  3500011 ScaDFX=  1.000000  1.000000  1.000000  1.000000
 FoFCou: FMM=F IPFlag=           0 FMFlag=      100000 FMFlg1=           0
         NFxFlg=           0 DoJE=T BraDBF=F KetDBF=T FulRan=T
         wScrn=  0.000000 ICntrl=       500 IOpCl=  0 I1Cent=   200000004 NGrid=           0
         NMat0=    1 NMatS0=      1 NMatT0=    0 NMatD0=    1 NMtDS0=    0 NMtDT0=    0
 Petite list used in FoFCou.
     Accept linear search using points  2 and  3.
     Accept linear search using points  2 and  3.
     Accept linear search using points  1 and  2.
     Accept linear search using points  1 and  2.
     Minimum is close to point  2 DX= -6.65D-05 DF=  0.00D+00 DXR=  6.65D-05 DFR=  0.00D+00 which will be used.
 SCF Done:  E(RwB97XD) =  -2770.85222213     a.u. after    7 cycles
            Convg  =    0.3908D-09                    32 Fock formations.
              S**2 =  0.0000                  -V/T =  2.0019

 **********************************************************************

            Population analysis using the SCF Density.

 **********************************************************************

 Orbital symmetries:
       Occupied  (A) (A) (A) (A) (A) (A) (A) (A) (A) (A) (A) (A)
                 (A) (A) (A) (A) (A) (A) (A) (A) (A) (A) (A) (A)
                 (A) (A) (A) (A) (A) (A) (A) (A) (A) (A) (A) (A)
                 (A) (A)
       Virtual   (A) (A) (A) (A) (A) (A) (A) (A) (A) (A) (A) (A)
                 (A) (A) (A) (A) (A) (A) (A) (A) (A) (A) (A) (A)
                 (A) (A) (A) (A) (A) (A) (A) (A) (A) (A) (A) (A)
                 (A) (A) (A) (A) (A) (A) (A) (A) (A) (A) (A) (A)
                 (A) (A) (A) (A) (A) (A) (A) (A) (A) (A) (A) (A)
                 (A) (A) (A) (A) (A) (A) (A) (A) (A) (A) (A) (A)
                 (A) (A) (A) (A) (A) (A) (A) (A) (A) (A) (A) (A)
                 (A) (A)
 The electronic state is 1-A.
 Alpha  occ. eigenvalues -- -483.04272 -62.62491 -56.43255 -56.42905 -56.42897
 Alpha  occ. eigenvalues --  -10.34448 -10.32321 -10.29289 -10.28470 -10.28468
 Alpha  occ. eigenvalues --   -8.79437  -6.61962  -6.60686  -6.60658  -2.72329
 Alpha  occ. eigenvalues --   -2.71972  -2.71950  -2.70933  -2.70933  -0.94117
 Alpha  occ. eigenvalues --   -0.87308  -0.78375  -0.77913  -0.75308  -0.62997
 Alpha  occ. eigenvalues --   -0.55931  -0.55403  -0.53463  -0.50576  -0.48994
 Alpha  occ. eigenvalues --   -0.46227  -0.45233  -0.44969  -0.42963  -0.41678
 Alpha  occ. eigenvalues --   -0.40873  -0.35207  -0.35085
 Alpha virt. eigenvalues --    0.08479   0.12672   0.16877   0.17274   0.18953
 Alpha virt. eigenvalues --    0.19507   0.19768   0.20992   0.22379   0.25081
 Alpha virt. eigenvalues --    0.26096   0.26486   0.26528   0.28532   0.30039
 Alpha virt. eigenvalues --    0.30546   0.43592   0.44729   0.46696   0.49243
 Alpha virt. eigenvalues --    0.50344   0.50946   0.57093   0.57448   0.60880
 Alpha virt. eigenvalues --    0.64053   0.64898   0.67028   0.67884   0.67886
 Alpha virt. eigenvalues --    0.71453   0.72422   0.74038   0.74952   0.75869
 Alpha virt. eigenvalues --    0.76326   0.76543   0.79604   0.80170   0.80566
 Alpha virt. eigenvalues --    0.81255   0.82575   0.83204   0.84230   0.84334
 Alpha virt. eigenvalues --    0.85305   0.87194   0.89885   0.89897   0.96746
 Alpha virt. eigenvalues --    1.05333   1.08965   1.12666   1.22658   1.25263
 Alpha virt. eigenvalues --    1.26271   1.46338   1.48983   1.78856   1.79595
 Alpha virt. eigenvalues --    1.80992   1.88696   1.90411   1.90856   2.08316
 Alpha virt. eigenvalues --    2.10254   2.11106   2.11949   2.12236   2.19781
 Alpha virt. eigenvalues --    2.23714   2.24307   2.25080   2.26044   2.26951
 Alpha virt. eigenvalues --    2.29086   2.61157   2.61449   2.75023   2.75675
 Alpha virt. eigenvalues --    2.76128   3.56241   3.56291   3.65126   3.65172
 Alpha virt. eigenvalues --    3.89480
          Condensed to atoms (all electrons):
 Mulliken charges:
               1
     1  C   -0.274401
     2  C   -0.258824
     3  C   -0.270269
     4  C   -0.270270
     5  C   -0.188574
     6  Br  -0.133720
     7  H    0.117799
     8  H    0.117799
     9  H    0.124803
    10  H    0.116995
    11  H    0.113753
    12  H    0.134639
    13  H    0.113753
    14  H    0.116995
    15  H    0.134639
    16  H    0.152442
    17  H    0.152442
 Sum of Mulliken charges =   0.00000
 Mulliken charges with hydrogens summed into heavy atoms:
               1
     1  C    0.085999
     2  C   -0.258824
     3  C    0.095118
     4  C    0.095118
     5  C    0.116309
     6  Br  -0.133720
 Electronic spatial extent (au):  <R**2>=           1121.6261
 Charge=              0.0000 electrons
 Dipole moment (field-independent basis, Debye):
    X=              1.8974    Y=              0.6319    Z=             -0.0000  Tot=              1.9998
 Evaluate density.
 Using the total density.
 Monte-Carlo method of calculating molar volume:
 based on  0.001 e/bohr**3 density envelope.
 Number of points per bohr**3 =  100 CutOff= 1.00D-04
 Using the SCF density.
 There are      2097 points.  Will hold      2097 in memory.
 LenV=  1048274280 MDV=  1048576000.
 Box volume = 9234.484 fraction occupied=0.103
 Integrated density= 1.3100603637646859D+02 error= 5.5006036376468586D+01
 Molar volume =  951.191 bohr**3/mol ( 84.883 cm**3/mol)
 Recommended a0 for SCRF calculation =  4.05 angstrom (  7.66 bohr)
   1 Symmetry operations used in ECPInt.
 ECPInt:  NShTT=    2080 NPrTT=    9183 LenC2=    2063 LenP2D=    7287.
 LDataN:  DoStor=T MaxTD1= 5 Len=  102
 Calling FoFJK, ICntrl=      2127 FMM=F ISym2X=0 I1Cent= 0 IOpClX= 0 NMat=1 NMatS=1 NMatT=0.

 GradGradGradGradGradGradGradGradGradGradGradGradGradGradGradGradGradGrad
 FormGI is forming the generalized inverse of G from B-inverse, IUseBI=4.
 Internal  Forces:  Max     0.000000867 RMS     0.000000197
 Step number   1 out of a maximum of   92
 All quantities printed in internal units (Hartrees-Bohrs-Radians)
 Mixed Optimization -- En-DIIS/RFO-DIIS
 Second derivative matrix not updated -- first step.
 ITU=  0
     Eigenvalues ---    0.00242   0.00298   0.00319   0.00319   0.04344
     Eigenvalues ---    0.04840   0.05051   0.05209   0.05353   0.05450
     Eigenvalues ---    0.05450   0.05510   0.05557   0.05557   0.05656
     Eigenvalues ---    0.14123   0.14673   0.15898   0.16000   0.16000
     Eigenvalues ---    0.16000   0.16000   0.16000   0.16000   0.16000
     Eigenvalues ---    0.16000   0.16000   0.16000   0.16000   0.22247
     Eigenvalues ---    0.28553   0.28935   0.29078   0.29078   0.33138
     Eigenvalues ---    0.33138   0.33164   0.33164   0.33225   0.33225
     Eigenvalues ---    0.33235   0.33345   0.33345   0.33633   0.33633
 Linear search not attempted -- first point.
 Iteration  1 RMS(Cart)=  0.00000725 RMS(Int)=  0.00000000
 Iteration  2 RMS(Cart)=  0.00000000 RMS(Int)=  0.00000000
 Variable       Old X    -DE/DX   Delta X   Delta X   Delta X     New X
                                 (Linear)    (Quad)   (Total)
    R1        2.90945   0.00000   0.00000   0.00000   0.00000   2.90946
    R2        2.08765  -0.00000   0.00000  -0.00000  -0.00000   2.08765
    R3        2.08765  -0.00000   0.00000  -0.00000  -0.00000   2.08765
    R4        2.08641  -0.00000   0.00000  -0.00000  -0.00000   2.08640
    R5        2.89840   0.00000   0.00000   0.00000   0.00000   2.89840
    R6        2.89840   0.00000   0.00000   0.00000   0.00000   2.89840
    R7        2.90139  -0.00000   0.00000  -0.00000  -0.00000   2.90139
    R8        2.08659  -0.00000   0.00000  -0.00000  -0.00000   2.08659
    R9        2.08810  -0.00000   0.00000  -0.00000  -0.00000   2.08810
   R10        2.08449  -0.00000   0.00000  -0.00000  -0.00000   2.08449
   R11        2.08810   0.00000   0.00000   0.00000   0.00000   2.08810
   R12        2.08659  -0.00000   0.00000  -0.00000  -0.00000   2.08659
   R13        2.08449  -0.00000   0.00000  -0.00000  -0.00000   2.08449
   R14        3.69018   0.00000   0.00000   0.00000   0.00000   3.69018
   R15        2.07954  -0.00000   0.00000  -0.00000  -0.00000   2.07954
   R16        2.07954  -0.00000   0.00000  -0.00000  -0.00000   2.07954
    A1        1.94500   0.00000   0.00000   0.00000   0.00000   1.94500
    A2        1.94500  -0.00000   0.00000  -0.00000  -0.00000   1.94500
    A3        1.92411   0.00000   0.00000   0.00000   0.00000   1.92411
    A4        1.88666   0.00000   0.00000   0.00000   0.00000   1.88666
    A5        1.88028  -0.00000   0.00000  -0.00000  -0.00000   1.88028
    A6        1.88028  -0.00000   0.00000  -0.00000  -0.00000   1.88028
    A7        1.90780   0.00000   0.00000   0.00000   0.00000   1.90780
    A8        1.90780  -0.00000   0.00000  -0.00000  -0.00000   1.90780
    A9        1.84886   0.00000   0.00000   0.00000   0.00000   1.84886
   A10        1.92319   0.00000   0.00000   0.00000   0.00000   1.92319
   A11        1.93724  -0.00000   0.00000  -0.00000  -0.00000   1.93723
   A12        1.93723   0.00000   0.00000   0.00000   0.00000   1.93724
   A13        1.92561  -0.00000   0.00000  -0.00000  -0.00000   1.92561
   A14        1.94015   0.00000   0.00000   0.00000   0.00000   1.94015
   A15        1.94273  -0.00000   0.00000  -0.00000  -0.00000   1.94273
   A16        1.88316   0.00000   0.00000   0.00000   0.00000   1.88316
   A17        1.88548   0.00000   0.00000   0.00000   0.00000   1.88548
   A18        1.88459   0.00000   0.00000   0.00000   0.00000   1.88460
   A19        1.94015  -0.00000   0.00000  -0.00000  -0.00000   1.94015
   A20        1.92561   0.00000   0.00000   0.00000   0.00000   1.92561
   A21        1.94273  -0.00000   0.00000  -0.00000  -0.00000   1.94273
   A22        1.88316   0.00000   0.00000   0.00000   0.00000   1.88316
   A23        1.88460   0.00000   0.00000   0.00000   0.00000   1.88460
   A24        1.88548   0.00000   0.00000   0.00000   0.00000   1.88548
   A25        2.01340  -0.00000   0.00000  -0.00000  -0.00000   2.01339
   A26        1.93520   0.00000   0.00000   0.00000   0.00000   1.93520
   A27        1.93519   0.00000   0.00000   0.00000   0.00000   1.93520
   A28        1.83759  -0.00000   0.00000  -0.00000  -0.00000   1.83759
   A29        1.83759   0.00000   0.00000   0.00000   0.00000   1.83759
   A30        1.89816  -0.00000   0.00000   0.00000   0.00000   1.89816
    D1       -3.14015  -0.00000   0.00000   0.00000   0.00000  -3.14014
    D2       -1.03384  -0.00000   0.00000   0.00000   0.00000  -1.03384
    D3        1.05460   0.00000   0.00000   0.00000   0.00000   1.05460
    D4        1.03384  -0.00000   0.00000   0.00000   0.00000   1.03384
    D5        3.14015  -0.00000   0.00000   0.00000   0.00000   3.14015
    D6       -1.05460   0.00000   0.00000   0.00000   0.00000  -1.05460
    D7       -1.05315  -0.00000   0.00000   0.00000   0.00000  -1.05315
    D8        1.05315  -0.00000   0.00000   0.00000   0.00000   1.05315
    D9        3.14159   0.00000   0.00000   0.00000   0.00000  -3.14159
   D10        1.04504  -0.00000   0.00000  -0.00000  -0.00000   1.04503
   D11       -1.04342  -0.00000   0.00000  -0.00000  -0.00000  -1.04342
   D12        3.13808  -0.00000   0.00000  -0.00000  -0.00000   3.13808
   D13       -1.05186   0.00000   0.00000  -0.00000  -0.00000  -1.05186
   D14       -3.14031   0.00000   0.00000  -0.00000  -0.00000  -3.14032
   D15        1.04119   0.00000   0.00000  -0.00000  -0.00000   1.04118
   D16        3.07813  -0.00000   0.00000  -0.00000  -0.00000   3.07813
   D17        0.98967  -0.00000   0.00000  -0.00000  -0.00000   0.98967
   D18       -1.11201  -0.00000   0.00000  -0.00000  -0.00000  -1.11201
   D19        1.04342   0.00000   0.00000   0.00001   0.00001   1.04342
   D20       -1.04504   0.00000   0.00000   0.00001   0.00001  -1.04503
   D21       -3.13808   0.00000   0.00000   0.00001   0.00001  -3.13808
   D22        3.14031   0.00000   0.00000   0.00001   0.00001   3.14032
   D23        1.05186   0.00000   0.00000   0.00001   0.00001   1.05186
   D24       -1.04119   0.00000   0.00000   0.00001   0.00001  -1.04118
   D25       -0.98968  -0.00000   0.00000   0.00000   0.00000  -0.98967
   D26       -3.07813  -0.00000   0.00000   0.00000   0.00000  -3.07813
   D27        1.11201  -0.00000   0.00000   0.00000   0.00000   1.11201
   D28       -3.14159  -0.00000   0.00000  -0.00002  -0.00002   3.14158
   D29        1.05522   0.00000   0.00000  -0.00001  -0.00001   1.05521
   D30       -1.05521  -0.00000   0.00000  -0.00002  -0.00002  -1.05522
   D31        1.07256  -0.00000   0.00000  -0.00002  -0.00002   1.07255
   D32       -1.01382   0.00000   0.00000  -0.00001  -0.00001  -1.01383
   D33       -3.12425  -0.00000   0.00000  -0.00001  -0.00001  -3.12426
   D34       -1.07255  -0.00000   0.00000  -0.00002  -0.00002  -1.07257
   D35        3.12425   0.00000   0.00000  -0.00001  -0.00001   3.12424
   D36        1.01383  -0.00000   0.00000  -0.00001  -0.00001   1.01381
         Item               Value     Threshold  Converged?
 Maximum Force            0.000001     0.000015     YES
 RMS     Force            0.000000     0.000010     YES
 Maximum Displacement     0.000046     0.000060     YES
 RMS     Displacement     0.000007     0.000040     YES
 Optimization completed.
    -- Stationary point found.
                           ----------------------------
                           !   Optimized Parameters   !
                           ! (Angstroms and Degrees)  !
 --------------------------                            --------------------------
 ! Name  Definition              Value          Derivative Info.                !
 --------------------------------------------------------------------------------
 ! R1    R(1,2)                  1.5396         -DE/DX =    0.0                 !
 ! R2    R(1,7)                  1.1047         -DE/DX =    0.0                 !
 ! R3    R(1,8)                  1.1047         -DE/DX =    0.0                 !
 ! R4    R(1,9)                  1.1041         -DE/DX =    0.0                 !
 ! R5    R(2,3)                  1.5338         -DE/DX =    0.0                 !
 ! R6    R(2,4)                  1.5338         -DE/DX =    0.0                 !
 ! R7    R(2,5)                  1.5353         -DE/DX =    0.0                 !
 ! R8    R(3,10)                 1.1042         -DE/DX =    0.0                 !
 ! R9    R(3,11)                 1.105          -DE/DX =    0.0                 !
 ! R10   R(3,12)                 1.1031         -DE/DX =    0.0                 !
 ! R11   R(4,13)                 1.105          -DE/DX =    0.0                 !
 ! R12   R(4,14)                 1.1042         -DE/DX =    0.0                 !
 ! R13   R(4,15)                 1.1031         -DE/DX =    0.0                 !
 ! R14   R(5,6)                  1.9528         -DE/DX =    0.0                 !
 ! R15   R(5,16)                 1.1004         -DE/DX =    0.0                 !
 ! R16   R(5,17)                 1.1004         -DE/DX =    0.0                 !
 ! A1    A(2,1,7)              111.4402         -DE/DX =    0.0                 !
 ! A2    A(2,1,8)              111.4402         -DE/DX =    0.0                 !
 ! A3    A(2,1,9)              110.2432         -DE/DX =    0.0                 !
 ! A4    A(7,1,8)              108.0979         -DE/DX =    0.0                 !
 ! A5    A(7,1,9)              107.7321         -DE/DX =    0.0                 !
 ! A6    A(8,1,9)              107.7322         -DE/DX =    0.0                 !
 ! A7    A(1,2,3)              109.3091         -DE/DX =    0.0                 !
 ! A8    A(1,2,4)              109.3091         -DE/DX =    0.0                 !
 ! A9    A(1,2,5)              105.9321         -DE/DX =    0.0                 !
 ! A10   A(3,2,4)              110.1908         -DE/DX =    0.0                 !
 ! A11   A(3,2,5)              110.9955         -DE/DX =    0.0                 !
 ! A12   A(4,2,5)              110.9953         -DE/DX =    0.0                 !
 ! A13   A(2,3,10)             110.3295         -DE/DX =    0.0                 !
 ! A14   A(2,3,11)             111.1624         -DE/DX =    0.0                 !
 ! A15   A(2,3,12)             111.3103         -DE/DX =    0.0                 !
 ! A16   A(10,3,11)            107.897          -DE/DX =    0.0                 !
 ! A17   A(10,3,12)            108.0301         -DE/DX =    0.0                 !
 ! A18   A(11,3,12)            107.9793         -DE/DX =    0.0                 !
 ! A19   A(2,4,13)             111.1625         -DE/DX =    0.0                 !
 ! A20   A(2,4,14)             110.3295         -DE/DX =    0.0                 !
 ! A21   A(2,4,15)             111.3103         -DE/DX =    0.0                 !
 ! A22   A(13,4,14)            107.897          -DE/DX =    0.0                 !
 ! A23   A(13,4,15)            107.9793         -DE/DX =    0.0                 !
 ! A24   A(14,4,15)            108.0301         -DE/DX =    0.0                 !
 ! A25   A(2,5,6)              115.3591         -DE/DX =    0.0                 !
 ! A26   A(2,5,16)             110.8785         -DE/DX =    0.0                 !
 ! A27   A(2,5,17)             110.8785         -DE/DX =    0.0                 !
 ! A28   A(6,5,16)             105.2863         -DE/DX =    0.0                 !
 ! A29   A(6,5,17)             105.2861         -DE/DX =    0.0                 !
 ! A30   A(16,5,17)            108.7564         -DE/DX =    0.0                 !
 ! D1    D(7,1,2,3)           -179.9171         -DE/DX =    0.0                 !
 ! D2    D(7,1,2,4)            -59.2347         -DE/DX =    0.0                 !
 ! D3    D(7,1,2,5)             60.424          -DE/DX =    0.0                 !
 ! D4    D(8,1,2,3)             59.2347         -DE/DX =    0.0                 !
 ! D5    D(8,1,2,4)            179.9171         -DE/DX =    0.0                 !
 ! D6    D(8,1,2,5)            -60.4242         -DE/DX =    0.0                 !
 ! D7    D(9,1,2,3)            -60.3412         -DE/DX =    0.0                 !
 ! D8    D(9,1,2,4)             60.3412         -DE/DX =    0.0                 !
 ! D9    D(9,1,2,5)           -180.0001         -DE/DX =    0.0                 !
 ! D10   D(1,2,3,10)            59.8761         -DE/DX =    0.0                 !
 ! D11   D(1,2,3,11)           -59.7836         -DE/DX =    0.0                 !
 ! D12   D(1,2,3,12)           179.7987         -DE/DX =    0.0                 !
 ! D13   D(4,2,3,10)           -60.2671         -DE/DX =    0.0                 !
 ! D14   D(4,2,3,11)          -179.9268         -DE/DX =    0.0                 !
 ! D15   D(4,2,3,12)            59.6555         -DE/DX =    0.0                 !
 ! D16   D(5,2,3,10)           176.3639         -DE/DX =    0.0                 !
 ! D17   D(5,2,3,11)            56.7042         -DE/DX =    0.0                 !
 ! D18   D(5,2,3,12)           -63.7135         -DE/DX =    0.0                 !
 ! D19   D(1,2,4,13)            59.7834         -DE/DX =    0.0                 !
 ! D20   D(1,2,4,14)           -59.8763         -DE/DX =    0.0                 !
 ! D21   D(1,2,4,15)          -179.7988         -DE/DX =    0.0                 !
 ! D22   D(3,2,4,13)           179.9266         -DE/DX =    0.0                 !
 ! D23   D(3,2,4,14)            60.2669         -DE/DX =    0.0                 !
 ! D24   D(3,2,4,15)           -59.6557         -DE/DX =    0.0                 !
 ! D25   D(5,2,4,13)           -56.7043         -DE/DX =    0.0                 !
 ! D26   D(5,2,4,14)          -176.364          -DE/DX =    0.0                 !
 ! D27   D(5,2,4,15)            63.7135         -DE/DX =    0.0                 !
 ! D28   D(1,2,5,6)            180.0003         -DE/DX =    0.0                 !
 ! D29   D(1,2,5,16)            60.4594         -DE/DX =    0.0                 !
 ! D30   D(1,2,5,17)           -60.459          -DE/DX =    0.0                 !
 ! D31   D(3,2,5,6)             61.4533         -DE/DX =    0.0                 !
 ! D32   D(3,2,5,16)           -58.0876         -DE/DX =    0.0                 !
 ! D33   D(3,2,5,17)          -179.0061         -DE/DX =    0.0                 !
 ! D34   D(4,2,5,6)            -61.4527         -DE/DX =    0.0                 !
 ! D35   D(4,2,5,16)           179.0064         -DE/DX =    0.0                 !
 ! D36   D(4,2,5,17)            58.088          -DE/DX =    0.0                 !
 --------------------------------------------------------------------------------
 GradGradGradGradGradGradGradGradGradGradGradGradGradGradGradGradGradGrad

                    Distance matrix (angstroms):
                    1          2          3          4          5
     1  C    0.000000
     2  C    1.539617   0.000000
     3  C    2.506897   1.533767   0.000000
     4  C    2.506898   1.533767   2.515703   0.000000
     5  C    2.454682   1.535350   2.529272   2.529269   0.000000
     6  Br   4.282373   2.956138   3.359003   3.358992   1.952761
     7  H    1.104735   2.198704   3.483515   2.763200   2.707597
     8  H    1.104734   2.198704   2.763199   3.483515   2.707598
     9  H    1.104078   2.183055   2.753797   2.753797   3.435327
    10  H    2.749726   2.179079   1.104175   2.766303   3.489634
    11  H    2.761937   2.190225   1.104975   3.487473   2.767496
    12  H    3.482169   2.190638   1.103067   2.775779   2.824892
    13  H    2.761937   2.190225   3.487472   1.104974   2.767493
    14  H    2.749728   2.179079   2.766302   1.104175   3.489632
    15  H    3.482169   2.190638   2.775780   1.103067   2.824888
    16  H    2.696516   2.184618   2.772533   3.491083   1.100444
    17  H    2.696512   2.184618   3.491084   2.772531   1.100444
                    6          7          8          9         10
     6  Br   0.000000
     7  H    4.568966   0.000000
     8  H    4.568971   1.788607   0.000000
     9  H    5.123397   1.783928   1.783927   0.000000
    10  H    4.373872   3.770009   3.104688   2.534262   0.000000
    11  H    3.687905   3.784105   2.557401   3.113738   1.786073
    12  H    2.938137   4.352628   3.785817   3.771026   1.786037
    13  H    3.687890   2.557400   3.784104   3.113736   3.783141
    14  H    4.373863   3.104691   3.770010   2.534263   2.557228
    15  H    2.938122   3.785817   4.352628   3.771027   3.128136
    16  H    2.481398   3.057118   2.479125   3.718416   3.772305
    17  H    2.481395   2.479118   3.057115   3.718412   4.336508
                   11         12         13         14         15
    11  H    0.000000
    12  H    1.786110   0.000000
    13  H    4.349279   3.795698   0.000000
    14  H    3.783141   3.128132   1.786072   0.000000
    15  H    3.795698   2.579079   1.786110   1.786038   0.000000
    16  H    2.553035   3.173856   3.781413   4.336508   3.832422
    17  H    3.781413   3.832426   2.553034   3.772303   3.173855
                   16         17
    16  H    0.000000
    17  H    1.789055   0.000000
 Framework group  C1[X(C5H11Br)]
 Deg. of freedom    45
                         Standard orientation:                         
 ---------------------------------------------------------------------
 Center     Atomic      Atomic             Coordinates (Angstroms)
 Number     Number       Type             X           Y           Z
 ---------------------------------------------------------------------
      1          6           0        2.554056    0.911029   -0.000024
      2          6           0        1.325182   -0.016489    0.000000
      3          6           0        1.351891   -0.893763   -1.257823
      4          6           0        1.351878   -0.893682    1.257880
      5          6           0        0.099376    0.908010   -0.000033
      6         35           0       -1.630893    0.002779   -0.000001
      7          1           0        2.570605    1.559430    0.894259
      8          1           0        2.570614    1.559372   -0.894348
      9          1           0        3.483021    0.314361    0.000000
     10          1           0        2.270049   -1.506754   -1.278562
     11          1           0        1.334445   -0.277217   -2.174631
     12          1           0        0.485373   -1.575599   -1.289493
     13          1           0        1.334426   -0.277078    2.174648
     14          1           0        2.270035   -1.506674    1.278666
     15          1           0        0.485358   -1.575514    1.289586
     16          1           0        0.091511    1.548866   -0.894582
     17          1           0        0.091509    1.548926    0.894473
 ---------------------------------------------------------------------
 Rotational constants (GHZ):           4.3576732           1.1380906           1.1349700
 1\1\GINC-C010\FOpt\RwB97XD\def2SVPP\C5H11Br1\PETERCHAO1\06-Feb-2023\0\
 \#T wB97XD/def2svpp opt=tight freq int(grid=ultrafine) scf=(verytight,
 qc) Volume=tight\\Monomer\\0,1\C,2.554056,0.911029,-0.000024\C,1.32518
 2,-0.016489,0.\C,1.351891,-0.893763,-1.257823\C,1.351878,-0.893682,1.2
 5788\C,0.099376,0.90801,-0.000033\Br,-1.630893,0.002779,-0.000001\H,2.
 570605,1.55943,0.894259\H,2.570614,1.559372,-0.894348\H,3.483021,0.314
 361,0.\H,2.270049,-1.506754,-1.278562\H,1.334445,-0.277217,-2.174631\H
 ,0.485373,-1.575599,-1.289493\H,1.334426,-0.277078,2.174648\H,2.270035
 ,-1.506674,1.278666\H,0.485358,-1.575514,1.289586\H,0.091511,1.548866,
 -0.894582\H,0.091509,1.548926,0.894473\\Version=ES64L-G16RevB.01\State
 =1-A\HF=-2770.8522221\RMSD=4.834e-12\RMSF=4.106e-07\Dipole=0.7464784,0
 .2485963,-0.0000082\Quadrupole=-0.6741106,0.7867776,-0.112667,0.378596
 3,-0.0000196,-0.0000309\PG=C01 [X(C5H11Br1)]\\@


 SCIENCE AT ITS BEST PROVIDES US WITH BETTER QUESTIONS, 
 NOT ABSOLUTE ANSWERS

                                    -- NORMAN COUSINS, 1976
 File lengths (MBytes):  RWF=      7 Int=      0 D2E=      0 Chk=      2 Scr=      1
 Normal termination of Gaussian 16 at Mon Feb  6 10:23:05 2023.
 Link1:  Proceeding to internal job step number  2.
 ---------------------------------------------------------------------
 #T Geom=AllCheck Guess=TCheck SCRF=Check GenChk RwB97XD/def2SVPP Freq
 ---------------------------------------------------------------------
 Structure from the checkpoint file:  "18.chk"
 -------
 Monomer
 -------
 Charge =  0 Multiplicity = 1
 Redundant internal coordinates found in file.  (old form).
 C,0,2.554056,0.911029,-0.000024
 C,0,1.325182,-0.016489,0.
 C,0,1.351891,-0.893763,-1.257823
 C,0,1.351878,-0.893682,1.25788
 C,0,0.099376,0.90801,-0.000033
 Br,0,-1.630893,0.002779,-0.000001
 H,0,2.570605,1.55943,0.894259
 H,0,2.570614,1.559372,-0.894348
 H,0,3.483021,0.314361,0.
 H,0,2.270049,-1.506754,-1.278562
 H,0,1.334445,-0.277217,-2.174631
 H,0,0.485373,-1.575599,-1.289493
 H,0,1.334426,-0.277078,2.174648
 H,0,2.270035,-1.506674,1.278666
 H,0,0.485358,-1.575514,1.289586
 H,0,0.091511,1.548866,-0.894582
 H,0,0.091509,1.548926,0.894473
 Recover connectivity data from disk.

 GradGradGradGradGradGradGradGradGradGradGradGradGradGradGradGradGradGrad
 Initialization pass.
                           ----------------------------
                           !    Initial Parameters    !
                           ! (Angstroms and Degrees)  !
 --------------------------                            --------------------------
 ! Name  Definition              Value          Derivative Info.                !
 --------------------------------------------------------------------------------
 ! R1    R(1,2)                  1.5396         calculate D2E/DX2 analytically  !
 ! R2    R(1,7)                  1.1047         calculate D2E/DX2 analytically  !
 ! R3    R(1,8)                  1.1047         calculate D2E/DX2 analytically  !
 ! R4    R(1,9)                  1.1041         calculate D2E/DX2 analytically  !
 ! R5    R(2,3)                  1.5338         calculate D2E/DX2 analytically  !
 ! R6    R(2,4)                  1.5338         calculate D2E/DX2 analytically  !
 ! R7    R(2,5)                  1.5353         calculate D2E/DX2 analytically  !
 ! R8    R(3,10)                 1.1042         calculate D2E/DX2 analytically  !
 ! R9    R(3,11)                 1.105          calculate D2E/DX2 analytically  !
 ! R10   R(3,12)                 1.1031         calculate D2E/DX2 analytically  !
 ! R11   R(4,13)                 1.105          calculate D2E/DX2 analytically  !
 ! R12   R(4,14)                 1.1042         calculate D2E/DX2 analytically  !
 ! R13   R(4,15)                 1.1031         calculate D2E/DX2 analytically  !
 ! R14   R(5,6)                  1.9528         calculate D2E/DX2 analytically  !
 ! R15   R(5,16)                 1.1004         calculate D2E/DX2 analytically  !
 ! R16   R(5,17)                 1.1004         calculate D2E/DX2 analytically  !
 ! A1    A(2,1,7)              111.4402         calculate D2E/DX2 analytically  !
 ! A2    A(2,1,8)              111.4402         calculate D2E/DX2 analytically  !
 ! A3    A(2,1,9)              110.2432         calculate D2E/DX2 analytically  !
 ! A4    A(7,1,8)              108.0979         calculate D2E/DX2 analytically  !
 ! A5    A(7,1,9)              107.7321         calculate D2E/DX2 analytically  !
 ! A6    A(8,1,9)              107.7322         calculate D2E/DX2 analytically  !
 ! A7    A(1,2,3)              109.3091         calculate D2E/DX2 analytically  !
 ! A8    A(1,2,4)              109.3091         calculate D2E/DX2 analytically  !
 ! A9    A(1,2,5)              105.9321         calculate D2E/DX2 analytically  !
 ! A10   A(3,2,4)              110.1908         calculate D2E/DX2 analytically  !
 ! A11   A(3,2,5)              110.9955         calculate D2E/DX2 analytically  !
 ! A12   A(4,2,5)              110.9953         calculate D2E/DX2 analytically  !
 ! A13   A(2,3,10)             110.3295         calculate D2E/DX2 analytically  !
 ! A14   A(2,3,11)             111.1624         calculate D2E/DX2 analytically  !
 ! A15   A(2,3,12)             111.3103         calculate D2E/DX2 analytically  !
 ! A16   A(10,3,11)            107.897          calculate D2E/DX2 analytically  !
 ! A17   A(10,3,12)            108.0301         calculate D2E/DX2 analytically  !
 ! A18   A(11,3,12)            107.9793         calculate D2E/DX2 analytically  !
 ! A19   A(2,4,13)             111.1625         calculate D2E/DX2 analytically  !
 ! A20   A(2,4,14)             110.3295         calculate D2E/DX2 analytically  !
 ! A21   A(2,4,15)             111.3103         calculate D2E/DX2 analytically  !
 ! A22   A(13,4,14)            107.897          calculate D2E/DX2 analytically  !
 ! A23   A(13,4,15)            107.9793         calculate D2E/DX2 analytically  !
 ! A24   A(14,4,15)            108.0301         calculate D2E/DX2 analytically  !
 ! A25   A(2,5,6)              115.3591         calculate D2E/DX2 analytically  !
 ! A26   A(2,5,16)             110.8785         calculate D2E/DX2 analytically  !
 ! A27   A(2,5,17)             110.8785         calculate D2E/DX2 analytically  !
 ! A28   A(6,5,16)             105.2863         calculate D2E/DX2 analytically  !
 ! A29   A(6,5,17)             105.2861         calculate D2E/DX2 analytically  !
 ! A30   A(16,5,17)            108.7564         calculate D2E/DX2 analytically  !
 ! D1    D(7,1,2,3)           -179.9171         calculate D2E/DX2 analytically  !
 ! D2    D(7,1,2,4)            -59.2347         calculate D2E/DX2 analytically  !
 ! D3    D(7,1,2,5)             60.424          calculate D2E/DX2 analytically  !
 ! D4    D(8,1,2,3)             59.2347         calculate D2E/DX2 analytically  !
 ! D5    D(8,1,2,4)            179.9171         calculate D2E/DX2 analytically  !
 ! D6    D(8,1,2,5)            -60.4242         calculate D2E/DX2 analytically  !
 ! D7    D(9,1,2,3)            -60.3412         calculate D2E/DX2 analytically  !
 ! D8    D(9,1,2,4)             60.3412         calculate D2E/DX2 analytically  !
 ! D9    D(9,1,2,5)            179.9999         calculate D2E/DX2 analytically  !
 ! D10   D(1,2,3,10)            59.8761         calculate D2E/DX2 analytically  !
 ! D11   D(1,2,3,11)           -59.7836         calculate D2E/DX2 analytically  !
 ! D12   D(1,2,3,12)           179.7987         calculate D2E/DX2 analytically  !
 ! D13   D(4,2,3,10)           -60.2671         calculate D2E/DX2 analytically  !
 ! D14   D(4,2,3,11)          -179.9268         calculate D2E/DX2 analytically  !
 ! D15   D(4,2,3,12)            59.6555         calculate D2E/DX2 analytically  !
 ! D16   D(5,2,3,10)           176.3639         calculate D2E/DX2 analytically  !
 ! D17   D(5,2,3,11)            56.7042         calculate D2E/DX2 analytically  !
 ! D18   D(5,2,3,12)           -63.7135         calculate D2E/DX2 analytically  !
 ! D19   D(1,2,4,13)            59.7834         calculate D2E/DX2 analytically  !
 ! D20   D(1,2,4,14)           -59.8763         calculate D2E/DX2 analytically  !
 ! D21   D(1,2,4,15)          -179.7988         calculate D2E/DX2 analytically  !
 ! D22   D(3,2,4,13)           179.9266         calculate D2E/DX2 analytically  !
 ! D23   D(3,2,4,14)            60.2669         calculate D2E/DX2 analytically  !
 ! D24   D(3,2,4,15)           -59.6557         calculate D2E/DX2 analytically  !
 ! D25   D(5,2,4,13)           -56.7043         calculate D2E/DX2 analytically  !
 ! D26   D(5,2,4,14)          -176.364          calculate D2E/DX2 analytically  !
 ! D27   D(5,2,4,15)            63.7135         calculate D2E/DX2 analytically  !
 ! D28   D(1,2,5,6)           -179.9997         calculate D2E/DX2 analytically  !
 ! D29   D(1,2,5,16)            60.4594         calculate D2E/DX2 analytically  !
 ! D30   D(1,2,5,17)           -60.459          calculate D2E/DX2 analytically  !
 ! D31   D(3,2,5,6)             61.4533         calculate D2E/DX2 analytically  !
 ! D32   D(3,2,5,16)           -58.0876         calculate D2E/DX2 analytically  !
 ! D33   D(3,2,5,17)          -179.0061         calculate D2E/DX2 analytically  !
 ! D34   D(4,2,5,6)            -61.4527         calculate D2E/DX2 analytically  !
 ! D35   D(4,2,5,16)           179.0064         calculate D2E/DX2 analytically  !
 ! D36   D(4,2,5,17)            58.088          calculate D2E/DX2 analytically  !
 --------------------------------------------------------------------------------
 Number of steps in this run=      2 maximum allowed number of steps=      2.
 GradGradGradGradGradGradGradGradGradGradGradGradGradGradGradGradGradGrad

                    Distance matrix (angstroms):
                    1          2          3          4          5
     1  C    0.000000
     2  C    1.539617   0.000000
     3  C    2.506897   1.533767   0.000000
     4  C    2.506898   1.533767   2.515703   0.000000
     5  C    2.454682   1.535350   2.529272   2.529269   0.000000
     6  Br   4.282373   2.956138   3.359003   3.358992   1.952761
     7  H    1.104735   2.198704   3.483515   2.763200   2.707597
     8  H    1.104734   2.198704   2.763199   3.483515   2.707598
     9  H    1.104078   2.183055   2.753797   2.753797   3.435327
    10  H    2.749726   2.179079   1.104175   2.766303   3.489634
    11  H    2.761937   2.190225   1.104975   3.487473   2.767496
    12  H    3.482169   2.190638   1.103067   2.775779   2.824892
    13  H    2.761937   2.190225   3.487472   1.104974   2.767493
    14  H    2.749728   2.179079   2.766302   1.104175   3.489632
    15  H    3.482169   2.190638   2.775780   1.103067   2.824888
    16  H    2.696516   2.184618   2.772533   3.491083   1.100444
    17  H    2.696512   2.184618   3.491084   2.772531   1.100444
                    6          7          8          9         10
     6  Br   0.000000
     7  H    4.568966   0.000000
     8  H    4.568971   1.788607   0.000000
     9  H    5.123397   1.783928   1.783927   0.000000
    10  H    4.373872   3.770009   3.104688   2.534262   0.000000
    11  H    3.687905   3.784105   2.557401   3.113738   1.786073
    12  H    2.938137   4.352628   3.785817   3.771026   1.786037
    13  H    3.687890   2.557400   3.784104   3.113736   3.783141
    14  H    4.373863   3.104691   3.770010   2.534263   2.557228
    15  H    2.938122   3.785817   4.352628   3.771027   3.128136
    16  H    2.481398   3.057118   2.479125   3.718416   3.772305
    17  H    2.481395   2.479118   3.057115   3.718412   4.336508
                   11         12         13         14         15
    11  H    0.000000
    12  H    1.786110   0.000000
    13  H    4.349279   3.795698   0.000000
    14  H    3.783141   3.128132   1.786072   0.000000
    15  H    3.795698   2.579079   1.786110   1.786038   0.000000
    16  H    2.553035   3.173856   3.781413   4.336508   3.832422
    17  H    3.781413   3.832426   2.553034   3.772303   3.173855
                   16         17
    16  H    0.000000
    17  H    1.789055   0.000000
 Framework group  C1[X(C5H11Br)]
 Deg. of freedom    45
                         Standard orientation:                         
 ---------------------------------------------------------------------
 Center     Atomic      Atomic             Coordinates (Angstroms)
 Number     Number       Type             X           Y           Z
 ---------------------------------------------------------------------
      1          6           0        2.554056    0.911029   -0.000024
      2          6           0        1.325182   -0.016489    0.000000
      3          6           0        1.351891   -0.893763   -1.257823
      4          6           0        1.351878   -0.893682    1.257880
      5          6           0        0.099376    0.908010   -0.000033
      6         35           0       -1.630893    0.002779   -0.000001
      7          1           0        2.570605    1.559430    0.894259
      8          1           0        2.570614    1.559372   -0.894348
      9          1           0        3.483021    0.314361    0.000000
     10          1           0        2.270049   -1.506754   -1.278562
     11          1           0        1.334445   -0.277217   -2.174631
     12          1           0        0.485373   -1.575599   -1.289493
     13          1           0        1.334426   -0.277078    2.174648
     14          1           0        2.270035   -1.506674    1.278666
     15          1           0        0.485358   -1.575514    1.289586
     16          1           0        0.091511    1.548866   -0.894582
     17          1           0        0.091509    1.548926    0.894473
 ---------------------------------------------------------------------
 Rotational constants (GHZ):           4.3576732           1.1380906           1.1349700
   124 basis functions,   249 primitive gaussians,   132 cartesian basis functions
    38 alpha electrons       38 beta electrons
       nuclear repulsion energy       432.7315327228 Hartrees.
 NAtoms=   17 NActive=   17 NUniq=   17 SFac= 1.00D+00 NAtFMM=   60 NAOKFM=F Big=F
 Nuclear repulsion after empirical dispersion term =      432.7200724147 Hartrees.
   1 Symmetry operations used in ECPInt.
 ECPInt:  NShTT=    2080 NPrTT=    9183 LenC2=    2063 LenP2D=    7287.
 LDataN:  DoStor=T MaxTD1= 4 Len=   56
 Initial guess from the checkpoint file:  "18.chk"
 B after Tr=     0.000000    0.000000   -0.000000
         Rot=    1.000000   -0.000000   -0.000000   -0.000000 Ang=   0.00 deg.
 SCF Done:  E(RwB97XD) =  -2770.85222213     a.u. after    1 cycles
            Convg  =    0.4136D-09                     1 Fock formations.
              S**2 =  0.0000                  -V/T =  2.0019
 DoSCS=F DFT=T ScalE2(SS,OS)=  1.000000  1.000000
 NROrb=    124 NOA=    38 NOB=    38 NVA=    86 NVB=    86

 **** Warning!!: The largest alpha MO coefficient is  0.15981078D+02

   1 Symmetry operations used in ECPInt.
 ECPInt:  NShTT=    2080 NPrTT=    9183 LenC2=    2063 LenP2D=    7287.
 LDataN:  DoStor=T MaxTD1= 5 Len=  102
 Symmetrizing basis deriv contribution to polar:
 IMax=3 JMax=2 DiffMx= 0.00D+00
 Calling FoFCou, ICntrl=  3107 FMM=F I1Cent=   0 AccDes= 0.00D+00.
 End of G2Drv F.D. properties file   721 does not exist.
 End of G2Drv F.D. properties file   722 does not exist.
 End of G2Drv F.D. properties file   788 does not exist.
          IDoAtm=11111111111111111
 End of Minotr F.D. properties file   721 does not exist.
 End of Minotr F.D. properties file   722 does not exist.
 End of Minotr F.D. properties file   788 does not exist.

 **********************************************************************

            Population analysis using the SCF Density.

 **********************************************************************

 Orbital symmetries:
       Occupied  (A) (A) (A) (A) (A) (A) (A) (A) (A) (A) (A) (A)
                 (A) (A) (A) (A) (A) (A) (A) (A) (A) (A) (A) (A)
                 (A) (A) (A) (A) (A) (A) (A) (A) (A) (A) (A) (A)
                 (A) (A)
       Virtual   (A) (A) (A) (A) (A) (A) (A) (A) (A) (A) (A) (A)
                 (A) (A) (A) (A) (A) (A) (A) (A) (A) (A) (A) (A)
                 (A) (A) (A) (A) (A) (A) (A) (A) (A) (A) (A) (A)
                 (A) (A) (A) (A) (A) (A) (A) (A) (A) (A) (A) (A)
                 (A) (A) (A) (A) (A) (A) (A) (A) (A) (A) (A) (A)
                 (A) (A) (A) (A) (A) (A) (A) (A) (A) (A) (A) (A)
                 (A) (A) (A) (A) (A) (A) (A) (A) (A) (A) (A) (A)
                 (A) (A)
 The electronic state is 1-A.
 Alpha  occ. eigenvalues -- -483.04272 -62.62491 -56.43255 -56.42905 -56.42897
 Alpha  occ. eigenvalues --  -10.34448 -10.32321 -10.29289 -10.28470 -10.28468
 Alpha  occ. eigenvalues --   -8.79437  -6.61962  -6.60686  -6.60658  -2.72329
 Alpha  occ. eigenvalues --   -2.71972  -2.71950  -2.70933  -2.70933  -0.94117
 Alpha  occ. eigenvalues --   -0.87308  -0.78375  -0.77913  -0.75308  -0.62997
 Alpha  occ. eigenvalues --   -0.55931  -0.55403  -0.53463  -0.50576  -0.48994
 Alpha  occ. eigenvalues --   -0.46227  -0.45233  -0.44969  -0.42963  -0.41678
 Alpha  occ. eigenvalues --   -0.40873  -0.35207  -0.35085
 Alpha virt. eigenvalues --    0.08479   0.12672   0.16877   0.17274   0.18953
 Alpha virt. eigenvalues --    0.19507   0.19768   0.20992   0.22379   0.25081
 Alpha virt. eigenvalues --    0.26096   0.26486   0.26528   0.28532   0.30039
 Alpha virt. eigenvalues --    0.30546   0.43592   0.44729   0.46696   0.49243
 Alpha virt. eigenvalues --    0.50344   0.50946   0.57093   0.57448   0.60880
 Alpha virt. eigenvalues --    0.64053   0.64898   0.67028   0.67884   0.67886
 Alpha virt. eigenvalues --    0.71453   0.72422   0.74038   0.74952   0.75869
 Alpha virt. eigenvalues --    0.76326   0.76543   0.79604   0.80170   0.80566
 Alpha virt. eigenvalues --    0.81255   0.82575   0.83204   0.84230   0.84334
 Alpha virt. eigenvalues --    0.85305   0.87194   0.89885   0.89897   0.96746
 Alpha virt. eigenvalues --    1.05333   1.08965   1.12666   1.22658   1.25263
 Alpha virt. eigenvalues --    1.26271   1.46338   1.48983   1.78856   1.79595
 Alpha virt. eigenvalues --    1.80992   1.88696   1.90411   1.90856   2.08316
 Alpha virt. eigenvalues --    2.10254   2.11106   2.11949   2.12236   2.19781
 Alpha virt. eigenvalues --    2.23714   2.24307   2.25080   2.26044   2.26951
 Alpha virt. eigenvalues --    2.29086   2.61157   2.61449   2.75023   2.75675
 Alpha virt. eigenvalues --    2.76128   3.56241   3.56291   3.65126   3.65172
 Alpha virt. eigenvalues --    3.89480
          Condensed to atoms (all electrons):
 Mulliken charges:
               1
     1  C   -0.274401
     2  C   -0.258824
     3  C   -0.270269
     4  C   -0.270270
     5  C   -0.188574
     6  Br  -0.133720
     7  H    0.117799
     8  H    0.117799
     9  H    0.124803
    10  H    0.116995
    11  H    0.113753
    12  H    0.134639
    13  H    0.113753
    14  H    0.116995
    15  H    0.134639
    16  H    0.152442
    17  H    0.152442
 Sum of Mulliken charges =  -0.00000
 Mulliken charges with hydrogens summed into heavy atoms:
               1
     1  C    0.085999
     2  C   -0.258824
     3  C    0.095118
     4  C    0.095118
     5  C    0.116309
     6  Br  -0.133720
 APT charges:
               1
     1  C    0.009755
     2  C    0.065057
     3  C   -0.004884
     4  C   -0.004884
     5  C    0.292246
     6  Br  -0.267215
     7  H   -0.007588
     8  H   -0.007588
     9  H   -0.014694
    10  H   -0.007201
    11  H   -0.012499
    12  H    0.016176
    13  H   -0.012499
    14  H   -0.007201
    15  H    0.016176
    16  H   -0.026579
    17  H   -0.026579
 Sum of APT charges =  -0.00000
 APT charges with hydrogens summed into heavy atoms:
               1
     1  C   -0.020115
     2  C    0.065057
     3  C   -0.008408
     4  C   -0.008408
     5  C    0.239089
     6  Br  -0.267215
 Electronic spatial extent (au):  <R**2>=           1121.6261
 Charge=              0.0000 electrons
 Dipole moment (field-independent basis, Debye):
    X=              1.8974    Y=              0.6319    Z=             -0.0000  Tot=              1.9998
  Exact polarizability:  81.640   3.667  63.548  -0.000  -0.000  62.043
 Approx polarizability:  84.126   5.299  71.291  -0.000  -0.000  68.197
   1 Symmetry operations used in ECPInt.
 ECPInt:  NShTT=    2080 NPrTT=    9183 LenC2=    2063 LenP2D=    7287.
 LDataN:  DoStor=T MaxTD1= 6 Len=  172
 Calling FoFJK, ICntrl=    100127 FMM=F ISym2X=0 I1Cent= 0 IOpClX= 0 NMat=1 NMatS=1 NMatT=0.
 Full mass-weighted force constant matrix:
 Low frequencies ---  -10.3226   -4.0808    0.0038    0.0069    0.0086    5.1407
 Low frequencies ---  103.6969  183.2848  225.7309
 Diagonal vibrational polarizability:
        3.5513797       0.9840660       1.9329153
 Harmonic frequencies (cm**-1), IR intensities (KM/Mole), Raman scattering
 activities (A**4/AMU), depolarization ratios for plane and unpolarized
 incident light, reduced masses (AMU), force constants (mDyne/A),
 and normal coordinates:
                      1                      2                      3
                      A                      A                      A
 Frequencies --    103.6936               183.2845               225.7294
 Red. masses --      2.4536                 4.2891                 1.0737
 Frc consts  --      0.0155                 0.0849                 0.0322
 IR Inten    --      0.4857                 0.6899                 0.0471
  Atom  AN      X      Y      Z        X      Y      Z        X      Y      Z
     1   6     0.00  -0.00  -0.09     0.03  -0.10   0.00     0.00  -0.00   0.03
     2   6    -0.00   0.00   0.06    -0.10   0.08  -0.00    -0.00   0.00  -0.01
     3   6    -0.15  -0.00   0.06    -0.25   0.10  -0.01     0.04   0.01  -0.02
     4   6     0.15   0.00   0.06    -0.25   0.10   0.01    -0.04  -0.01  -0.02
     5   6    -0.00   0.00   0.21    -0.03   0.15  -0.00    -0.00   0.00  -0.03
     6  35     0.00  -0.00  -0.06     0.11  -0.06   0.00     0.00  -0.00   0.01
     7   1     0.05   0.08  -0.15     0.13  -0.10   0.00    -0.20   0.24  -0.14
     8   1    -0.05  -0.08  -0.15     0.13  -0.10  -0.00     0.20  -0.24  -0.14
     9   1     0.00  -0.00  -0.09    -0.06  -0.24  -0.00    -0.00   0.00   0.40
    10   1    -0.08   0.10  -0.11    -0.32  -0.02  -0.06     0.19   0.25  -0.16
    11   1    -0.39  -0.01   0.06    -0.19   0.12   0.00    -0.26   0.01  -0.02
    12   1    -0.07  -0.10   0.23    -0.33   0.21  -0.00     0.21  -0.22   0.11
    13   1     0.39   0.01   0.06    -0.19   0.12  -0.00     0.26  -0.01  -0.02
    14   1     0.08  -0.10  -0.11    -0.32  -0.02   0.06    -0.19  -0.25  -0.16
    15   1     0.07   0.10   0.23    -0.33   0.21   0.00    -0.21   0.22   0.11
    16   1     0.03   0.18   0.34    -0.05   0.15  -0.01    -0.00  -0.01  -0.04
    17   1    -0.03  -0.18   0.34    -0.05   0.15   0.01     0.00   0.01  -0.04
                      4                      5                      6
                      A                      A                      A
 Frequencies --    271.3094               286.1573               300.4537
 Red. masses --      1.2876                 1.0415                 1.9679
 Frc consts  --      0.0558                 0.0503                 0.1047
 IR Inten    --      0.1440                 0.1061                 0.6304
  Atom  AN      X      Y      Z        X      Y      Z        X      Y      Z
     1   6     0.08  -0.04   0.00    -0.00   0.00  -0.03     0.17  -0.12   0.00
     2   6     0.03   0.02  -0.00    -0.00  -0.00  -0.00     0.04   0.03  -0.00
     3   6     0.03   0.04  -0.01    -0.01   0.01  -0.01     0.02   0.08  -0.03
     4   6     0.03   0.04   0.01     0.01  -0.01  -0.01     0.02   0.08   0.03
     5   6     0.01   0.00  -0.00     0.00   0.00   0.04     0.02   0.02   0.00
     6  35    -0.03  -0.01   0.00     0.00   0.00   0.00    -0.05  -0.02   0.00
     7   1     0.13  -0.04   0.00    -0.21   0.33  -0.26     0.30  -0.13   0.00
     8   1     0.13  -0.04  -0.00     0.21  -0.33  -0.26     0.30  -0.13  -0.00
     9   1     0.04  -0.10   0.00    -0.00   0.00   0.42     0.06  -0.30  -0.00
    10   1    -0.15  -0.24   0.16    -0.12  -0.17   0.11     0.16   0.30  -0.24
    11   1     0.42   0.08   0.01     0.24   0.03  -0.00    -0.28   0.13   0.00
    12   1    -0.17   0.31  -0.22    -0.13   0.18  -0.13     0.17  -0.11   0.07
    13   1     0.42   0.08  -0.01    -0.24  -0.03  -0.00    -0.28   0.13  -0.00
    14   1    -0.15  -0.24  -0.16     0.12   0.17   0.11     0.16   0.30   0.24
    15   1    -0.17   0.31   0.22     0.13  -0.18  -0.13     0.17  -0.11  -0.07
    16   1    -0.01   0.00  -0.00    -0.00   0.06   0.09    -0.02   0.02  -0.00
    17   1    -0.01   0.00   0.00     0.00  -0.06   0.09    -0.02   0.02   0.00
                      7                      8                      9
                      A                      A                      A
 Frequencies --    342.5138               397.8054               424.5208
 Red. masses --      2.0684                 2.3402                 2.0224
 Frc consts  --      0.1430                 0.2182                 0.2147
 IR Inten    --      0.0699                 0.2444                 0.0530
  Atom  AN      X      Y      Z        X      Y      Z        X      Y      Z
     1   6     0.00   0.00   0.15     0.12   0.05  -0.00     0.00  -0.00  -0.12
     2   6     0.00   0.00   0.01     0.03   0.14  -0.00     0.00   0.00   0.15
     3   6    -0.16   0.01   0.00    -0.01  -0.07   0.16     0.01   0.14   0.08
     4   6     0.16  -0.01   0.00    -0.01  -0.07  -0.16    -0.01  -0.14   0.08
     5   6     0.00  -0.00  -0.14    -0.01   0.12  -0.00     0.00  -0.00  -0.08
     6  35    -0.00   0.00  -0.00    -0.02  -0.01   0.00    -0.00  -0.00  -0.00
     7   1    -0.17  -0.01   0.16     0.19   0.05   0.00     0.19   0.16  -0.24
     8   1     0.17   0.01   0.16     0.19   0.05  -0.00    -0.19  -0.16  -0.24
     9   1    -0.00   0.00   0.33     0.06  -0.05  -0.00     0.00  -0.00  -0.23
    10   1    -0.24  -0.10  -0.12    -0.03  -0.10   0.31     0.02   0.16  -0.02
    11   1    -0.21   0.03   0.01    -0.03  -0.34  -0.01     0.01   0.28   0.18
    12   1    -0.25   0.12   0.10    -0.02  -0.08   0.39     0.02   0.13  -0.04
    13   1     0.21  -0.03   0.01    -0.03  -0.34   0.01    -0.01  -0.28   0.18
    14   1     0.24   0.10  -0.12    -0.03  -0.10  -0.31    -0.02  -0.16  -0.02
    15   1     0.25  -0.12   0.10    -0.02  -0.08  -0.39    -0.02  -0.13  -0.04
    16   1     0.03  -0.21  -0.29    -0.06   0.11  -0.00     0.07  -0.27  -0.27
    17   1    -0.03   0.21  -0.29    -0.06   0.11   0.00    -0.07   0.27  -0.27
                     10                     11                     12
                      A                      A                      A
 Frequencies --    469.9675               692.0115               768.6566
 Red. masses --      2.3589                 4.4677                 3.5685
 Frc consts  --      0.3070                 1.2605                 1.2422
 IR Inten    --      1.2228                19.6941                 4.9053
  Atom  AN      X      Y      Z        X      Y      Z        X      Y      Z
     1   6     0.10   0.16  -0.00    -0.06  -0.01   0.00    -0.17  -0.13   0.00
     2   6     0.18  -0.03   0.00    -0.00  -0.06   0.00     0.02  -0.02   0.00
     3   6    -0.09  -0.01  -0.03     0.01  -0.08  -0.10     0.00   0.13   0.19
     4   6    -0.09  -0.01   0.03     0.01  -0.08   0.10     0.00   0.13  -0.19
     5   6     0.14  -0.10   0.00     0.28   0.41  -0.00     0.27  -0.07   0.00
     6  35    -0.02  -0.01   0.00    -0.04  -0.04   0.00    -0.02  -0.01   0.00
     7   1    -0.03   0.17  -0.00    -0.21   0.01  -0.01    -0.22  -0.14   0.00
     8   1    -0.03   0.17   0.00    -0.21   0.01   0.01    -0.22  -0.14  -0.00
     9   1     0.22   0.34  -0.00     0.08   0.21  -0.00    -0.16  -0.10   0.00
    10   1    -0.20  -0.17  -0.29     0.06  -0.02  -0.07    -0.01   0.12   0.17
    11   1    -0.24   0.03  -0.00     0.05  -0.05  -0.08    -0.02   0.17   0.22
    12   1    -0.22   0.15   0.16     0.05  -0.12  -0.19    -0.02   0.17   0.23
    13   1    -0.24   0.03   0.00     0.05  -0.05   0.08    -0.02   0.17  -0.22
    14   1    -0.20  -0.17   0.29     0.06  -0.02   0.07    -0.01   0.12  -0.17
    15   1    -0.22   0.15  -0.16     0.05  -0.12   0.19    -0.02   0.17  -0.23
    16   1     0.11  -0.11   0.00     0.28   0.36  -0.04     0.30  -0.10  -0.01
    17   1     0.11  -0.11  -0.00     0.28   0.36   0.04     0.30  -0.10   0.01
                     13                     14                     15
                      A                      A                      A
 Frequencies --    873.2666               936.6476               961.9008
 Red. masses --      1.5227                 2.0159                 1.5569
 Frc consts  --      0.6842                 1.0420                 0.8487
 IR Inten    --      2.1822                12.7120                 1.2970
  Atom  AN      X      Y      Z        X      Y      Z        X      Y      Z
     1   6    -0.00  -0.00   0.01    -0.07  -0.12   0.00     0.12  -0.03   0.00
     2   6     0.00   0.00   0.04     0.16  -0.01   0.00    -0.01  -0.11   0.00
     3   6    -0.02  -0.04  -0.06     0.08   0.00   0.02    -0.04  -0.00   0.09
     4   6     0.02   0.04  -0.06     0.08   0.00  -0.02    -0.04  -0.00  -0.09
     5   6     0.00   0.00   0.19    -0.14   0.10  -0.00    -0.06   0.03  -0.00
     6  35    -0.00  -0.00  -0.01     0.00   0.00  -0.00     0.00   0.00   0.00
     7   1     0.00   0.01  -0.00    -0.27  -0.11  -0.01    -0.23   0.04  -0.04
     8   1    -0.00  -0.01  -0.00    -0.27  -0.11   0.01    -0.23   0.04   0.04
     9   1     0.00   0.00   0.02     0.07   0.11  -0.00     0.44   0.46  -0.00
    10   1     0.03   0.03   0.07    -0.08  -0.23  -0.30     0.07   0.16   0.06
    11   1     0.07  -0.09  -0.09    -0.14   0.04   0.04     0.07   0.24   0.25
    12   1     0.05  -0.12  -0.12    -0.11   0.23   0.27     0.04  -0.09  -0.22
    13   1    -0.07   0.09  -0.09    -0.14   0.04  -0.04     0.07   0.24  -0.25
    14   1    -0.03  -0.03   0.07    -0.08  -0.23   0.30     0.07   0.16  -0.06
    15   1    -0.05   0.12  -0.12    -0.11   0.23  -0.27     0.04  -0.09   0.22
    16   1    -0.04  -0.60  -0.24    -0.20   0.12   0.01    -0.07   0.04  -0.00
    17   1     0.04   0.60  -0.24    -0.20   0.12  -0.01    -0.07   0.04   0.00
                     16                     17                     18
                      A                      A                      A
 Frequencies --    963.0701               974.7579              1053.9336
 Red. masses --      1.5540                 1.2046                 1.4135
 Frc consts  --      0.8492                 0.6743                 0.9250
 IR Inten    --      0.6990                 0.0005                 0.2735
  Atom  AN      X      Y      Z        X      Y      Z        X      Y      Z
     1   6     0.00  -0.00  -0.08     0.00   0.00   0.08    -0.03   0.10  -0.00
     2   6     0.00  -0.00  -0.11    -0.00  -0.00   0.00    -0.03  -0.06   0.00
     3   6    -0.04   0.11   0.04     0.04   0.05  -0.04     0.03  -0.06   0.07
     4   6     0.04  -0.11   0.04    -0.04  -0.05  -0.04     0.03  -0.06  -0.07
     5   6    -0.00   0.00   0.01     0.00  -0.00   0.01    -0.02   0.05  -0.00
     6  35     0.00   0.00  -0.00    -0.00  -0.00  -0.00     0.00  -0.00  -0.00
     7   1    -0.26  -0.23   0.09     0.27   0.25  -0.11     0.31   0.04   0.04
     8   1     0.26   0.23   0.09    -0.27  -0.25  -0.11     0.31   0.04  -0.04
     9   1     0.00   0.00   0.15     0.00  -0.00  -0.17    -0.28  -0.30   0.00
    10   1     0.02   0.18   0.43    -0.08  -0.13   0.07     0.01  -0.07  -0.28
    11   1     0.08  -0.19  -0.16    -0.09  -0.27  -0.25    -0.07   0.29   0.30
    12   1     0.07  -0.03   0.19    -0.03   0.12   0.37    -0.07   0.08  -0.12
    13   1    -0.08   0.19  -0.16     0.09   0.27  -0.25    -0.07   0.29  -0.30
    14   1    -0.02  -0.18   0.43     0.08   0.13   0.07     0.01  -0.07   0.28
    15   1    -0.07   0.03   0.19     0.03  -0.12   0.37    -0.07   0.08   0.12
    16   1    -0.04  -0.05  -0.03    -0.00  -0.02  -0.01     0.07   0.04  -0.00
    17   1     0.04   0.05  -0.03     0.00   0.02  -0.01     0.07   0.04   0.00
                     19                     20                     21
                      A                      A                      A
 Frequencies --   1056.4700              1161.2754              1232.0830
 Red. masses --      1.3477                 1.1890                 1.8108
 Frc consts  --      0.8863                 0.9447                 1.6196
 IR Inten    --      0.2064                 2.0330                17.5574
  Atom  AN      X      Y      Z        X      Y      Z        X      Y      Z
     1   6    -0.00   0.00   0.07     0.00  -0.00  -0.07    -0.07  -0.01  -0.00
     2   6     0.00   0.00   0.06    -0.00   0.00   0.09     0.19   0.12  -0.00
     3   6    -0.09  -0.01  -0.04     0.03  -0.00  -0.03    -0.07  -0.06   0.01
     4   6     0.09   0.01  -0.04    -0.03   0.00  -0.03    -0.07  -0.06  -0.01
     5   6    -0.00  -0.00  -0.06    -0.00   0.00   0.01     0.07  -0.01   0.00
     6  35     0.00   0.00   0.00     0.00   0.00   0.00     0.00   0.00  -0.00
     7   1     0.19   0.17  -0.06    -0.16  -0.16   0.06    -0.04  -0.08   0.04
     8   1    -0.19  -0.17  -0.06     0.16   0.16   0.06    -0.04  -0.08  -0.04
     9   1    -0.00  -0.00  -0.11     0.00   0.00   0.11    -0.19  -0.19   0.00
    10   1     0.06   0.21   0.29    -0.04  -0.11  -0.07     0.09   0.18  -0.01
    11   1     0.16  -0.09  -0.09    -0.05  -0.08  -0.09     0.16   0.10   0.10
    12   1     0.11  -0.25  -0.24    -0.01   0.05   0.09     0.03  -0.16  -0.27
    13   1    -0.16   0.09  -0.09     0.05   0.08  -0.09     0.16   0.10  -0.10
    14   1    -0.06  -0.21   0.29     0.04   0.11  -0.07     0.09   0.18   0.01
    15   1    -0.11   0.25  -0.24     0.01  -0.05   0.09     0.03  -0.16   0.27
    16   1     0.26   0.16   0.05     0.62   0.00  -0.00    -0.48  -0.02   0.00
    17   1    -0.26  -0.16   0.05    -0.62  -0.00  -0.00    -0.48  -0.02  -0.00
                     22                     23                     24
                      A                      A                      A
 Frequencies --   1301.5996              1315.6742              1322.3135
 Red. masses --      2.7395                 1.5169                 1.9290
 Frc consts  --      2.7345                 1.5470                 1.9873
 IR Inten    --     10.9067                17.1773                 0.7411
  Atom  AN      X      Y      Z        X      Y      Z        X      Y      Z
     1   6     0.05  -0.09   0.00    -0.03  -0.01   0.00     0.00  -0.00  -0.08
     2   6    -0.15   0.31  -0.00     0.14   0.06  -0.00    -0.00   0.00   0.26
     3   6     0.05  -0.09   0.02    -0.05  -0.01   0.01    -0.00   0.02  -0.05
     4   6     0.05  -0.09  -0.02    -0.05  -0.01  -0.01     0.00  -0.02  -0.05
     5   6     0.05  -0.07   0.00    -0.13  -0.01   0.00    -0.00  -0.00  -0.06
     6  35    -0.00  -0.00   0.00    -0.00  -0.00   0.00    -0.00  -0.00  -0.00
     7   1    -0.29   0.07  -0.10    -0.02  -0.05   0.03    -0.07  -0.18   0.07
     8   1    -0.29   0.07   0.10    -0.02  -0.05  -0.03     0.07   0.18   0.07
     9   1     0.17   0.13  -0.00    -0.06  -0.05  -0.00    -0.00   0.00   0.24
    10   1     0.03  -0.09  -0.37     0.02   0.09  -0.01    -0.10  -0.14  -0.04
    11   1    -0.13   0.05   0.10     0.13  -0.02  -0.01     0.01  -0.22  -0.21
    12   1    -0.11   0.12  -0.25     0.05  -0.12  -0.12     0.11  -0.14  -0.06
    13   1    -0.13   0.05  -0.10     0.13  -0.02   0.01    -0.01   0.22  -0.21
    14   1     0.03  -0.09   0.37     0.02   0.09   0.01     0.10   0.14  -0.04
    15   1    -0.11   0.12   0.25     0.05  -0.12   0.12    -0.11   0.14  -0.06
    16   1     0.18  -0.07   0.00     0.63   0.12   0.07    -0.45   0.13   0.05
    17   1     0.18  -0.07  -0.00     0.63   0.12  -0.07     0.45  -0.13   0.05
                     25                     26                     27
                      A                      A                      A
 Frequencies --   1409.1055              1413.2103              1435.0674
 Red. masses --      1.2738                 1.3340                 1.2242
 Frc consts  --      1.4902                 1.5697                 1.4854
 IR Inten    --      9.6234                14.4307                11.6194
  Atom  AN      X      Y      Z        X      Y      Z        X      Y      Z
     1   6    -0.10  -0.08   0.00     0.00   0.00  -0.02    -0.06  -0.04   0.00
     2   6     0.01   0.04   0.00    -0.00  -0.00   0.06     0.01  -0.01   0.00
     3   6    -0.00  -0.04  -0.04     0.00  -0.06  -0.10    -0.01   0.05   0.06
     4   6    -0.00  -0.04   0.04    -0.00   0.06  -0.10    -0.01   0.05  -0.06
     5   6    -0.00  -0.01  -0.00    -0.00   0.00  -0.01     0.00   0.02  -0.00
     6  35    -0.00   0.00  -0.00    -0.00  -0.00  -0.00     0.00   0.00  -0.00
     7   1     0.40   0.18  -0.18     0.03  -0.05   0.02     0.28   0.09  -0.10
     8   1     0.40   0.18   0.18    -0.03   0.05   0.02     0.28   0.09   0.10
     9   1     0.23   0.41  -0.00    -0.00  -0.00   0.12     0.14   0.27  -0.00
    10   1     0.11   0.13   0.15     0.12   0.12   0.37    -0.12  -0.12  -0.29
    11   1     0.03   0.18   0.11    -0.02   0.34   0.18     0.05  -0.27  -0.15
    12   1    -0.12   0.09   0.17    -0.14   0.11   0.36     0.14  -0.13  -0.25
    13   1     0.03   0.18  -0.11     0.02  -0.34   0.18     0.05  -0.27   0.15
    14   1     0.11   0.13  -0.15    -0.12  -0.12   0.37    -0.12  -0.12   0.29
[...]

 Dipole polarizability, Alpha (dipole orientation).
 (esu units = cm**3 , SI units = C**2 m**2 J**-1)
 Alpha(0;0):
               (au)            (10**-24 esu)      (10**-40 SI)
   iso        0.690769D+02      0.102361D+02      0.113892D+02
   aniso      0.199286D+02      0.295311D+01      0.328578D+01
   xx         0.621542D+02      0.921030D+01      0.102478D+02
   yx        -0.333335D+00     -0.493951D-01     -0.549595D-01
   yy         0.630443D+02      0.934220D+01      0.103946D+02
   zx         0.786280D+00      0.116515D+00      0.129640D+00
   zy        -0.236123D+01     -0.349898D+00     -0.389314D+00
   zz         0.820322D+02      0.121559D+02      0.135253D+02

 ----------------------------------------------------------------------
 1\1\GINC-C010\Freq\RwB97XD\def2SVPP\C5H11Br1\PETERCHAO1\06-Feb-2023\0\
 \#T Geom=AllCheck Guess=TCheck SCRF=Check GenChk RwB97XD/def2SVPP Freq
 \\Monomer\\0,1\C,2.554056,0.911029,-0.000024\C,1.325182,-0.016489,0.\C
 ,1.351891,-0.893763,-1.257823\C,1.351878,-0.893682,1.25788\C,0.099376,
 0.90801,-0.000033\Br,-1.630893,0.002779,-0.000001\H,2.570605,1.55943,0
 .894259\H,2.570614,1.559372,-0.894348\H,3.483021,0.314361,0.\H,2.27004
 9,-1.506754,-1.278562\H,1.334445,-0.277217,-2.174631\H,0.485373,-1.575
 599,-1.289493\H,1.334426,-0.277078,2.174648\H,2.270035,-1.506674,1.278
 666\H,0.485358,-1.575514,1.289586\H,0.091511,1.548866,-0.894582\H,0.09
 1509,1.548926,0.894473\\Version=ES64L-G16RevB.01\State=1-A\HF=-2770.85
 22221\RMSD=5.116e-12\RMSF=4.106e-07\ZeroPoint=0.1512529\Thermal=0.1590
 698\Dipole=0.7464784,0.2485963,-0.0000082\DipoleDeriv=-0.0596464,-0.02
 54173,0.0000005,0.1108863,0.0464282,-0.0000001,-0.0000039,-0.0000003,0
 .0424843,0.0243074,-0.01706,0.0000002,-0.1774708,0.0591184,0.0000026,0
 .0000053,0.0000023,0.1117458,-0.0105965,-0.0181807,-0.0066034,-0.00016
 29,-0.0160141,-0.0294266,-0.014609,-0.0253867,0.0119593,-0.0105966,-0.
 0181811,0.0066046,-0.0001625,-0.0160109,0.0294279,0.014609,0.0253881,0
 .0119547,0.7239729,0.1851015,-0.0000058,0.2740914,0.1195951,-0.0000041
 ,-0.0000085,-0.0000034,0.0331702,-0.4974203,-0.0849915,0.000003,-0.127
 5061,-0.1754333,0.0000013,0.0000049,0.0000012,-0.1287903,0.0590159,0.0
 00517,0.0278794,-0.0366848,-0.0129086,-0.0839597,-0.0174756,-0.1148451
 ,-0.0688722,0.0590159,0.0005141,-0.0278783,-0.0366848,-0.0128956,0.083
 9556,0.0174792,0.1148413,-0.068885,-0.1183208,0.0375126,-0.0000018,0.0
 879587,-0.0059697,0.0000033,-0.0000037,0.000003,0.0802084,-0.0842854,0
 .1178635,0.0258447,0.087416,0.0125575,-0.0260366,-0.018738,-0.000668,0
 .050125,0.0761733,0.0075373,-0.0046821,-0.0019124,-0.0164651,0.113922,
 -0.0000394,0.0489083,-0.0972052,-0.0143971,-0.1033481,-0.021934,-0.088
 4648,0.0150357,-0.0183937,0.0107349,0.0004549,0.0478897,0.0761733,0.00
 75379,0.0046831,-0.0019117,-0.0164755,-0.1139267,0.0000411,-0.0489132,
 -0.0971943,-0.0842859,0.1178627,-0.0258536,0.0874176,0.0125585,0.02603
 98,0.0187311,0.0006714,0.0501235,-0.0143977,-0.1033459,0.0219395,-0.08
 84652,0.0150376,0.0183951,-0.0107302,-0.0004533,0.0478883,-0.062356,-0
 .0519605,0.018453,-0.0441722,-0.0040742,0.0596989,-0.0094905,0.0882377
 ,-0.0133061,-0.0623559,-0.0519614,-0.0184492,-0.0441719,-0.004084,-0.0
 59699,0.0094933,-0.0882382,-0.0132962\Polar=81.6397726,3.6671061,63.54
 77069,-0.0001311,-0.000062,62.043215\Quadrupole=-0.6741106,0.7867776,-
 0.112667,0.3785963,-0.0000196,-0.0000309\PG=C01 [X(C5H11Br1)]\NImag=0\
 \0.51634189,-0.05466259,0.54766744,0.00000133,0.00000014,0.59064685,-0
 .14692980,-0.04861648,0.00000124,0.48668574,-0.05413073,-0.11558156,0.
 00000102,-0.00471308,0.52412195,0.00000141,0.00000101,-0.07856399,-0.0
 0000020,0.00000007,0.52222109,-0.00198664,-0.01883567,-0.02373036,-0.0
 7981133,0.00187304,0.00150295,0.59437442,-0.00427575,-0.01758948,-0.01
 978538,0.00094489,-0.11783875,-0.05274112,0.00356351,0.55827894,-0.003
 61781,-0.00492630,-0.00317864,0.00003422,-0.05416419,-0.15814619,0.003
 57477,-0.04990669,0.51876443,-0.00198689,-0.01883419,0.02373158,-0.079
 81120,0.00187234,-0.00150230,0.00003371,-0.00048663,-0.00004183,0.5943
 7344,-0.00427566,-0.01758785,0.01978620,0.00094436,-0.11783184,0.05273
 844,-0.00048651,0.01165286,-0.01419631,0.00356323,0.55828527,0.0036180
 9,0.00492703,-0.00317994,-0.00003354,0.05416147,-0.15815288,0.00004215
 ,0.01419345,-0.03287308,-0.00357413,0.04990499,0.51875888,-0.03395727,
 0.00660781,-0.00000037,-0.13012113,0.05830841,-0.00000203,-0.00312571,
 0.00490399,0.00555045,-0.00312552,0.00490359,-0.00555082,0.33512962,-0
 .01183791,0.00846106,-0.00000036,0.06241587,-0.11876248,0.00000132,0.0
 1932881,-0.01553569,-0.00373125,0.01932721,-0.01553434,0.00373237,-0.0
 4835786,0.48069683,0.00000028,-0.00000026,-0.00052045,-0.00000221,0.00
 000132,-0.08288918,0.02513899,-0.01830298,-0.00228352,-0.02514022,0.01
 830393,-0.00228522,0.00000129,0.00000366,0.60469509,-0.00452301,0.0074
 5417,-0.00000025,-0.02649951,-0.01758388,0.00000052,-0.00044449,0.0002
 0000,-0.00049592,-0.00044456,0.00020002,0.00049594,-0.08621591,-0.0395
 9562,0.00000139,0.14938035,0.00068460,0.00098226,-0.00000002,0.0018697
 4,0.00398066,-0.00000016,0.00142287,-0.00067943,-0.00085180,0.00142282
 ,-0.00067937,0.00085186,-0.03707995,-0.05294962,0.00000078,0.06321208,
 0.06066978,-0.00000003,-0.00000003,0.00017670,-0.00000008,-0.00000015,
 -0.00074928,0.00150119,-0.00071361,0.00003971,-0.00150132,0.00071369,0
 .00003961,0.00000136,0.00000079,-0.02997161,-0.00000196,-0.00000150,0.
 02051482,-0.04850758,0.00028879,0.00026461,0.00021938,-0.01392036,-0.0
 2176659,-0.00442053,-0.00268017,0.00074993,0.00074004,0.00071818,-0.00
 098971,0.00019135,-0.00158384,-0.00153599,0.00070240,0.00036973,0.0001
 6937,0.05058330,-0.00042576,-0.13862360,-0.12464500,0.00167960,-0.0112
 4074,-0.01530035,-0.00407952,-0.00219719,0.00108315,0.00065672,0.00040
 806,-0.00124263,0.00124765,0.00015769,0.00011640,0.00011073,0.00006406
 ,0.00023806,0.00367268,0.14633765,-0.00108284,-0.12573759,-0.22561407,
 0.00006967,0.00128712,-0.00033473,-0.00087636,-0.00013046,0.00085530,0
 .00027295,0.00088653,0.00089843,0.00054458,-0.00005225,0.00009110,-0.0
 0005797,0.00022742,0.00016435,0.00086730,0.13720514,0.23806008,-0.0485
 0745,0.00028748,-0.00026284,0.00021918,-0.01391897,0.02176752,0.000740
 03,0.00071826,0.00098967,-0.00442053,-0.00268022,-0.00074981,0.0001913
 6,-0.00158373,0.00153608,0.00070239,0.00036972,-0.00016939,-0.00100594
 ,-0.00009216,0.00032223,0.05058314,-0.00042695,-0.13860794,0.12464031,
 0.00167945,-0.01123984,0.01530108,0.00065668,0.00040809,0.00124267,-0.
 00407944,-0.00219724,-0.00108299,0.00124760,0.00015769,-0.00011640,0.0
 0011073,0.00006403,-0.00023805,-0.00009203,0.01320542,-0.01568902,0.00
 367402,0.14632044,0.00108464,0.12573295,-0.22563140,-0.00006977,-0.001
 28658,-0.00033540,-0.00027300,-0.00088649,0.00089842,0.00087656,0.0001
 3062,0.00085536,-0.00054464,0.00005224,0.00009111,0.00005797,-0.000227
 41,0.00016437,-0.00032207,0.01568706,-0.01696469,-0.00086943,-0.137200
 12,0.23807893,-0.23439446,0.12423255,-0.00000494,-0.02212085,0.0146358
 6,-0.00000057,0.00082411,0.00140012,0.00060736,0.00082411,0.00140009,-
 0.00060744,-0.00212983,-0.00390924,0.00000012,-0.00185809,-0.00008119,
 0.,0.00203079,-0.00196247,-0.00011761,0.00203101,-0.00196260,0.0001177
 5,0.25314701,0.12606489,-0.12936451,0.00000327,-0.01807890,0.00996187,
 -0.00000046,-0.00065749,0.00113372,0.00037944,-0.00065744,0.00113366,-
 0.00037952,-0.00145357,-0.00208797,0.00000005,-0.00152726,0.00021203,0
 .,0.01379228,-0.00879942,0.00208926,0.01379086,-0.00879871,-0.00208845
 ,-0.13150869,0.13685870,-0.00000499,0.00000326,-0.04835658,0.00000049,
 -0.00000030,-0.00132476,-0.00086874,0.00045568,0.00000834,0.00086879,-
 0.00045575,0.00000840,0.00000005,0.00000004,-0.00025630,0.00000005,0.,
 0.00039736,0.02246664,-0.01331193,0.00178914,-0.02246755,0.01331260,0.
 00178820,0.00000527,-0.00000362,0.04569755,0.00081785,-0.00096082,-0.0
 0043624,-0.00075370,-0.00111459,-0.00099569,-0.23584096,0.12395888,0.0
 0272364,0.00013110,-0.00019397,-0.00033947,0.00036756,-0.00058078,0.00
 020899,0.00012450,0.00044129,0.00035536,0.00017987,-0.00003597,0.00012
 486,-0.00004424,-0.00000865,0.00009230,0.00029964,0.00007125,-0.000190
 23,0.24938960,0.00123099,0.00029165,0.00067761,0.01559114,-0.01124272,
 0.00103786,0.12242287,-0.12905361,-0.00082278,-0.00031094,0.00045367,0
 .00112101,-0.00139193,-0.00218623,-0.00404235,-0.00019990,0.00048278,0
 .00030550,-0.00023562,0.00033727,0.00013747,0.00004417,-0.00009067,-0.
 00000828,-0.00080943,-0.00023827,-0.00047525,-0.13418390,0.13626798,0.
 00098907,0.00061955,0.00079648,0.02308380,-0.01457589,-0.00037190,0.00
 075101,0.00040458,-0.04814108,0.00109593,-0.00061375,0.00115524,-0.000
 85099,-0.00288983,-0.00478815,-0.00024284,0.00015882,0.00011822,0.0000
 6640,0.00032277,-0.00000471,-0.00017752,0.00004004,-0.00004646,-0.0005
 6036,-0.00010499,0.00007944,-0.00203507,0.00449499,0.05027545,0.000007
 12,0.00049542,-0.00080647,-0.00188393,-0.00037426,0.00093736,-0.049437
 00,0.00219672,-0.00339941,0.00017049,0.00010203,0.00008982,0.00033654,
 -0.00058686,0.00100176,-0.00015935,0.00001378,-0.00017745,-0.00009249,
 0.00001487,0.00017950,0.00008659,-0.00041849,-0.00019158,-0.00003632,0
 .00011043,-0.00008617,0.00170841,0.01393541,-0.02266236,0.04564777,0.0
 0034199,0.00114464,-0.00066412,-0.00057155,0.01073184,-0.01611701,0.00
 249615,-0.13534724,0.12569608,0.00007735,-0.00188810,-0.00285700,0.000
 03769,0.00123480,-0.00060111,-0.00026660,0.00000894,0.00004644,0.00017
 845,0.00018766,0.00011440,-0.00004379,-0.00017587,0.00008632,-0.000080
 15,-0.00009647,0.00009715,-0.00201838,-0.00869420,0.01272598,-0.002790
 29,0.14166090,0.00060124,0.00134380,0.00070430,-0.00052093,0.01676245,
 -0.02111002,-0.00352428,0.12336979,-0.22749932,0.00019726,-0.00504696,
 -0.00376090,-0.00055084,0.00142703,0.00065332,0.00017474,-0.00012129,-
 0.00006254,0.00015497,-0.00014644,0.00039284,-0.00054169,-0.00084379,0
 .00026006,0.00001653,-0.00006156,-0.00005423,0.00012326,-0.00204632,0.
 00205924,0.00354799,-0.13229177,0.24666079,0.00051595,0.00022098,-0.00
 049596,0.00134273,0.00134006,-0.00020988,-0.21737052,-0.13261126,-0.00
 481982,0.00016436,0.00014619,0.00016782,0.00012646,0.00017197,-0.00034
 454,-0.00157897,0.00140949,0.00129779,0.00019487,-0.00013963,0.0001244
 5,-0.00003562,0.00006693,0.00010494,0.00034089,0.00008130,0.00015961,-
 0.01678156,-0.01654987,-0.00009905,0.00271267,0.00294686,0.00002166,0.
 23019904,0.00126500,-0.00193094,-0.00370738,-0.01396667,-0.01135081,0.
 00121771,-0.13085553,-0.15111605,-0.00289496,0.00041916,0.00049031,0.0
 0111120,-0.00206917,-0.00059101,0.00024862,0.00083784,0.00066875,0.000
 22546,-0.00116119,-0.00049420,-0.00029249,0.00027763,0.00030069,-0.000
 00451,-0.00008025,0.00021283,0.00003471,0.01483122,0.01333695,0.000303
 95,-0.01299255,-0.00947465,-0.00207855,0.14299754,0.15931962,0.0009454
 8,-0.00293639,-0.00457697,-0.02212131,-0.01524450,0.00026497,-0.003437
 63,-0.00154045,-0.04926834,-0.00103145,-0.00063004,0.00138348,-0.00104
 554,0.00028124,0.00071638,0.00101767,0.00004220,-0.00027866,-0.0012339
 6,-0.00129556,0.00013572,0.00005541,-0.00024102,0.00014832,0.00022332,
 0.00021607,-0.00009529,-0.00006901,0.00002410,-0.00100846,0.02153742,0
 .01455814,0.00220882,0.00453335,0.00616724,0.05087475,0.00000712,0.000
 49549,0.00080643,-0.00188395,-0.00037416,-0.00093711,0.00017050,0.0001
 0196,-0.00008977,-0.04943687,0.00219777,0.00340051,0.00033655,-0.00058
 690,-0.00100173,-0.00015935,0.00001379,0.00017746,0.00008659,-0.000418
 49,0.00019160,-0.00009249,0.00001486,-0.00017950,-0.00003632,0.0001104
 3,0.00008617,0.00020136,-0.00024362,-0.00022568,0.00057228,-0.00004006
 ,-0.00003860,0.00012089,0.00021304,0.00023058,0.04564768,0.00034195,0.
 00114459,0.00066410,-0.00057162,0.01073182,0.01611497,0.00007731,-0.00
 188760,0.00285687,0.00249722,-0.13536347,-0.12570261,0.00003773,0.0012
 3474,0.00060108,-0.00026661,0.00000895,-0.00004643,-0.00004375,-0.0001
 7582,-0.00008630,0.00017844,0.00018766,-0.00011439,-0.00008015,-0.0000
 9647,-0.00009715,-0.00021861,-0.00002298,0.00012249,-0.00004007,0.0008
 2034,0.00091136,0.00017011,-0.00004559,0.00012568,-0.00279143,0.141678
 14,-0.00060126,-0.00134383,0.00070435,0.00052111,-0.01676450,-0.021109
 93,-0.00019724,0.00504683,-0.00376140,0.00352536,-0.12337630,-0.227484
 23,0.00055084,-0.00142707,0.00065337,-0.00017473,0.00012129,-0.0000625
 5,0.00054170,0.00084382,0.00026002,-0.00015498,0.00014646,0.00039284,-
 0.00001653,0.00006156,-0.00005423,0.00007239,0.00008722,0.00032191,0.0
 0003862,-0.00091151,-0.00156813,-0.00003321,0.00006984,0.00029148,-0.0
 0354924,0.13229910,0.24664463,0.00081786,-0.00096078,0.00043629,-0.000
 75350,-0.00111466,0.00099576,0.00013111,-0.00019395,0.00033948,-0.2358
 3943,0.12395827,-0.00273312,0.00036753,-0.00058083,-0.00020890,0.00012
 451,0.00044128,-0.00035540,-0.00004424,-0.00000866,-0.00009230,0.00017
 987,-0.00003597,-0.00012486,0.00029963,0.00007127,0.00019022,0.0002679
 7,-0.00012780,-0.00042901,0.00020136,-0.00021862,-0.00007237,-0.000136
 48,0.00012584,-0.00000379,0.00170823,-0.00201829,-0.00012313,0.2493880
 5,0.00123093,0.00029157,-0.00067757,0.01558966,-0.01124188,-0.00103702
 ,-0.00031100,0.00045364,-0.00112098,0.12242239,-0.12905388,0.00082898,
 -0.00139190,-0.00218579,0.00404220,-0.00019989,0.00048275,-0.00030553,
 0.00004418,-0.00009067,0.00000828,-0.00023562,0.00033724,-0.00013749,-
 0.00080941,-0.00023823,0.00047526,-0.00012778,0.00052196,0.00021925,-0
 .00024361,-0.00002299,-0.00008721,-0.00011398,-0.00000280,0.00003199,0
 .01393684,-0.00869492,0.00204713,-0.13418338,0.13626774,-0.00098914,-0
 .00061954,0.00079656,-0.02308476,0.01457664,-0.00037296,-0.00109592,0.
 00061380,0.00115526,-0.00076040,-0.00039838,-0.04814124,0.00085111,0.0
 0288967,-0.00478861,0.00024286,-0.00015884,0.00011825,0.00017752,-0.00
 004004,-0.00004646,-0.00006639,-0.00032279,-0.00000468,0.00056041,0.00
 010500,0.00007941,0.00042903,-0.00021932,-0.00063965,0.00022569,-0.000
 12247,0.00032192,-0.00002564,-0.00005490,-0.00005459,0.02266144,-0.012
 72536,0.00206013,0.00204532,-0.00450162,0.05027615,0.00051595,0.000220
 99,0.00049599,0.00134253,0.00133991,0.00020980,0.00016435,0.00014617,-
 0.00016785,-0.21737118,-0.13261076,0.00482682,0.00012647,0.00017200,0.
 00034453,-0.00157920,0.00140960,-0.00129808,-0.00003561,0.00006692,-0.
 00010495,0.00019486,-0.00013965,-0.00012444,0.00034089,0.00008129,-0.0
 0015961,-0.00013647,-0.00011398,0.00002565,0.00012089,0.00017011,0.000
 03320,0.00022785,0.00002162,0.00033398,0.00271283,0.00294695,-0.000021
 83,-0.01678157,-0.01654977,0.00009996,0.23019998,0.00126490,-0.0019305
 2,0.00370722,-0.01396527,-0.01134991,-0.00121708,0.00041924,0.00049027
 ,-0.00111113,-0.13085502,-0.15111515,0.00290034,-0.00206914,-0.0005910
 8,-0.00024854,0.00083794,0.00066863,-0.00022542,0.00027763,0.00030071,
 0.00000450,-0.00116111,-0.00049409,0.00029252,-0.00008026,0.00021281,-
 0.00003473,0.00012584,-0.00000280,0.00005490,0.00021302,-0.00004560,-0
 .00006982,0.00002159,0.00053421,0.00026919,-0.01299398,-0.00947543,0.0
 0207920,0.01483131,0.01333695,-0.00030474,0.14299686,0.15931831,-0.000
 94551,0.00293622,-0.00457740,0.02212224,0.01524523,0.00026426,0.001031
 41,0.00063011,0.00138352,0.00344449,0.00154582,-0.04926861,0.00104569,
 -0.00028116,0.00071643,-0.00101791,-0.00004213,-0.00027875,-0.00005543
 ,0.00024102,0.00014831,0.00123404,0.00129560,0.00013563,-0.00022331,-0
 .00021609,-0.00009528,0.00000378,-0.00003199,-0.00005459,-0.00023060,-
 0.00012566,0.00029149,-0.00033397,-0.00026930,-0.00066063,-0.02153663,
 -0.01455731,0.00220944,0.00006792,-0.00002517,-0.00100844,-0.00454074,
 -0.00617305,0.05087561,0.00088469,0.00128338,-0.00112732,0.00037972,0.
 01393686,-0.02040077,0.00048918,-0.00064493,-0.00083030,-0.00449025,0.
 00275825,0.00110659,-0.03924908,0.00389373,0.00109643,-0.01378579,-0.0
 1795925,0.01492572,0.00001013,-0.00007396,0.00005633,-0.00083228,-0.00
 021252,0.00042144,0.00021889,-0.00014531,0.00012666,0.00001263,-0.0002
 0915,-0.00001847,0.00003452,0.00001258,0.00058029,-0.00004212,0.000053
 90,0.00011415,0.00001043,-0.00023172,0.00020242,0.00005647,0.00115147,
 -0.00128958,-0.00000045,0.00008255,0.00004867,0.05501746,-0.00119493,0
 .00061657,-0.00019324,-0.00011557,-0.01092326,0.01717155,-0.00089352,0
 .00030883,0.00119029,0.00385874,-0.00148141,-0.00127770,0.00825931,-0.
 14075053,0.13180076,-0.00666191,-0.00699248,0.00655219,0.00011097,-0.0
 0001158,-0.00013458,0.00026404,0.00063467,-0.00016257,-0.00015239,-0.0
 0000280,-0.00034075,-0.00008504,0.00040261,-0.00017414,0.00036199,-0.0
 0020591,-0.00088472,0.00003745,-0.00003299,-0.00002734,0.00000248,0.00
 016193,0.00013601,0.00009999,-0.00056331,0.00110877,-0.00019570,0.0001
 7567,-0.00019949,-0.00435804,0.14556135,0.00025360,-0.00021286,0.00018
 711,0.00082432,-0.00149300,0.00035491,0.00011172,-0.00088890,0.0011817
 3,-0.00034962,-0.00018168,0.00086496,-0.00191237,0.13057720,-0.2399259
 1,-0.00226739,-0.00383173,0.00483492,0.00003891,0.00012613,-0.00010641
 ,-0.00040644,-0.00011844,0.00027579,-0.00006504,-0.00024692,0.00019443
 ,-0.00008243,0.00000929,0.00005820,0.00012652,0.00026585,0.00014889,-0
 .00003401,-0.00006290,-0.00004239,0.00013063,-0.00010027,0.00035345,-0
 .00001455,0.00024881,0.00019075,0.00001356,0.00001373,-0.00003858,0.00
 431018,-0.13933368,0.24775722,0.00088467,0.00128348,0.00112727,0.00037
 962,0.01393823,0.02039983,-0.00449024,0.00275818,-0.00110681,0.0004891
 7,-0.00064488,0.00083033,-0.03924899,0.00389398,-0.00109626,-0.0137859
 1,-0.01796039,-0.01492452,-0.00083230,-0.00021255,-0.00042143,0.000010
 13,-0.00007397,-0.00005633,0.00021889,-0.00014532,-0.00012665,0.000056
 45,0.00115155,0.00128950,0.00001043,-0.00023174,-0.00020240,-0.0000004
 5,0.00008255,-0.00004867,0.00003452,0.00001255,-0.00058029,0.00001263,
 -0.00020915,0.00001849,-0.00004212,0.00005390,-0.00011415,0.00128585,0
 .00066211,-0.00067760,0.05501765,-0.00119499,0.00061662,0.00019320,-0.
 00011558,-0.01092434,-0.01717079,0.00385875,-0.00148131,0.00127789,-0.
 00089352,0.00030881,-0.00119024,0.00825975,-0.14076808,-0.13180716,-0.
 00666186,-0.00699271,-0.00655142,0.00026407,0.00063470,0.00016256,0.00
 011097,-0.00001158,0.00013458,-0.00015240,-0.00000277,0.00034077,0.000
 10000,-0.00056339,-0.00110872,0.00000248,0.00016193,-0.00013600,-0.000
 19570,0.00017568,0.00019947,0.00036198,-0.00020589,0.00088475,-0.00008
 503,0.00040262,0.00017412,0.00003745,-0.00003298,0.00002734,0.00066215
 ,0.01310264,0.01522939,-0.00435853,0.14558005,-0.00025354,0.00021284,0
 .00018709,-0.00082428,0.00149379,0.00035600,0.00034934,0.00018185,0.00
 086486,-0.00011167,0.00088896,0.00118175,0.00191224,-0.13058364,-0.239
 90784,0.00226783,0.00383251,0.00483509,0.00040641,0.00011842,0.0002757
 8,-0.00003891,-0.00012614,-0.00010642,0.00006504,0.00024694,0.00019439
 ,0.00001454,-0.00024875,0.00019084,-0.00013063,0.00010028,0.00035345,-
 0.00001355,-0.00001374,-0.00003859,-0.00012655,-0.00026582,0.00014885,
 0.00008244,-0.00000931,0.00005819,0.00003401,0.00006290,-0.00004239,0.
 00067757,-0.01523135,-0.01628908,-0.00431030,0.13934025,0.24773803\\-0
 .00000081,-0.00000100,-0.00000040,0.00000095,0.00000033,-0.00000036,-0
 .00000012,0.00000016,0.00000071,-0.00000082,0.00000086,-0.00000025,-0.
 00000048,-0.00000046,0.00000002,-0.00000002,0.00000055,0.00000021,0.00
 000023,0.00000018,0.00000050,0.00000026,-0.00000009,-0.00000012,0.0000
 0034,-0.00000059,0.00000001,-0.00000004,-0.00000039,-0.00000004,-0.000
 00010,0.00000012,-0.00000021,-0.00000025,0.00000010,-0.00000014,-0.000
 00004,-0.00000019,-0.00000014,0.00000027,-0.00000055,0.00000002,-0.000
 00040,0.00000004,0.00000014,0.00000060,0.00000048,-0.00000012,0.000000
 41,0.00000043,0.00000019\\\@


 Everywhere is walking distance if you have the time.
                                    -- Steven Wright
 File lengths (MBytes):  RWF=     42 Int=      0 D2E=      0 Chk=      2 Scr=      1
 Normal termination of Gaussian 16 at Mon Feb  6 10:24:26 2023.
real 116.24
user 443.85
sys 2.98
