You are running Q-Chem version: 5.3.2

#
# job setting
#
local host:  c009.cluster
current dir: /scratch/user/peterchao1/peterchao1/7000874_1675661404000000349608249
input file:  qchem_test.inp
output file: 
nprocs     : 0
nthreads   : 8
#
# qchem installation setting
#
QC:          /sw/restricted/qchem/sw/5.3.2
QCAUX:       /sw/restricted/qchem/sw/5.3.2/qcaux
QCPROG:      /sw/restricted/qchem/sw/5.3.2/exe/qcprog.exe_s
QCPROG_S:    /sw/restricted/qchem/sw/5.3.2/exe/qcprog.exe_s
PARALLEL:    -DSERIAL
QCMPI:       seq
#
# qchem directory setting
#
qcrun:       qchem228130
QCSCRATCH:   /scratch/user/peterchao1/peterchao1/7000874_1675661404000000349608249
QCLOCALSCR:  
QCTMPDIR:    /scratch/user/peterchao1/peterchao1/7000874_1675661404000000349608249
QCFILEPREF:  /scratch/user/peterchao1/peterchao1/7000874_1675661404000000349608249/qchem228130
QCSAVEDIR:   
workdirs:    /scratch/user/peterchao1/peterchao1/7000874_1675661404000000349608249/qchem228130
workdir0:    /scratch/user/peterchao1/peterchao1/7000874_1675661404000000349608249/qchem228130
partmpdirs =  
#
# parallel setting
#
QCRSH:           ssh
QCMPI:           seq
QCMPIRUN:        
QCMACHINEFILE:   /scratch/user/peterchao1/peterchao1/7000874_1675661404000000349608249/qchem228130/hostfile

#
# env setting
#
exported envs:   QC QCAUX QCSCRATCH QCRUNNAME QCFILEPREF QCPROG QCPROG_S GUIFILE

Running Job 1 of 1 qchem_test.inp
qchem qchem_test.inp_228130.0 /scratch/user/peterchao1/peterchao1/7000874_1675661404000000349608249/qchem228130/ 0
/sw/restricted/qchem/sw/5.3.2/exe/qcprog.exe_s qchem_test.inp_228130.0 /scratch/user/peterchao1/peterchao1/7000874_1675661404000000349608249/qchem228130/
                  Welcome to Q-Chem
     A Quantum Leap Into The Future Of Chemistry


 Q-Chem 5.3, Q-Chem, Inc., Pleasanton, CA (2020)

 License issued to: MRG Daniel Tabor and Mike Hall, Texas A&M University

 Yihan Shao,  Zhengting Gan,  E. Epifanovsky,  A. T. B. Gilbert,  M. Wormit,  
 J. Kussmann,  A. W. Lange,  A. Behn,  Jia Deng,  Xintian Feng,  D. Ghosh,  
 M. Goldey,  P. R. Horn,  L. D. Jacobson,  I. Kaliman,  T. Kus,  A. Landau,  
 Jie Liu,  E. I. Proynov,  R. M. Richard,  R. P. Steele,  E. J. Sundstrom,  
 H. L. Woodcock III,  P. M. Zimmerman,  D. Zuev,  B. Alam,  B. Albrecht,  
 A. Aldossary,  E. Alguire,  S. A. Baeppler,  D. Barton,  Z. Benda,  
 Y. A. Bernard,  E. J. Berquist,  K. B. Bravaya,  H. Burton,  K. Carter-Fenk,  
 D. Casanova,  Chun-Min Chang,  Yunqing Chen,  A. Chien,  K. D. Closser,  
 M. P. Coons,  S. Coriani,  S. Dasgupta,  A. L. Dempwolff,  M. Diedenhofen,  
 Hainam Do,  R. G. Edgar,  Po-Tung Fang,  S. Faraji,  S. Fatehi,  
 Qingguo Feng,  J. Fosso-Tande,  J. Gayvert,  Qinghui Ge,  A. Ghysels,  
 G. Gidofalvi,  J. Gomes,  J. Gonthier,  S. Gulania,  A. Gunina,  D. Hait,  
 M. W. D. Hanson-Heine,  S. Hammes-Schiffer,  P. H. P. Harbach,  
 A. W. Hauser,  M. F. Herbst,  J. E. Herr,  E. G. Hohenstein,  Z. C. Holden,  
 S. Houck,  Kerwin Hui,  B. C. Huynh,  M. Ivanov,  T.-C. Jagau,  Hyunjun Ji,  
 B. Kaduk,  K. Khistyaev,  Jaehoon Kim,  P. Klunzinger,  K. Koh,  
 D. Kosenkov,  L. Koulias,  T. Kowalczyk,  C. M. Krauter,  A. Kunitsa,  
 Ka Un Lao,  A. Laurent,  K. V. Lawler,  Joonho Lee,  D. Lefrancois,  
 S. Lehtola,  D. S. Levine,  Yi-Pei Li,  You-Sheng Lin,  Fenglai Liu,  
 Kuan-Yu Liu,  E. Livshits,  M. Loipersberger,  A. Luenser,  A. Manjanath,  
 P. Manohar,  E. Mansoor,  S. F. Manzer,  Shan-Ping Mao,  Yuezhi Mao,  
 N. Mardirossian,  A. V. Marenich,  T. Markovich,  L. A. Martinez-Martinez,  
 S. A. Maurer,  N. J. Mayhall,  S. C. McKenzie,  J.-M. Mewes,  P. Morgante,  
 A. F. Morrison,  J. W. Mullinax,  K. Nanda,  T. S. Nguyen-Beck,  
 R. Olivares-Amaya,  K. J. Oosterbaan,  J. A. Parkhill,  S. K. Paul,  
 F. Pavosevic,  Zheng Pei,  T. M. Perrine,  F. Plasser,  P. Pokhilko,  
 S. Prager,  A. Prociuk,  E. Ramos,  B. Rana,  D. R. Rehn,  F. Rob,  
 E. Rossomme,  M. Scheurer,  M. Schneider,  N. Sergueev,  S. M. Sharada,  
 S. Sharma,  W. Skomorowski,  D. W. Small,  T. Stauch,  C. J. Stein,  
 T. Stein,  Yu-Chuan Su,  S. P. Veccham,  Zhen Tao,  A. J. W. Thom,  
 A. Tkatchenko,  T. Tsuchimochi,  N. M. Tubman,  L. Vogt,  M. L. Vidal,  
 O. Vydrov,  M. A. Watson,  J. Wenzel,  M. de Wergifosse,  T. A. Wesolowski,  
 A. White,  J. Witte,  A. Yamada,  Jun Yang,  K. Yao,  S. Yeganeh,  
 S. R. Yost,  Zhi-Qiang You,  A. Zech,  Igor Ying Zhang,  Xing Zhang,  
 Yan Zhao,  Ying Zhu,  B. R. Brooks,  G. K. L. Chan,  C. J. Cramer,  
 M. S. Gordon,  W. J. Hehre,  A. Klamt,  M. W. Schmidt,  C. D. Sherrill,  
 D. G. Truhlar,  A. Aspuru-Guzik,  R. Baer,  A. T. Bell,  N. A. Besley,  
 Jeng-Da Chai,  A. E. DePrince, III,  R. A. DiStasio Jr.,  A. Dreuw,  
 B. D. Dunietz,  T. R. Furlani,  Chao-Ping Hsu,  Yousung Jung,  Jing Kong,  
 D. S. Lambrecht,  WanZhen Liang,  C. Ochsenfeld,  V. A. Rassolov,  
 L. V. Slipchenko,  J. E. Subotnik,  T. Van Voorhis,  J. M. Herbert,  
 A. I. Krylov,  P. M. W. Gill,  M. Head-Gordon

 Contributors to earlier versions of Q-Chem not listed above: 
 R. D. Adamson,  B. Austin,  J. Baker,  G. J. O. Beran,  K. Brandhorst,  
 S. T. Brown,  E. F. C. Byrd,  A. K. Chakraborty,  C.-L. Cheng,  
 Siu Hung Chien,  D. M. Chipman,  D. L. Crittenden,  H. Dachsel,  
 R. J. Doerksen,  A. D. Dutoi,  L. Fusti-Molnar,  W. A. Goddard III,  
 A. Golubeva-Zadorozhnaya,  S. R. Gwaltney,  G. Hawkins,  A. Heyden,  
 S. Hirata,  G. Kedziora,  F. J. Keil,  C. Kelley,  Jihan Kim,  R. A. King,  
 R. Z. Khaliullin,  P. P. Korambath,  W. Kurlancheek,  A. M. Lee,  M. S. Lee,  
 S. V. Levchenko,  Ching Yeh Lin,  D. Liotard,  R. C. Lochan,  I. Lotan,  
 P. E. Maslen,  N. Nair,  D. P. O'Neill,  D. Neuhauser,  E. Neuscamman,  
 C. M. Oana,  R. Olson,  B. Peters,  R. Peverati,  P. A. Pieniazek,  
 Y. M. Rhee,  J. Ritchie,  M. A. Rohrdanz,  E. Rosta,  N. J. Russ,  
 H. F. Schaefer III,  N. E. Schultz,  N. Shenvi,  A. C. Simmonett,  A. Sodt,  
 D. Stuck,  K. S. Thanthiriwatte,  V. Vanovschi,  Tao Wang,  A. Warshel,  
 C. F. Williams,  Q. Wu,  X. Xu,  W. Zhang

 Please cite Q-Chem as follows:
 Y. Shao et al., Mol. Phys. 113, 184-215 (2015)
 DOI: 10.1080/00268976.2014.952696

 Q-Chem 5.3.2 for Intel X86 EM64T Linux

 Parts of Q-Chem use Armadillo 9.800.1 (Horizon Scraper).
 http://arma.sourceforge.net/

 Q-Chem begins on Sun Feb  5 23:30:04 2023  

Host: 
0

     Scratch files written to /scratch/user/peterchao1/peterchao1/7000874_1675661404000000349608249/qchem228130//
 Dec820 |scratch|qcdevops|jenkins|workspace|build_RNUM -1
Processing $rem in /sw/restricted/qchem/sw/5.3.2/config/preferences:
Processing $rem in /home/peterchao1/.qchemrc:

 Q-Chem warning in module libgen/rem_setup.C, line 2945:

 Neither GIA nor STOLL is specified by user. Use STOLL as the default


Checking the input file for inconsistencies... 	...done.

--------------------------------------------------------------
User input:
--------------------------------------------------------------
$molecule
0 1
--
0 1
C        1.327267   -2.460557    0.302946
C        1.578665   -1.029538    0.771634
C        2.783376   -0.279264    0.154924
C        4.092196   -0.930396    0.629250
C        2.753745   -0.329688   -1.389044
C        1.520923    0.268245   -2.063063
C        2.705824    1.176964    0.677265
C        3.734973    2.165257    0.132269
H        0.475535   -2.895901    0.854193
H        2.198302   -3.116831    0.472809
H        1.075990   -2.504682   -0.770683
H        1.703461   -1.027416    1.870910
H        0.665739   -0.438854    0.583177
H        4.975794   -0.413219    0.216951
H        4.157888   -1.984083    0.307009
H        4.169884   -0.908052    1.731383
H        2.861734   -1.382721   -1.707114
H        3.656399    0.179600   -1.772985
H        0.594443   -0.253110   -1.769003
H        1.607427    0.192796   -3.160766
H        1.390922    1.336141   -1.815460
H        2.789571    1.142774    1.780017
H        1.694699    1.575165    0.471967
H        3.617132    2.325833   -0.953250
H        4.770723    1.829937    0.312198
H        3.618247    3.146967    0.622668
--
0 1
C       -2.920754   -2.312270   -0.663576
C       -2.141435   -1.009617   -0.832017
C       -2.740551    0.262738   -0.183561
C       -4.061621    0.622568   -0.881753
C       -3.033596    0.046570    1.317952
C       -1.839008   -0.323816    2.194169
C       -1.712678    1.400057   -0.403181
C       -2.019923    2.750832    0.239674
H       -2.419544   -3.127888   -1.212696
H       -3.950490   -2.238086   -1.053160
H       -2.982494   -2.620967    0.394255
H       -2.008646   -0.806741   -1.911522
H       -1.123282   -1.164575   -0.434931
H       -3.906333    0.786902   -1.963507
H       -4.505035    1.541097   -0.460198
H       -4.812217   -0.178126   -0.765315
H       -3.806796   -0.737278    1.414657
H       -3.502934    0.963205    1.719216
H       -2.155964   -0.454785    3.243172
H       -1.058618    0.456583    2.180700
H       -1.367585   -1.268508    1.871774
H       -1.591978    1.539633   -1.494016
H       -0.724571    1.061697   -0.043672
H       -1.246584    3.487890   -0.037538
H       -2.032600    2.689616    1.341552
H       -2.992634    3.157481   -0.086108
$end

$rem
JOBTYPE           eda
EDA2              2
METHOD            wB97x-D
BASIS             def2-SV(P)
SCF_CONVERGENCE   8
THRESH            14
SYMMETRY          false
DISP_FREE_X       wB97X-D
DISP_FREE_C       none
EDA_BSSE          true
$end
--------------------------------------------------------------
 ----------------------------------------------------------------
             Standard Nuclear Orientation (Angstroms)
    I     Atom           X                Y                Z
 ----------------------------------------------------------------
    1      C      -1.3272669954    -2.4605569956    -0.3029461113
    2      C      -1.5786650146    -1.0295379450    -0.7716339465
    3      C      -2.7833759849    -0.2792640090    -0.1549238105
    4      C      -4.0921960079    -0.9303959560    -0.6292498199
    5      C      -2.7537449137    -0.3296881744     1.3890441827
    6      C      -1.5209228816     0.2682447514     2.0630631898
    7      C      -2.7058240065     1.1769640468    -0.6772646582
    8      C      -3.7349729797     2.1652569902    -0.1322685048
    9      H      -0.4755350216    -2.8959009380    -0.8541931972
   10      H      -2.1983020044    -3.1168309759    -0.4728091414
   11      H      -1.0759899459    -2.5046821110     0.7706828724
   12      H      -1.7034610654    -1.0274158271    -1.8709099405
   13      H      -0.6657390049    -0.4388539667    -0.5831769254
   14      H      -4.9757939880    -0.4132189986    -0.2169507237
   15      H      -4.1578879948    -1.9840829904    -0.3070089297
   16      H      -4.1698840587    -0.9080518378    -1.7313828139
   17      H      -2.8617339008    -1.3827212083     1.7071140749
   18      H      -3.6563988951     0.1795997860     1.7729852789
   19      H      -0.5944428961    -0.2531102187     1.7690030912
   20      H      -1.6074268311     0.1927956340     3.1607661857
   21      H      -1.3909218912     1.3361407776     1.8154602982
   22      H      -2.7895710575     1.1427741650    -1.7800166580
   23      H      -1.6946989964     1.5751650231    -0.4719666622
   24      H      -3.6171319293     2.3258328737     0.9532505069
   25      H      -4.7707229886     1.8299370112    -0.3121974930
   26      H      -3.6182470007     3.1469670425    -0.6226674051
   27      C       2.9207540494    -2.3122701063     0.6635757085
   28      C       2.1414350594    -1.0096171230     0.8320168840
   29      C       2.7405510316     0.2627379454     0.1835609926
   30      C       4.0616210645     0.6225678684     0.8817529701
   31      C       3.0335959620     0.0465701057    -1.3179520441
   32      C       1.8390079209    -0.3238157985    -2.1941690286
   33      C       1.7126780437     1.4000569236     0.4031811618
   34      C       2.0199230163     2.7508319919    -0.2396737077
   35      H       2.4195440734    -3.1278881643     1.2126956443
   36      H       3.9504900675    -2.2380861498     1.0531596689
   37      H       2.9824940001    -2.6209669931    -0.3942553274
   38      H       2.0086461096    -0.8067412384     1.9115219118
   39      H       1.1232820408    -1.1645750788     0.4349309144
   40      H       3.9063331147     0.7869017528     1.9635069949
   41      H       4.5050350466     1.5410969128     0.4601980480
   42      H       4.8122170577    -0.1781261204     0.7653148497
   43      H       3.8067959562    -0.7372778853    -1.4146571637
   44      H       3.5029339450     0.9632051479    -1.7192159676
   45      H       2.1559638723    -0.4547846867    -3.2431720573
   46      H       1.0586179229     0.4565832014    -2.1806999091
   47      H       1.3675849342    -1.2685078322    -1.8717741080
   48      H       1.5919780943     1.5396328070     1.4940161823
   49      H       0.7245710265     1.0616969638     0.0436721712
   50      H       1.2465840304     3.4878899636     0.0375384069
   51      H       2.0325999654     2.6896161099    -1.3415517149
   52      H       2.9926340321     3.1574809554     0.0861082909
 ----------------------------------------------------------------
 Molecular Point Group                 C1    NOp =  1
 Largest Abelian Subgroup              C1    NOp =  1
 Nuclear Repulsion Energy =        1264.48136073 hartrees
 There are       66 alpha and       66 beta electrons
 Requested basis set is def2-SV(P)
 There are 168 shells and 296 basis functions

 Total QAlloc Memory Limit   7500 MB
 Mega-Array Size       188 MB
 MEM_STATIC part       192 MB
 A cutoff of  1.0D-14 yielded  12508 shell pairs
 There are     37570 function pairs (     41288 Cartesian)
 Smallest overlap matrix eigenvalue = 1.03E-03

 Scale SEOQF with 1.000000e-01/1.000000e-01/1.000000e-01

 Standard Electronic Orientation quadrupole field applied
 Nucleus-field energy     =     0.0000000389 hartrees

 -----------------------------------------------------------------------
  General SCF calculation program by
  Eric Jon Sundstrom, Paul Horn, Yuezhi Mao, Dmitri Zuev, Alec White,
  David Stuck, Shaama M.S., Shane Yost, Joonho Lee, David Small,
  Daniel Levine, Susi Lehtola, Hugh Burton, Evgeny Epifanovsky,
  Bang C. Huynh
 -----------------------------------------------------------------------
================================================================
                 ALMO-EDA with the EDA2 driver                  
================================================================
 The second-generation ALMO-EDA (for DFT):                      
 P. R. Horn, Y. Mao and M. Head-Gordon, PCCP, 18, 23067 (2016)  
 Decomposition of the frozen energy:                            
 P. R. Horn, Y. Mao and M. Head-Gordon, JCP, 144, 114107 (2016) 
Using eda2 option set 2
Option set summary: Frozen orbital wavefunction, initial wavefunction decomposition, and traditional AO-based POL.
--------------------------------
Printing EDA Options
--------------------------------
eda_child_super_basis      0
fragmo_guess_mode          0
child_mp                   0
child_mp_orders            0
cls_elec                   1
cls_disp                   0
scfmi_mode                 1
scfmi_occs                 0
scfmi_virts                0
frz_relax                  0
frz_relax_method           0
dc_pen_start               0
dc_pen_conv                0
dc_pen_increment           0
dc_pen_steps               0
dc_pen_thresh_factor       0
dc_pen_pre_newton_thresh   0
frz_ortho_decomp           1
frz_ortho_decomp_conv      6
plot_mo_ortho_frz          0
frgm_method                2
scfmi_freeze_ss            0
separate_rehyb             0
plot_diff_den              0
eda_nocv                   0
eda_vct_relax              1
disp_free_x                -110
disp_free_c                0
eda_bsse                   1
eda_pct_a                  0
eda_covp                   0
--------------------------------
Attempting to make child job directory: /scratch/user/peterchao1/peterchao1/7000874_1675661404000000349608249/qchem228130//Frg1/
Attempting to make child job directory: /scratch/user/peterchao1/peterchao1/7000874_1675661404000000349608249/qchem228130//Frg2/
Creating input file /scratch/user/peterchao1/peterchao1/7000874_1675661404000000349608249/qchem228130/Frg1.input
using default PutDataFrgm: nothing
calling putenv with: QCSCRATCH=/scratch/user/peterchao1/peterchao1/7000874_1675661404000000349608249/qchem228130/ 
Spawning Job For Fragment 0
Done Job For Fragment 0
calling putenv with: QCSCRATCH=/scratch/user/peterchao1/peterchao1/7000874_1675661404000000349608249 
calling putenv with: QCTHREADS=8 
Creating input file /scratch/user/peterchao1/peterchao1/7000874_1675661404000000349608249/qchem228130/Frg2.input
using default PutDataFrgm: nothing
calling putenv with: QCSCRATCH=/scratch/user/peterchao1/peterchao1/7000874_1675661404000000349608249/qchem228130/ 
Spawning Job For Fragment 1
Done Job For Fragment 1
calling putenv with: QCSCRATCH=/scratch/user/peterchao1/peterchao1/7000874_1675661404000000349608249 
calling putenv with: QCTHREADS=8 
Doing General SCFMI
 Exchange:     0.2220 Hartree-Fock + 1.0000 wB97X-D + LR-HF
 Correlation:  1.0000 wB97X-D
 Using SG-2 standard quadrature grid
 Dispersion:   Grimme D
performing fock build before subrot guess so that all methods have access
Printing subrot_rss_gen Method Specification:
Occupied Subspace Method is 0
Virtual Subspace Method is 0
Energy of the unrelaxed supersystem initial determinant -630.711825774312
write pseudocanon occs and virts to disk
write pseudocanon orbital energies to disk
Tolerance of ortho_decomp_scf: 1.00e-06
GDM subspace size: 20
Beginning the Orthogonal Decomposition of the Initial Supersystem Wavefunction
    1    -630.6821876468      1.40e-02     ortho_decomp Preconditoned Steepest Descent
    2    -630.6837696643      3.54e-04     ortho_decomp BFGS Step
    3    -630.6837747767      2.65e-05     ortho_decomp BFGS Step
    4    -630.6837747854      1.04e-06     ortho_decomp BFGS Step
    5    -630.6837747855      3.54e-08     ortho_decomp 00000 Convergence criterion met
 Exchange:     0.2220 Hartree-Fock + 1.0000 wB97X-D + LR-HF
 Correlation:  1.0000 wB97X-D
 Using SG-2 standard quadrature grid
 Dispersion:   Grimme D
 Long-range K will be added via erf
 Coulomb attenuation parameter = 0.2 bohr**(-1)
 Exchange:     0.2220 Hartree-Fock + 1.0000 wB97X-D + LR-HF
 Correlation:  1.0000 wB97X-D
 Using SG-2 standard quadrature grid
 Dispersion:   Grimme D
 Long-range K will be added via erf
 Coulomb attenuation parameter = 0.2 bohr**(-1)
 Exchange:     0.2220 Hartree-Fock + 1.0000 wB97X-D + LR-HF
 Correlation:  1.0000 wB97X-D
 Using SG-2 standard quadrature grid
 Dispersion:   Grimme D
 Long-range K will be added via erf
 Coulomb attenuation parameter = 0.2 bohr**(-1)
Doing General SCFMI
 Exchange:     0.2220 Hartree-Fock + 1.0000 wB97X-D + LR-HF
 Correlation:  1.0000 wB97X-D
 Using SG-2 standard quadrature grid
 Dispersion:   Grimme D
performing fock build at end of subrot_r(subrot) constructor so that all methods have access
<S^2> of initial wavefunction before polarization iterations 0.0000000000
Beginning iterations for the determination of the polarized wavefunction
Energy prior to optimization (guess energy) = -630.711825774312
Begin Timing: Total SCF Calculation
begin iterations for algorithm: DIIS         
the SCF tolerance is set to 1.00e-08
    1    -630.7118257743      8.65e-05     00000 
    2    -630.7120700219      3.08e-05     00000 
    3    -630.7120893487      1.73e-05     00000 
    4    -630.7120969928      3.00e-06     00000 
    5    -630.7120972528      1.10e-06     00000 
    6    -630.7120972940      2.93e-07     00000 
    7    -630.7120972970      9.81e-08     00000 
    8    -630.7120972974      2.05e-08     00000 
    9    -630.7120972975      6.77e-09     00000 Convergence criterion met
write pseudocanon occs and virts to disk
write pseudocanon orbital energies to disk
Timing for Total SCF: 386.00s (wall), 384.18s (cpu)
<S^2> of polarized wavefunction after polarization iterations 0.0000000000
relaxing scfmi constraint to allow all rotations in the entire AO span
Doing General SCFMI
 Exchange:     0.2220 Hartree-Fock + 1.0000 wB97X-D + LR-HF
 Correlation:  1.0000 wB97X-D
 Using SG-2 standard quadrature grid
 Dispersion:   Grimme D
performing fock build at end of subrot_r(subrot) constructor so that all methods have access
<S^2> of polarized wavefunction before ct-allowed iterations 0.0000000000
Beginning iterations for the determination of the CT-Allowed wavefunction
Energy prior to optimization (guess energy) = -630.712097297451
Begin Timing: Total SCF Calculation
begin iterations for algorithm: DIIS         
the SCF tolerance is set to 1.00e-08
    1    -630.7120972975      3.02e-04     00000 
    2    -630.7158529316      3.06e-05     00000 
    3    -630.7159640478      4.83e-06     00000 
    4    -630.7159673580      1.22e-06     00000 
    5    -630.7159674385      4.20e-07     00000 
    6    -630.7159674489      1.22e-07     00000 
    7    -630.7159674497      2.13e-08     00000 
    8    -630.7159674497      8.68e-09     00000 Convergence criterion met
write pseudocanon occs and virts to disk
write pseudocanon orbital energies to disk
Timing for Total SCF: 353.00s (wall), 351.71s (cpu)
<S^2> of ct_allowed wavefunction after ct-allowed iterations 0.0000000000
Attempting to make child job directory: /scratch/user/peterchao1/peterchao1/7000874_1675661404000000349608249/qchem228130//FrgBSSE1/
Attempting to make child job directory: /scratch/user/peterchao1/peterchao1/7000874_1675661404000000349608249/qchem228130//FrgBSSE2/
Creating input file /scratch/user/peterchao1/peterchao1/7000874_1675661404000000349608249/qchem228130/FrgBSSE1.input
calling putenv with: QCSCRATCH=/scratch/user/peterchao1/peterchao1/7000874_1675661404000000349608249/qchem228130/ 
Spawning Job For Fragment 0
Done Job For Fragment 0
calling putenv with: QCSCRATCH=/scratch/user/peterchao1/peterchao1/7000874_1675661404000000349608249 
calling putenv with: QCTHREADS=8 
Creating input file /scratch/user/peterchao1/peterchao1/7000874_1675661404000000349608249/qchem228130/FrgBSSE2.input
calling putenv with: QCSCRATCH=/scratch/user/peterchao1/peterchao1/7000874_1675661404000000349608249/qchem228130/ 
Spawning Job For Fragment 1
Done Job For Fragment 1
calling putenv with: QCSCRATCH=/scratch/user/peterchao1/peterchao1/7000874_1675661404000000349608249 
calling putenv with: QCTHREADS=8 
====================================================================
   Evaluating the BSSE with fragment SCF in the supersystem basis
   Fragment contributions (kJ/mol) 
   Frgm 1: 2.6557
   Frgm 2: 3.0098
   BSSE (kJ/mol) = 5.6655
====================================================================

================================
        Results of EDA2         
================================
Basic EDA Quantities
--------------------
Fragment Energies (Ha):
1 -315.3535967239
2 -315.3537666801
--------------------
  E_prp (kJ/mol) = 0.0000
  E_frz (kJ/mol) = -11.7161
  E_pol (kJ/mol) = -0.7129
  E_vct (kJ/mol) = -4.4957 (CP-corrected)
  E_int (kJ/mol) = -16.9247 (CP-corrected)
--------------------


Decomposition of frozen interaction energy
--------------------
  --------------------
  Orthogonal Frozen Decomposition:
  --------------------
     E_elec   (ELEC)   (kJ/mol) = -25.5420
     E_pauli  (PAULI)  (kJ/mol) = 40.9037
     E_disp   (DISP)   (kJ/mol) = -27.0778
  --------------------
  Classical Frozen Decomposition:
  --------------------
     E_cls_elec  (CLS ELEC)  (kJ/mol) = -7.3422
     E_mod_pauli (MOD PAULI) (kJ/mol) = 22.7039 (FRZ - CLS ELEC - DISP)
     E_disp      (DISP)      (kJ/mol) = -27.0778
  --------------------
--------------------

Simplified EDA Summary (kJ/mol)
--------------------
 PREPARATION      0.0000
 FROZEN           -11.7161 (ELEC + PAULI + DISP)
[ELEC + PAULI = 15.3617, DISP = -27.0778]
 POLARIZATION    -0.7129
 CHARGE TRANSFER -4.4957     (counterpoise-corrected)
 TOTAL           -16.9247     (PRP + FRZ + POL + CT)
--------------------
 
 --------------------------------------------------------------
 
                    Orbital Energies (a.u.)
 --------------------------------------------------------------
 
 Alpha MOs
 -- Occupied --
-10.3003 -10.2999 -10.2830 -10.2830 -10.2829 -10.2824 -10.2823 -10.2818
-10.2789 -10.2783 -10.2782 -10.2781 -10.2779 -10.2768 -10.2748 -10.2747
 -0.9243  -0.9227  -0.8407  -0.8392  -0.8326  -0.8309  -0.8001  -0.7976
 -0.7397  -0.7391  -0.7083  -0.7045  -0.6801  -0.6797  -0.6047  -0.6016
 -0.5639  -0.5614  -0.5600  -0.5504  -0.5369  -0.5314  -0.5059  -0.5057
 -0.4887  -0.4880  -0.4856  -0.4834  -0.4831  -0.4799  -0.4720  -0.4713
 -0.4554  -0.4538  -0.4526  -0.4478  -0.4325  -0.4316  -0.4261  -0.4229
 -0.4217  -0.4203  -0.4088  -0.4077  -0.3912  -0.3811  -0.3811  -0.3800
 -0.3777  -0.3741
 -- Virtual --
  0.1141   0.1337   0.1371   0.1468   0.1564   0.1642   0.1731   0.1750
  0.1790   0.1833   0.1862   0.1888   0.1930   0.2022   0.2071   0.2135
  0.2164   0.2197   0.2218   0.2220   0.2349   0.2366   0.2383   0.2402
  0.2516   0.2544   0.2609   0.2691   0.2777   0.2813   0.2821   0.2855
  0.2856   0.2922   0.3003   0.3027   0.3053   0.3110   0.3189   0.3225
  0.3309   0.3321   0.3433   0.3451   0.3482   0.3523   0.3560   0.3701
  0.3843   0.3993   0.4797   0.4961   0.5007   0.5053   0.5095   0.5178
  0.5225   0.5278   0.5330   0.5366   0.5490   0.5743   0.5788   0.5879
  0.5982   0.6079   0.6149   0.6337   0.6457   0.6506   0.6549   0.6625
  0.6802   0.6831   0.6890   0.6988   0.7055   0.7158   0.7227   0.7461
  0.7499   0.7534   0.7603   0.7646   0.7664   0.7704   0.7788   0.7822
  0.7837   0.7872   0.7895   0.7944   0.7999   0.8011   0.8026   0.8044
  0.8075   0.8091   0.8111   0.8138   0.8175   0.8206   0.8232   0.8238
  0.8277   0.8345   0.8362   0.8411   0.8430   0.8471   0.8509   0.8541
  0.8585   0.8618   0.8636   0.8659   0.8710   0.8754   0.8875   0.8905
  0.9009   0.9029   0.9210   0.9220   0.9346   0.9642   0.9678   1.0220
  1.0250   1.0290   1.0364   1.0583   1.0698   1.0795   1.0927   1.1152
  1.1353   1.1522   1.1651   1.1868   1.2166   1.2354   1.2554   1.2820
  1.3009   1.3175   1.3424   1.3567   1.3721   1.3874   1.4439   1.4465
  1.5025   1.5169   1.6448   1.6480   1.6848   1.6863   1.6886   1.6951
  1.7820   1.7934   1.8363   1.8435   1.8804   1.8870   1.9520   1.9573
  1.9643   1.9750   1.9847   1.9870   2.0026   2.0126   2.0155   2.0201
  2.0257   2.0264   2.0364   2.0469   2.0705   2.0794   2.0926   2.0988
  2.1277   2.1303   2.1378   2.1498   2.1524   2.1592   2.1891   2.1987
  2.2048   2.2122   2.2753   2.2817   2.2898   2.3041   2.3100   2.3208
  2.3230   2.3289   2.3299   2.3386   2.3436   2.3540   2.3699   2.3751
  2.3777   2.3843   2.4042   2.4079   2.4343   2.4418   2.5188   2.5244
  2.6180   2.6201   2.6483   2.6494   2.6531   2.6585   2.8200   2.8242
  2.8334   2.8360   2.8633   2.8663   2.8722   2.8825
 --------------------------------------------------------------
 
          Ground-State Mulliken Net Atomic Charges

     Atom                 Charge (a.u.)
  ----------------------------------------
      1 C                    -0.316690
      2 C                    -0.233830
      3 C                    -0.216633
      4 C                    -0.271152
      5 C                    -0.189128
      6 C                    -0.343918
      7 C                    -0.201538
      8 C                    -0.312350
      9 H                     0.124915
     10 H                     0.122134
     11 H                     0.124046
     12 H                     0.096905
     13 H                     0.128909
     14 H                     0.116443
     15 H                     0.115544
     16 H                     0.108975
     17 H                     0.101693
     18 H                     0.102127
     19 H                     0.129038
     20 H                     0.118072
     21 H                     0.121830
     22 H                     0.095729
     23 H                     0.116078
     24 H                     0.120089
     25 H                     0.117332
     26 H                     0.118355
     27 C                    -0.307653
     28 C                    -0.229784
     29 C                    -0.226188
     30 C                    -0.272409
     31 C                    -0.191516
     32 C                    -0.340859
     33 C                    -0.229188
     34 C                    -0.311783
     35 H                     0.118801
     36 H                     0.117889
     37 H                     0.119056
     38 H                     0.105666
     39 H                     0.134005
     40 H                     0.109336
     41 H                     0.116078
     42 H                     0.116218
     43 H                     0.102504
     44 H                     0.102547
     45 H                     0.119536
     46 H                     0.126476
     47 H                     0.131741
     48 H                     0.100650
     49 H                     0.139782
     50 H                     0.118487
     51 H                     0.119831
     52 H                     0.117803
  ----------------------------------------
  Sum of atomic charges =     0.000000

 -----------------------------------------------------------------
                    Cartesian Multipole Moments
 -----------------------------------------------------------------
    Charge (ESU x 10^10)
                 0.0000
    Dipole Moment (Debye)
         X       0.0252      Y      -0.0112      Z      -0.0323
       Tot       0.0425
    Quadrupole Moments (Debye-Ang)
        XX    -111.2037     XY      -0.1774     YY    -110.4618
        XZ      -0.3881     YZ      -0.0361     ZZ    -109.8032
    Octopole Moments (Debye-Ang^2)
       XXX       1.0421    XXY      -0.1384    XYY      -0.5902
       YYY       0.4896    XXZ      -1.1394    XYZ       0.6156
       YYZ       0.0143    XZZ       0.1138    YZZ      -0.3341
       ZZZ       0.0890
    Hexadecapole Moments (Debye-Ang^3)
      XXXX   -5165.1769   XXXY      -6.8359   XXYY   -1133.4364
      XYYY       6.4392   YYYY   -1641.9224   XXXZ     -11.7809
      XXYZ      -3.0978   XYYZ      -0.4052   YYYZ       0.4875
      XXZZ   -1015.7952   XYZZ      -3.2949   YYZZ    -432.2885
      XZZZ      -3.7431   YZZZ      -0.3085   ZZZZ    -957.0723
 -----------------------------------------------------------------
Archival summary:
1\1\c009.cluster\SP\ProcedureUnspecified\BasisUnspecified\1636\petercha\MonFeb600:13:522023MonFeb600:13:522023\0\\#,ProcedureUnspecified,BasisUnspecified,\\0,1\C\C,1,1.53694\H,2,1.10364,1,111.511\H,2,1.10366,1,111.518,3,-119.391,0\H,2,1.10513,1,111.02,3,120.297,0\C,1,1.54504,2,108.132,3,59.7749,0\H,6,1.10522,1,108.502,2,-56.8352,0\H,6,1.10526,1,108.478,2,56.7537,0\C,6,1.52708,1,116.307,2,179.949,0\H,9,1.10364,6,110.457,1,-179.999,0\H,9,1.10373,6,112,1,60.3709,0\H,9,1.10391,6,111.966,1,-60.3825,0\C,1,1.54863,2,109.521,3,-61.908,0\H,13,1.10458,1,108.822,2,-170.814,0\H,13,1.10633,1,107.752,2,-57.2539,0\C,13,1.52717,1,117.152,2,65.9883,0\H,16,1.10348,13,112.273,1,-57.2429,0\H,16,1.10365,13,111.933,1,64.1104,0\H,16,1.1037,13,110.119,1,-176.735,0\C,1,1.54865,2,109.552,3,-178.606,0\H,20,1.10378,1,108.757,2,171.101,0\H,20,1.1064,1,107.717,2,57.3073,0\C,20,1.52729,1,117.204,2,-65.9312,0\H,23,1.10347,20,112.327,1,57.4959,0\H,23,1.10362,20,110.104,1,177.045,0\H,23,1.10368,20,111.889,1,-63.8581,0\H,14,2.13952,13,153.063,1,15.6305,0\C,27,1.10357,14,164.365,13,145.858,0\H,28,1.10634,27,105.187,14,115.212,0\C,28,1.52666,27,108.244,14,-128.395,0\H,30,1.10352,28,111.942,27,59.2746,0\H,30,1.10374,28,112.342,27,-179.27,0\H,30,1.10401,28,110.083,27,-59.7483,0\C,28,1.54744,27,108.449,14,-0.0122438,0\C,34,1.53687,28,109.547,27,169.198,0\H,35,1.10372,34,111.59,28,-179.376,0\H,35,1.10382,34,111.409,28,61.2288,0\H,35,1.10509,34,111.045,28,-58.9921,0\C,34,1.54508,28,111.561,27,-71.1293,0\H,39,1.10525,34,108.447,28,-177.485,0\H,39,1.10531,34,108.468,28,-63.936,0\C,39,1.52698,34,116.346,28,59.2707,0\H,42,1.10302,39,112.048,34,-61.0961,0\H,42,1.10369,39,110.424,34,179.256,0\H,42,1.10391,39,112.017,34,59.6468,0\C,34,1.54902,28,106.406,27,50.6974,0\H,46,1.10593,34,108.764,28,-52.4096,0\H,46,1.10646,34,107.652,28,61.3054,0\C,46,1.52738,34,117.016,28,-175.695,0\H,49,1.10345,46,112.188,34,-57.0038,0\H,49,1.10357,46,110.229,34,-176.496,0\H,49,1.10364,46,111.91,34,64.2528,0\\\@

 Total job time:  2628.47s(wall), 1734.60s(cpu) 
 Mon Feb  6 00:13:52 2023

        *************************************************************
        *                                                           *
        *  Thank you very much for using Q-Chem.  Have a nice day.  *
        *                                                           *
        *************************************************************


remove work dirs /scratch/user/peterchao1/peterchao1/7000874_1675661404000000349608249/qchem228130.0 -- /scratch/user/peterchao1/peterchao1/7000874_1675661404000000349608249/qchem228130.-1
rm -rf /scratch/user/peterchao1/peterchao1/7000874_1675661404000000349608249/qchem228130
real 2628.86
user 2524.58
sys 88.04
