 Entering Gaussian System, Link 0=g16
 Input=gaussian_test.inp
 Output=gaussian_test.log
 Initial command:
 /sw/restricted/lms/sw/Gaussian/g16_B01/g16/l1.exe "/scratch/user/peterchao1/peterchao1/8626434_1689049008000000918807986/Gau-37902.inp" -scrdir="/scratch/user/peterchao1/peterchao1/8626434_1689049008000000918807986/"
 Entering Link 1 = /sw/restricted/lms/sw/Gaussian/g16_B01/g16/l1.exe PID=     37903.
  
 Copyright (c) 1988-2017, Gaussian, Inc.  All Rights Reserved.
  
 This is part of the Gaussian(R) 16 program.  It is based on
 the Gaussian(R) 09 system (copyright 2009, Gaussian, Inc.),
 the Gaussian(R) 03 system (copyright 2003, Gaussian, Inc.),
 the Gaussian(R) 98 system (copyright 1998, Gaussian, Inc.),
 the Gaussian(R) 94 system (copyright 1995, Gaussian, Inc.),
 the Gaussian 92(TM) system (copyright 1992, Gaussian, Inc.),
 the Gaussian 90(TM) system (copyright 1990, Gaussian, Inc.),
 the Gaussian 88(TM) system (copyright 1988, Gaussian, Inc.),
 the Gaussian 86(TM) system (copyright 1986, Carnegie Mellon
 University), and the Gaussian 82(TM) system (copyright 1983,
 Carnegie Mellon University). Gaussian is a federally registered
 trademark of Gaussian, Inc.
  
 This software contains proprietary and confidential information,
 including trade secrets, belonging to Gaussian, Inc.
  
 This software is provided under written license and may be
 used, copied, transmitted, or stored only in accord with that
 written license.
  
 The following legend is applicable only to US Government
 contracts under FAR:
  
                    RESTRICTED RIGHTS LEGEND
  
 Use, reproduction and disclosure by the US Government is
 subject to restrictions as set forth in subparagraphs (a)
 and (c) of the Commercial Computer Software - Restricted
 Rights clause in FAR 52.227-19.
  
 Gaussian, Inc.
 340 Quinnipiac St., Bldg. 40, Wallingford CT 06492
  
  
 ---------------------------------------------------------------
 Warning -- This program may not be used in any manner that
 competes with the business of Gaussian, Inc. or will provide
 assistance to any competitor of Gaussian, Inc.  The licensee
 of this program is prohibited from giving any competitor of
 Gaussian, Inc. access to this program.  By using this program,
 the user acknowledges that Gaussian, Inc. is engaged in the
 business of creating and licensing software in the field of
 computational chemistry and represents and warrants to the
 licensee that it is not a competitor of Gaussian, Inc. and that
 it will not use this program in any manner prohibited above.
 ---------------------------------------------------------------
  

 Cite this work as:
 Gaussian 16, Revision B.01,
 M. J. Frisch, G. W. Trucks, H. B. Schlegel, G. E. Scuseria, 
 M. A. Robb, J. R. Cheeseman, G. Scalmani, V. Barone, 
 G. A. Petersson, H. Nakatsuji, X. Li, M. Caricato, A. V. Marenich, 
 J. Bloino, B. G. Janesko, R. Gomperts, B. Mennucci, H. P. Hratchian, 
 J. V. Ortiz, A. F. Izmaylov, J. L. Sonnenberg, D. Williams-Young, 
 F. Ding, F. Lipparini, F. Egidi, J. Goings, B. Peng, A. Petrone, 
 T. Henderson, D. Ranasinghe, V. G. Zakrzewski, J. Gao, N. Rega, 
 G. Zheng, W. Liang, M. Hada, M. Ehara, K. Toyota, R. Fukuda, 
 J. Hasegawa, M. Ishida, T. Nakajima, Y. Honda, O. Kitao, H. Nakai, 
 T. Vreven, K. Throssell, J. A. Montgomery, Jr., J. E. Peralta, 
 F. Ogliaro, M. J. Bearpark, J. J. Heyd, E. N. Brothers, K. N. Kudin, 
 V. N. Staroverov, T. A. Keith, R. Kobayashi, J. Normand, 
 K. Raghavachari, A. P. Rendell, J. C. Burant, S. S. Iyengar, 
 J. Tomasi, M. Cossi, J. M. Millam, M. Klene, C. Adamo, R. Cammi, 
 J. W. Ochterski, R. L. Martin, K. Morokuma, O. Farkas, 
 J. B. Foresman, and D. J. Fox, Gaussian, Inc., Wallingford CT, 2016.
 
 ******************************************
 Gaussian 16:  ES64L-G16RevB.01 20-Dec-2017
                10-Jul-2023 
 ******************************************
 %chk=42.chk
 %nprocshared=4
 Will use up to    4 processors via shared memory.
 %mem=8000mb
 ----------------------------------------------------------------------
 #T wB97XD/def2svpp opt=tight freq int(grid=ultrafine) scf=(verytight,q
 c)
 ----------------------------------------------------------------------
 --------------
 Comment gs min
 --------------
 Symbolic Z-matrix:
 Charge =  0 Multiplicity = 1
 C                    -2.33813  -1.40277  -1.11016 
 C                    -2.49165  -0.46511   0.07275 
 C                    -2.39461  -1.15048   1.42147 
 N                    -1.4845    0.64886  -0.0033 
 O                    -1.30472   1.28956   0.99856 
 O                    -0.92231   0.82813  -1.05186 
 N                    -3.85126   0.19541  -0.04916 
 O                    -4.79792  -0.49642   0.19973 
 O                    -3.86713   1.34091  -0.41259 
 H                    -1.38264  -1.91743  -1.04583 
 H                    -2.37491  -0.85518  -2.05006 
 H                    -3.13708  -2.13995  -1.09341 
 H                    -1.45774  -1.69756   1.48451 
 H                    -3.22615  -1.84121   1.53577 
 H                    -2.4266   -0.4183    2.22589 
 C                     1.97794   1.03243   1.37504 
 C                     2.40733   0.44419   0.04448 
 C                     2.29819   1.38958  -1.13556 
 N                     3.83896  -0.03137   0.21051 
 O                     3.97641  -1.02817   0.87011 
 O                     4.70385   0.63631  -0.27913 
 N                     1.60748  -0.78581  -0.2828 
 O                     0.61707  -1.00489   0.3679 
 O                     2.00302  -1.44587  -1.20432 
 H                     2.6018    1.88972   1.61656 
 H                     2.07206   0.29028   2.16628 
 H                     0.94243   1.36387   1.33433 
 H                     2.64624   0.90008  -2.0435 
 H                     2.90744   2.27211  -0.96041 
 H                     1.26252   1.69231  -1.27609 
 
 Add virtual bond connecting atoms H27        and O5         Dist= 4.30D+00.
 Add virtual bond connecting atoms H30        and O6         Dist= 4.46D+00.

 GradGradGradGradGradGradGradGradGradGradGradGradGradGradGradGradGradGrad
 Initialization pass.
                           ----------------------------
                           !    Initial Parameters    !
                           ! (Angstroms and Degrees)  !
 --------------------------                            --------------------------
 ! Name  Definition              Value          Derivative Info.                !
 --------------------------------------------------------------------------------
 ! R1    R(1,2)                  1.5172         estimate D2E/DX2                !
 ! R2    R(1,10)                 1.0872         estimate D2E/DX2                !
 ! R3    R(1,11)                 1.0884         estimate D2E/DX2                !
 ! R4    R(1,12)                 1.0872         estimate D2E/DX2                !
 ! R5    R(2,3)                  1.516          estimate D2E/DX2                !
 ! R6    R(2,4)                  1.5037         estimate D2E/DX2                !
 ! R7    R(2,7)                  1.5165         estimate D2E/DX2                !
 ! R8    R(3,13)                 1.0867         estimate D2E/DX2                !
 ! R9    R(3,14)                 1.087          estimate D2E/DX2                !
 ! R10   R(3,15)                 1.0882         estimate D2E/DX2                !
 ! R11   R(4,5)                  1.2027         estimate D2E/DX2                !
 ! R12   R(4,6)                  1.2032         estimate D2E/DX2                !
 ! R13   R(5,27)                 2.2733         estimate D2E/DX2                !
 ! R14   R(6,30)                 2.3602         estimate D2E/DX2                !
 ! R15   R(7,8)                  1.1986         estimate D2E/DX2                !
 ! R16   R(7,9)                  1.2019         estimate D2E/DX2                !
 ! R17   R(16,17)                1.5168         estimate D2E/DX2                !
 ! R18   R(16,25)                1.0874         estimate D2E/DX2                !
 ! R19   R(16,26)                1.0889         estimate D2E/DX2                !
 ! R20   R(16,27)                1.088          estimate D2E/DX2                !
 ! R21   R(17,18)                1.516          estimate D2E/DX2                !
 ! R22   R(17,19)                1.5177         estimate D2E/DX2                !
 ! R23   R(17,22)                1.5033         estimate D2E/DX2                !
 ! R24   R(18,28)                1.0886         estimate D2E/DX2                !
 ! R25   R(18,29)                1.0866         estimate D2E/DX2                !
 ! R26   R(18,30)                1.0881         estimate D2E/DX2                !
 ! R27   R(19,20)                1.2031         estimate D2E/DX2                !
 ! R28   R(19,21)                1.1973         estimate D2E/DX2                !
 ! R29   R(22,23)                1.2051         estimate D2E/DX2                !
 ! R30   R(22,24)                1.2005         estimate D2E/DX2                !
 ! A1    A(2,1,10)             109.5933         estimate D2E/DX2                !
 ! A2    A(2,1,11)             111.0343         estimate D2E/DX2                !
 ! A3    A(2,1,12)             109.4307         estimate D2E/DX2                !
 ! A4    A(10,1,11)            108.6001         estimate D2E/DX2                !
 ! A5    A(10,1,12)            108.9023         estimate D2E/DX2                !
 ! A6    A(11,1,12)            109.2449         estimate D2E/DX2                !
 ! A7    A(1,2,3)              114.0637         estimate D2E/DX2                !
 ! A8    A(1,2,4)              110.5263         estimate D2E/DX2                !
 ! A9    A(1,2,7)              107.2907         estimate D2E/DX2                !
 ! A10   A(3,2,4)              109.6971         estimate D2E/DX2                !
 ! A11   A(3,2,7)              109.0154         estimate D2E/DX2                !
 ! A12   A(4,2,7)              105.8879         estimate D2E/DX2                !
 ! A13   A(2,3,13)             109.5347         estimate D2E/DX2                !
 ! A14   A(2,3,14)             109.3816         estimate D2E/DX2                !
 ! A15   A(2,3,15)             110.5846         estimate D2E/DX2                !
 ! A16   A(13,3,14)            109.4806         estimate D2E/DX2                !
 ! A17   A(13,3,15)            108.7339         estimate D2E/DX2                !
 ! A18   A(14,3,15)            109.1066         estimate D2E/DX2                !
 ! A19   A(2,4,5)              116.913          estimate D2E/DX2                !
 ! A20   A(2,4,6)              117.866          estimate D2E/DX2                !
 ! A21   A(5,4,6)              125.2208         estimate D2E/DX2                !
 ! A22   A(4,5,27)             106.7504         estimate D2E/DX2                !
 ! A23   A(4,6,30)             124.7417         estimate D2E/DX2                !
 ! A24   A(2,7,8)              116.1034         estimate D2E/DX2                !
 ! A25   A(2,7,9)              116.8261         estimate D2E/DX2                !
 ! A26   A(8,7,9)              127.0465         estimate D2E/DX2                !
 ! A27   A(17,16,25)           109.7648         estimate D2E/DX2                !
 ! A28   A(17,16,26)           110.4027         estimate D2E/DX2                !
 ! A29   A(17,16,27)           110.7774         estimate D2E/DX2                !
 ! A30   A(25,16,26)           109.0469         estimate D2E/DX2                !
 ! A31   A(25,16,27)           108.3108         estimate D2E/DX2                !
 ! A32   A(26,16,27)           108.4861         estimate D2E/DX2                !
 ! A33   A(16,17,18)           114.8717         estimate D2E/DX2                !
 ! A34   A(16,17,19)           107.0133         estimate D2E/DX2                !
 ! A35   A(16,17,22)           110.9576         estimate D2E/DX2                !
 ! A36   A(18,17,19)           110.3943         estimate D2E/DX2                !
 ! A37   A(18,17,22)           107.6067         estimate D2E/DX2                !
 ! A38   A(19,17,22)           105.6251         estimate D2E/DX2                !
 ! A39   A(17,18,28)           110.2297         estimate D2E/DX2                !
 ! A40   A(17,18,29)           109.9168         estimate D2E/DX2                !
 ! A41   A(17,18,30)           110.0323         estimate D2E/DX2                !
 ! A42   A(28,18,29)           108.6857         estimate D2E/DX2                !
 ! A43   A(28,18,30)           108.7651         estimate D2E/DX2                !
 ! A44   A(29,18,30)           109.1788         estimate D2E/DX2                !
 ! A45   A(17,19,20)           115.2996         estimate D2E/DX2                !
 ! A46   A(17,19,21)           117.5116         estimate D2E/DX2                !
 ! A47   A(20,19,21)           127.1337         estimate D2E/DX2                !
 ! A48   A(17,22,23)           117.9345         estimate D2E/DX2                !
 ! A49   A(17,22,24)           116.2104         estimate D2E/DX2                !
 ! A50   A(23,22,24)           125.8227         estimate D2E/DX2                !
 ! A51   A(5,27,16)            159.4476         estimate D2E/DX2                !
 ! A52   A(6,30,18)            140.0798         estimate D2E/DX2                !
 ! D1    D(10,1,2,3)           -57.701          estimate D2E/DX2                !
 ! D2    D(10,1,2,4)            66.448          estimate D2E/DX2                !
 ! D3    D(10,1,2,7)          -178.547          estimate D2E/DX2                !
 ! D4    D(11,1,2,3)          -177.6756         estimate D2E/DX2                !
 ! D5    D(11,1,2,4)           -53.5266         estimate D2E/DX2                !
 ! D6    D(11,1,2,7)            61.4784         estimate D2E/DX2                !
 ! D7    D(12,1,2,3)            61.6527         estimate D2E/DX2                !
 ! D8    D(12,1,2,4)          -174.1983         estimate D2E/DX2                !
 ! D9    D(12,1,2,7)           -59.1933         estimate D2E/DX2                !
 ! D10   D(1,2,3,13)            55.3348         estimate D2E/DX2                !
 ! D11   D(1,2,3,14)           -64.6607         estimate D2E/DX2                !
 ! D12   D(1,2,3,15)           175.1553         estimate D2E/DX2                !
 ! D13   D(4,2,3,13)           -69.2582         estimate D2E/DX2                !
 ! D14   D(4,2,3,14)           170.7463         estimate D2E/DX2                !
 ! D15   D(4,2,3,15)            50.5623         estimate D2E/DX2                !
 ! D16   D(7,2,3,13)           175.2154         estimate D2E/DX2                !
 ! D17   D(7,2,3,14)            55.2199         estimate D2E/DX2                !
 ! D18   D(7,2,3,15)           -64.9641         estimate D2E/DX2                !
 ! D19   D(1,2,4,5)           -164.5263         estimate D2E/DX2                !
 ! D20   D(1,2,4,6)             15.311          estimate D2E/DX2                !
 ! D21   D(3,2,4,5)            -37.9074         estimate D2E/DX2                !
 ! D22   D(3,2,4,6)            141.9299         estimate D2E/DX2                !
 ! D23   D(7,2,4,5)             79.5903         estimate D2E/DX2                !
 ! D24   D(7,2,4,6)           -100.5724         estimate D2E/DX2                !
 ! D25   D(1,2,7,8)             73.3497         estimate D2E/DX2                !
 ! D26   D(1,2,7,9)           -104.9958         estimate D2E/DX2                !
 ! D27   D(3,2,7,8)            -50.6355         estimate D2E/DX2                !
 ! D28   D(3,2,7,9)            131.0191         estimate D2E/DX2                !
 ! D29   D(4,2,7,8)           -168.5888         estimate D2E/DX2                !
 ! D30   D(4,2,7,9)             13.0657         estimate D2E/DX2                !
 ! D31   D(2,4,5,27)           129.9582         estimate D2E/DX2                !
 ! D32   D(6,4,5,27)           -49.8657         estimate D2E/DX2                !
 ! D33   D(2,4,6,30)          -150.093          estimate D2E/DX2                !
 ! D34   D(5,4,6,30)            29.7294         estimate D2E/DX2                !
 ! D35   D(4,5,27,16)          -39.6844         estimate D2E/DX2                !
 ! D36   D(4,6,30,18)           73.8879         estimate D2E/DX2                !
 ! D37   D(25,16,17,18)        -60.5585         estimate D2E/DX2                !
 ! D38   D(25,16,17,19)         62.366          estimate D2E/DX2                !
 ! D39   D(25,16,17,22)        177.126          estimate D2E/DX2                !
 ! D40   D(26,16,17,18)        179.2008         estimate D2E/DX2                !
 ! D41   D(26,16,17,19)        -57.8747         estimate D2E/DX2                !
 ! D42   D(26,16,17,22)         56.8853         estimate D2E/DX2                !
 ! D43   D(27,16,17,18)         59.0053         estimate D2E/DX2                !
 ! D44   D(27,16,17,19)       -178.0702         estimate D2E/DX2                !
 ! D45   D(27,16,17,22)        -63.3102         estimate D2E/DX2                !
 ! D46   D(17,16,27,5)          53.6454         estimate D2E/DX2                !
 ! D47   D(25,16,27,5)         174.0783         estimate D2E/DX2                !
 ! D48   D(26,16,27,5)         -67.6869         estimate D2E/DX2                !
 ! D49   D(16,17,18,28)        178.655          estimate D2E/DX2                !
 ! D50   D(16,17,18,29)         58.8741         estimate D2E/DX2                !
 ! D51   D(16,17,18,30)        -61.3926         estimate D2E/DX2                !
 ! D52   D(19,17,18,28)         57.5621         estimate D2E/DX2                !
 ! D53   D(19,17,18,29)        -62.2188         estimate D2E/DX2                !
 ! D54   D(19,17,18,30)        177.5145         estimate D2E/DX2                !
 ! D55   D(22,17,18,28)        -57.2385         estimate D2E/DX2                !
 ! D56   D(22,17,18,29)       -177.0193         estimate D2E/DX2                !
 ! D57   D(22,17,18,30)         62.714          estimate D2E/DX2                !
 ! D58   D(16,17,19,20)         73.0317         estimate D2E/DX2                !
 ! D59   D(16,17,19,21)       -104.4612         estimate D2E/DX2                !
 ! D60   D(18,17,19,20)       -161.3057         estimate D2E/DX2                !
 ! D61   D(18,17,19,21)         21.2014         estimate D2E/DX2                !
 ! D62   D(22,17,19,20)        -45.261          estimate D2E/DX2                !
 ! D63   D(22,17,19,21)        137.2461         estimate D2E/DX2                !
 ! D64   D(16,17,22,23)         13.1675         estimate D2E/DX2                !
 ! D65   D(16,17,22,24)       -168.7836         estimate D2E/DX2                !
 ! D66   D(18,17,22,23)       -113.2785         estimate D2E/DX2                !
 ! D67   D(18,17,22,24)         64.7703         estimate D2E/DX2                !
 ! D68   D(19,17,22,23)        128.7917         estimate D2E/DX2                !
 ! D69   D(19,17,22,24)        -53.1595         estimate D2E/DX2                !
 ! D70   D(17,18,30,6)         -34.2478         estimate D2E/DX2                !
 ! D71   D(28,18,30,6)          86.5887         estimate D2E/DX2                !
 ! D72   D(29,18,30,6)        -154.9595         estimate D2E/DX2                !
 --------------------------------------------------------------------------------
 Number of steps in this run=    164 maximum allowed number of steps=    180.
 GradGradGradGradGradGradGradGradGradGradGradGradGradGradGradGradGradGrad

                    Distance matrix (angstroms):
                    1          2          3          4          5
     1  C    0.000000
     2  C    1.517246   0.000000
     3  C    2.544797   1.515982   0.000000
     4  N    2.482546   1.503685   2.468990   0.000000
     5  O    3.572575   2.311884   2.705645   1.202721   0.000000
     6  O    2.642890   2.323795   3.492840   1.203192   2.136206
     7  N    2.443247   1.516475   2.469008   2.410240   2.963060
     8  O    2.930500   2.309979   2.774229   3.511643   4.003786
     9  O    3.217488   2.321470   3.426239   2.514629   2.925733
    10  H    1.087191   2.142506   2.774863   2.771842   3.803996
    11  H    1.088403   2.161504   3.484125   2.691511   3.878059
    12  H    1.087214   2.140463   2.802664   3.420066   4.415363
    13  H    2.755774   2.140317   1.086736   2.778486   3.030254
    14  H    2.825197   2.138593   1.087027   3.406251   3.712441
    15  H    3.479402   2.154635   1.088211   2.644932   2.383638
    16  C    5.543902   4.890374   4.887375   3.746384   3.314164
    17  C    5.221476   4.982724   5.243821   3.897497   3.924820
    18  C    5.412328   5.276588   5.917151   4.017389   4.188729
    19  N    6.463850   6.346942   6.447963   5.371003   5.368738
    20  O    6.628366   6.541298   6.396006   5.779000   5.768771
    21  O    7.378212   7.287809   7.514844   6.194511   6.177556
    22  N    4.078354   4.126993   4.365117   3.420052   3.798682
    23  O    3.328086   3.168999   3.193963   2.699864   3.058674
    24  O    4.342386   4.774389   5.130418   4.241834   4.824563
    25  H    6.532868   5.819944   5.851921   4.567438   4.000375
    26  H    5.749016   5.077484   4.752013   4.181474   3.710086
    27  H    4.938820   4.090193   4.179169   2.861903   2.273316
    28  H    5.569396   5.721897   6.451433   4.613951   5.001593
    29  H    6.406489   6.140834   6.745305   4.779129   4.748181
    30  H    4.750967   4.535146   5.360304   3.202323   3.453544
                    6          7          8          9         10
     6  O    0.000000
     7  N    3.159817   0.000000
     8  O    4.282665   1.198643   0.000000
     9  O    3.056721   1.201873   2.148740   0.000000
    10  H    2.783890   3.398755   3.903183   4.146141   0.000000
    11  H    2.437210   2.699437   3.325845   3.119435   1.766765
    12  H    3.703570   2.656016   2.670539   3.621172   1.769140
    13  H    3.619247   3.415318   3.774944   4.316992   2.540981
    14  H    4.373656   2.655297   2.462508   3.785877   3.173166
    15  H    3.815770   2.753570   3.120032   3.483032   3.747184
    16  C    3.787215   6.058747   7.044924   6.120093   5.084851
    17  C    3.526453   6.264224   7.268039   6.354667   4.596718
    18  C    3.270146   6.357827   7.462889   6.207752   4.949020
    19  N    5.000206   7.697941   8.649397   7.852084   5.692157
    20  O    5.580082   7.975875   8.815954   8.293308   5.760294
    21  O    5.682223   8.569550   9.581026   8.600930   6.644905
    22  N    3.097759   5.551141   6.430061   5.874616   3.286872
    23  O    2.783050   4.645488   5.441404   5.120540   2.613458
    24  O    3.708355   6.188759   7.008964   6.546115   3.422010
    25  H    4.546072   6.876569   7.902967   6.801885   6.120325
    26  H    4.428535   6.324775   7.189072   6.559594   5.208308
    27  H    3.075416   5.124335   6.140006   5.117043   4.673118
    28  H    3.704470   6.833110   7.899225   6.728905   5.016525
    29  H    4.093946   7.129021   8.269409   6.860171   5.997016
    30  H    2.360202   5.467789   6.610403   5.213671   4.481075
                   11         12         13         14         15
    11  H    0.000000
    12  H    1.773899   0.000000
    13  H    3.747530   3.108303   0.000000
    14  H    3.815107   2.647592   1.774973   0.000000
    15  H    4.298524   3.806128   1.767722   1.772070   0.000000
    16  C    5.851636   6.505430   4.389613   5.946946   4.714712
    17  C    5.380078   6.221977   4.647524   6.259633   5.373011
    18  C    5.264321   6.480854   5.522876   6.934860   6.073828
    19  N    6.663409   7.403474   5.696864   7.412662   6.593079
    20  O    6.992610   7.462789   5.509588   7.278805   6.573326
    21  O    7.447793   8.357686   6.820748   8.503935   7.630904
    22  N    4.357454   5.000158   3.653796   5.271148   4.764702
    23  O    3.849787   4.185379   2.455895   4.102881   3.613876
    24  O    4.497827   5.187936   4.389761   5.916804   5.695942
    25  H    6.763593   7.517770   5.419026   6.920356   5.566239
    26  H    6.234186   6.608074   4.108010   5.745585   4.554506
    27  H    5.232883   5.900264   3.893040   5.262152   3.914258
    28  H    5.319107   6.602365   6.003099   7.403429   6.760141
    29  H    6.234615   7.484657   6.386752   7.795584   6.770724
    30  H    4.507724   5.837465   5.148969   6.367135   5.507096
                   16         17         18         19         20
    16  C    0.000000
    17  C    1.516832   0.000000
    18  C    2.556016   1.515974   0.000000
    19  N    2.439510   1.517664   2.490983   0.000000
    20  O    2.914605   2.304674   3.561550   1.203144   0.000000
    21  O    3.213068   2.327161   2.662350   1.197329   2.149516
    22  N    2.488313   1.503258   2.436515   2.406670   2.645713
    23  O    2.648955   2.325823   3.289382   3.369437   3.396758
    24  O    3.577104   2.301148   2.851594   2.715367   2.893442
    25  H    1.087417   2.144480   2.813625   2.682932   3.310709
    26  H    1.088905   2.153626   3.487368   2.655264   2.654226
    27  H    1.088014   2.157643   2.817637   3.405809   3.891320
    28  H    3.485763   2.150486   1.088623   2.714915   3.738531
    29  H    2.802687   2.145040   1.086609   2.746782   3.922410
    30  H    2.824136   2.147628   1.088123   3.437897   4.401407
                   21         22         23         24         25
    21  O    0.000000
    22  N    3.407346   0.000000
    23  O    4.451295   1.205125   0.000000
    24  O    3.533546   1.200547   2.141778   0.000000
    25  H    3.095690   3.428517   3.725191   4.409309   0.000000
    26  H    3.609172   2.715107   2.651151   3.792082   1.772295
    27  H    4.157026   2.771021   2.578929   3.932456   1.763421
    28  H    2.723298   2.649776   3.682567   2.573211   3.791753
    29  H    2.523306   3.391153   4.212942   3.834159   2.623049
    30  H    3.735219   2.691970   3.224000   3.225155   3.193756
                   26         27         28         29         30
    26  H    0.000000
    27  H    1.766576   0.000000
    28  H    4.292292   3.811532   0.000000
    29  H    3.794952   3.154666   1.767420   0.000000
    30  H    3.804069   2.650398   1.769528   1.772452   0.000000
 Framework group  C1[X(C6H12N4O8)]
 Deg. of freedom    84
                         Standard orientation:                         
 ---------------------------------------------------------------------
 Center     Atomic      Atomic             Coordinates (Angstroms)
 Number     Number       Type             X           Y           Z
 ---------------------------------------------------------------------
      1          6           0        2.357247    1.345481   -1.133372
      2          6           0        2.494486    0.417045    0.058771
      3          6           0        2.412089    1.117669    1.400614
      4          7           0        1.466381   -0.678403   -0.004973
      5          8           0        1.275772   -1.305468    1.003489
      6          8           0        0.899608   -0.857558   -1.051081
      7          7           0        3.841223   -0.270257   -0.057892
      8          8           0        4.801095    0.406025    0.183009
      9          8           0        3.835000   -1.419452   -0.409760
     10          1           0        1.411725    1.878732   -1.073233
     11          1           0        2.382506    0.787862   -2.067741
     12          1           0        3.170000    2.067557   -1.124898
     13          1           0        1.485799    1.682966    1.459112
     14          1           0        3.256668    1.793674    1.507064
     15          1           0        2.431236    0.393149    2.212345
     16          6           0       -2.000972   -0.982553    1.380793
     17          6           0       -2.420821   -0.399722    0.044824
     18          6           0       -2.331027   -1.358835   -1.125737
     19          7           0       -3.843009    0.104467    0.207551
     20          8           0       -3.960786    1.110270    0.857202
     21          8           0       -4.720969   -0.551646   -0.274425
     22          7           0       -1.598284    0.811585   -0.295695
     23          8           0       -0.603104    1.018435    0.351728
     24          8           0       -1.982429    1.469686   -1.223406
     25          1           0       -2.640620   -1.825417    1.631606
     26          1           0       -2.080072   -0.230823    2.164604
     27          1           0       -0.971969   -1.333903    1.342343
     28          1           0       -2.670894   -0.872010   -2.038202
     29          1           0       -2.956622   -2.227881   -0.941049
     30          1           0       -1.301434   -1.682488   -1.264293
 ---------------------------------------------------------------------
 Rotational constants (GHZ):           1.1091763           0.2064972           0.1998093
   276 basis functions,   498 primitive gaussians,   294 cartesian basis functions
    70 alpha electrons       70 beta electrons
       nuclear repulsion energy      1530.2145694672 Hartrees.
 NAtoms=   30 NActive=   30 NUniq=   30 SFac= 1.00D+00 NAtFMM=   60 NAOKFM=F Big=F
 Nuclear repulsion after empirical dispersion term =     1530.1919738470 Hartrees.
   1 Symmetry operations used in ECPInt.
 ECPInt:  NShTT=    8778 NPrTT=   35250 LenC2=    8047 LenP2D=   22398.
 LDataN:  DoStor=T MaxTD1= 4 Len=   56
 ExpMin= 1.22D-01 ExpMax= 2.27D+03 ExpMxC= 3.41D+02 IAcc=3 IRadAn=         5 AccDes= 0.00D+00
 Harris functional with IExCor= 4639 and IRadAn=       5 diagonalized for initial guess.
 HarFok:  IExCor= 4639 AccDes= 0.00D+00 IRadAn=         5 IDoV= 1 UseB2=F ITyADJ=14
 ICtDFT=  3500011 ScaDFX=  1.000000  1.000000  1.000000  1.000000
 FoFCou: FMM=F IPFlag=           0 FMFlag=      100000 FMFlg1=           0
         NFxFlg=           0 DoJE=T BraDBF=F KetDBF=T FulRan=T
         wScrn=  0.000000 ICntrl=       500 IOpCl=  0 I1Cent=   200000004 NGrid=           0
         NMat0=    1 NMatS0=      1 NMatT0=    0 NMatD0=    1 NMtDS0=    0 NMtDT0=    0
 Petite list used in FoFCou.
     Accept linear search using points  2 and  3.
     Accept linear search using points  1 and  2.
     Accept linear search using points  2 and  3.
     Accept linear search using points  1 and  2.
     Accept linear search using points  1 and  2.
     Minimum is close to point  2 DX= -4.50D-04 DF= -1.00D-11 DXR=  4.50D-04 DFR=  2.04D-07 which will be used.
 SCF Done:  E(RwB97XD) =  -1055.13830847     a.u. after    9 cycles
            Convg  =    0.1311D-09                    50 Fock formations.
              S**2 =  0.0000                  -V/T =  2.0067

 **********************************************************************

            Population analysis using the SCF Density.

 **********************************************************************

 Orbital symmetries:
       Occupied  (A) (A) (A) (A) (A) (A) (A) (A) (A) (A) (A) (A)
                 (A) (A) (A) (A) (A) (A) (A) (A) (A) (A) (A) (A)
                 (A) (A) (A) (A) (A) (A) (A) (A) (A) (A) (A) (A)
                 (A) (A) (A) (A) (A) (A) (A) (A) (A) (A) (A) (A)
                 (A) (A) (A) (A) (A) (A) (A) (A) (A) (A) (A) (A)
                 (A) (A) (A) (A) (A) (A) (A) (A) (A) (A)
       Virtual   (A) (A) (A) (A) (A) (A) (A) (A) (A) (A) (A) (A)
                 (A) (A) (A) (A) (A) (A) (A) (A) (A) (A) (A) (A)
                 (A) (A) (A) (A) (A) (A) (A) (A) (A) (A) (A) (A)
                 (A) (A) (A) (A) (A) (A) (A) (A) (A) (A) (A) (A)
                 (A) (A) (A) (A) (A) (A) (A) (A) (A) (A) (A) (A)
                 (A) (A) (A) (A) (A) (A) (A) (A) (A) (A) (A) (A)
                 (A) (A) (A) (A) (A) (A) (A) (A) (A) (A) (A) (A)
                 (A) (A) (A) (A) (A) (A) (A) (A) (A) (A) (A) (A)
                 (A) (A) (A) (A) (A) (A) (A) (A) (A) (A) (A) (A)
                 (A) (A) (A) (A) (A) (A) (A) (A) (A) (A) (A) (A)
                 (A) (A) (A) (A) (A) (A) (A) (A) (A) (A) (A) (A)
                 (A) (A) (A) (A) (A) (A) (A) (A) (A) (A) (A) (A)
                 (A) (A) (A) (A) (A) (A) (A) (A) (A) (A) (A) (A)
                 (A) (A) (A) (A) (A) (A) (A) (A) (A) (A) (A) (A)
                 (A) (A) (A) (A) (A) (A) (A) (A) (A) (A) (A) (A)
                 (A) (A) (A) (A) (A) (A) (A) (A) (A) (A) (A) (A)
                 (A) (A) (A) (A) (A) (A) (A) (A) (A) (A) (A) (A)
                 (A) (A)
 The electronic state is 1-A.
 Alpha  occ. eigenvalues --  -19.32733 -19.32533 -19.32490 -19.32454 -19.32057
 Alpha  occ. eigenvalues --  -19.31991 -19.31800 -19.31397 -14.71820 -14.71710
 Alpha  occ. eigenvalues --  -14.71459 -14.70947 -10.43512 -10.43327 -10.32524
 Alpha  occ. eigenvalues --  -10.32312 -10.32258 -10.31986  -1.38654  -1.38440
 Alpha  occ. eigenvalues --   -1.37063  -1.36763  -1.20254  -1.20042  -1.19903
 Alpha  occ. eigenvalues --   -1.19528  -1.01042  -1.00736  -0.83863  -0.83731
 Alpha  occ. eigenvalues --   -0.83557  -0.82967  -0.82435  -0.81763  -0.70451
 Alpha  occ. eigenvalues --   -0.69288  -0.69023  -0.68513  -0.67385  -0.67344
 Alpha  occ. eigenvalues --   -0.66025  -0.65361  -0.64074  -0.63939  -0.63021
 Alpha  occ. eigenvalues --   -0.62727  -0.60486  -0.60358  -0.54714  -0.54424
 Alpha  occ. eigenvalues --   -0.53438  -0.52992  -0.52819  -0.52526  -0.51734
 Alpha  occ. eigenvalues --   -0.51646  -0.48465  -0.48303  -0.44242  -0.43774
 Alpha  occ. eigenvalues --   -0.43481  -0.43163  -0.42505  -0.42271  -0.42013
 Alpha  occ. eigenvalues --   -0.41613  -0.41483  -0.41362  -0.40942  -0.40827
 Alpha virt. eigenvalues --   -0.03300  -0.02146  -0.01400  -0.01217   0.13440
 Alpha virt. eigenvalues --    0.14194   0.14684   0.16306   0.17013   0.17595
 Alpha virt. eigenvalues --    0.17760   0.19233   0.21470   0.21810   0.21981
 Alpha virt. eigenvalues --    0.22919   0.23034   0.23528   0.23900   0.24585
 Alpha virt. eigenvalues --    0.25236   0.26187   0.26929   0.28357   0.34317
 Alpha virt. eigenvalues --    0.35285   0.35681   0.37734   0.42473   0.44349
 Alpha virt. eigenvalues --    0.44938   0.46328   0.46880   0.48259   0.49959
 Alpha virt. eigenvalues --    0.51108   0.52863   0.53657   0.55174   0.55358
 Alpha virt. eigenvalues --    0.56310   0.56731   0.57719   0.58465   0.60626
 Alpha virt. eigenvalues --    0.62259   0.66823   0.68747   0.69606   0.70307
 Alpha virt. eigenvalues --    0.70579   0.71240   0.71513   0.72278   0.73343
 Alpha virt. eigenvalues --    0.74638   0.75337   0.75595   0.76084   0.76719
 Alpha virt. eigenvalues --    0.77709   0.78362   0.78896   0.79491   0.80071
 Alpha virt. eigenvalues --    0.81738   0.82095   0.82601   0.86757   0.88293
 Alpha virt. eigenvalues --    0.90395   0.90852   0.91625   0.93063   0.95880
 Alpha virt. eigenvalues --    0.97319   0.97386   0.97500   0.98119   0.98430
 Alpha virt. eigenvalues --    0.98854   0.99813   1.02309   1.03707   1.05272
 Alpha virt. eigenvalues --    1.06883   1.08488   1.09227   1.10586   1.10737
 Alpha virt. eigenvalues --    1.12388   1.13189   1.13911   1.14968   1.16283
 Alpha virt. eigenvalues --    1.17481   1.19431   1.20882   1.22250   1.23309
 Alpha virt. eigenvalues --    1.24243   1.26910   1.27066   1.29709   1.30840
 Alpha virt. eigenvalues --    1.34533   1.36302   1.41725   1.42883   1.45150
 Alpha virt. eigenvalues --    1.45999   1.48848   1.52330   1.53685   1.56411
 Alpha virt. eigenvalues --    1.58444   1.61451   1.66867   1.72247   1.75654
 Alpha virt. eigenvalues --    1.79534   1.80572   1.81685   1.82838   1.83200
 Alpha virt. eigenvalues --    1.84714   1.85110   1.87010   1.88517   1.90896
 Alpha virt. eigenvalues --    1.91778   1.92783   2.05690   2.06107   2.09757
 Alpha virt. eigenvalues --    2.10246   2.10995   2.11881   2.15658   2.17303
 Alpha virt. eigenvalues --    2.17795   2.20720   2.21411   2.21822   2.24613
 Alpha virt. eigenvalues --    2.25684   2.33557   2.34375   2.37787   2.38895
 Alpha virt. eigenvalues --    2.41142   2.43931   2.46267   2.47017   2.47579
 Alpha virt. eigenvalues --    2.49267   2.50700   2.51920   2.54720   2.57613
 Alpha virt. eigenvalues --    2.61932   2.63013   2.64674   2.65449   2.67081
 Alpha virt. eigenvalues --    2.67189   2.67699   2.68905   2.69085   2.69534
 Alpha virt. eigenvalues --    2.70830   2.71732   2.72099   2.74051   2.75003
 Alpha virt. eigenvalues --    2.75167   2.76123   2.77259   2.82850   2.84232
 Alpha virt. eigenvalues --    2.88506   2.89756   3.10780   3.12099   3.14860
 Alpha virt. eigenvalues --    3.15406   3.21858   3.22851   3.25918   3.29977
 Alpha virt. eigenvalues --    3.37227   3.38113   3.39234   3.39488   3.48055
 Alpha virt. eigenvalues --    3.48677   3.51668   3.53606   3.79471   3.80511
 Alpha virt. eigenvalues --    3.81234   3.82588   3.86072   3.86485   3.88131
 Alpha virt. eigenvalues --    3.89216
          Condensed to atoms (all electrons):
 Mulliken charges:
               1
     1  C   -0.223003
     2  C   -0.097063
     3  C   -0.256601
     4  N    0.265400
     5  O   -0.214468
     6  O   -0.224999
     7  N    0.250464
     8  O   -0.220854
     9  O   -0.222770
    10  H    0.161241
    11  H    0.156395
    12  H    0.155161
    13  H    0.170372
    14  H    0.162449
    15  H    0.160712
    16  C   -0.236675
    17  C   -0.117000
    18  C   -0.240028
    19  N    0.247416
    20  O   -0.227336
    21  O   -0.211789
    22  N    0.262943
    23  O   -0.248860
    24  O   -0.207884
    25  H    0.147437
    26  H    0.151830
    27  H    0.174868
    28  H    0.155265
    29  H    0.155796
    30  H    0.171580
 Sum of Mulliken charges =   0.00000
 Mulliken charges with hydrogens summed into heavy atoms:
               1
     1  C    0.249794
     2  C   -0.097063
     3  C    0.236932
     4  N    0.265400
     5  O   -0.214468
     6  O   -0.224999
     7  N    0.250464
     8  O   -0.220854
     9  O   -0.222770
    16  C    0.237460
    17  C   -0.117000
    18  C    0.242613
    19  N    0.247416
    20  O   -0.227336
    21  O   -0.211789
    22  N    0.262943
    23  O   -0.248860
    24  O   -0.207884
 Electronic spatial extent (au):  <R**2>=           5322.9615
 Charge=              0.0000 electrons
 Dipole moment (field-independent basis, Debye):
    X=              0.7555    Y=              0.1479    Z=              0.7035  Tot=              1.0429
   1 Symmetry operations used in ECPInt.
 ECPInt:  NShTT=    8778 NPrTT=   35250 LenC2=    8047 LenP2D=   22398.
 LDataN:  DoStor=T MaxTD1= 5 Len=  102
 Calling FoFJK, ICntrl=      2127 FMM=F ISym2X=0 I1Cent= 0 IOpClX= 0 NMat=1 NMatS=1 NMatT=0.

 GradGradGradGradGradGradGradGradGradGradGradGradGradGradGradGradGradGrad
 FormGI is forming the generalized inverse of G from B-inverse, IUseBI=4.
 Internal  Forces:  Max     0.013373388 RMS     0.003956817
 Step number   1 out of a maximum of  164
 All quantities printed in internal units (Hartrees-Bohrs-Radians)
 Mixed Optimization -- RFO/linear search
 Second derivative matrix not updated -- first step.
 ITU=  0
     Eigenvalues ---    0.00230   0.00230   0.00235   0.00241   0.00320
     Eigenvalues ---    0.00326   0.00332   0.00356   0.00450   0.00538
     Eigenvalues ---    0.00555   0.00900   0.01519   0.02113   0.02594
     Eigenvalues ---    0.03070   0.03907   0.04475   0.04599   0.04822
     Eigenvalues ---    0.05076   0.05586   0.05625   0.05730   0.05812
     Eigenvalues ---    0.05900   0.05910   0.05930   0.06920   0.06931
     Eigenvalues ---    0.07049   0.08691   0.11100   0.11228   0.12776
     Eigenvalues ---    0.14193   0.15325   0.15521   0.15666   0.15934
     Eigenvalues ---    0.16000   0.16000   0.16000   0.16000   0.16000
     Eigenvalues ---    0.16000   0.18123   0.22065   0.24066   0.25000
     Eigenvalues ---    0.25000   0.25000   0.25000   0.25000   0.25000
     Eigenvalues ---    0.25000   0.30045   0.30361   0.30593   0.30633
     Eigenvalues ---    0.30709   0.30757   0.31994   0.32038   0.32825
     Eigenvalues ---    0.34939   0.34972   0.34998   0.35020   0.35035
     Eigenvalues ---    0.35113   0.35137   0.35139   0.35159   0.35193
     Eigenvalues ---    0.35207   0.99696   1.01593   1.02290   1.03259
     Eigenvalues ---    1.03887   1.04549   1.05508   1.06177
 Linear search not attempted -- first point.
 Iteration  1 RMS(Cart)=  0.09793697 RMS(Int)=  0.00432006
 Iteration  2 RMS(Cart)=  0.00545547 RMS(Int)=  0.00046361
 Iteration  3 RMS(Cart)=  0.00002524 RMS(Int)=  0.00046321
 Iteration  4 RMS(Cart)=  0.00000001 RMS(Int)=  0.00046321
 Variable       Old X    -DE/DX   Delta X   Delta X   Delta X     New X
                                 (Linear)    (Quad)   (Total)
    R1        2.86718   0.00131   0.00000   0.00413   0.00413   2.87131
    R2        2.05449   0.00934   0.00000   0.02588   0.02588   2.08037
    R3        2.05678   0.00749   0.00000   0.02083   0.02083   2.07761
    R4        2.05454   0.00923   0.00000   0.02557   0.02557   2.08011
    R5        2.86479   0.00170   0.00000   0.00535   0.00535   2.87015
    R6        2.84155   0.01337   0.00000   0.04057   0.04057   2.88213
    R7        2.86572   0.00938   0.00000   0.02961   0.02961   2.89534
    R8        2.05363   0.00905   0.00000   0.02503   0.02503   2.07867
    R9        2.05418   0.00836   0.00000   0.02313   0.02313   2.07731
   R10        2.05642   0.00765   0.00000   0.02125   0.02125   2.07767
   R11        2.27281   0.00757   0.00000   0.00737   0.00729   2.28011
   R12        2.27370   0.00698   0.00000   0.00662   0.00653   2.28024
   R13        4.29595   0.00290   0.00000   0.07542   0.07539   4.37134
   R14        4.46014   0.00041   0.00000   0.00926   0.00925   4.46939
   R15        2.26511   0.01030   0.00000   0.00967   0.00967   2.27478
   R16        2.27121   0.00850   0.00000   0.00810   0.00810   2.27931
   R17        2.86640   0.00067   0.00000   0.00181   0.00189   2.86828
   R18        2.05492   0.00992   0.00000   0.02750   0.02750   2.08242
   R19        2.05773   0.00783   0.00000   0.02182   0.02182   2.07955
   R20        2.05605   0.01122   0.00000   0.03075   0.03072   2.08677
   R21        2.86477   0.00188   0.00000   0.00674   0.00683   2.87161
   R22        2.86797   0.00737   0.00000   0.02335   0.02335   2.89132
   R23        2.84075   0.01145   0.00000   0.03470   0.03470   2.87545
   R24        2.05720   0.00802   0.00000   0.02231   0.02231   2.07951
   R25        2.05339   0.00845   0.00000   0.02335   0.02335   2.07675
   R26        2.05625   0.01010   0.00000   0.02847   0.02850   2.08475
   R27        2.27361   0.00849   0.00000   0.00814   0.00814   2.28176
   R28        2.26262   0.01052   0.00000   0.00982   0.00982   2.27244
   R29        2.27736   0.00700   0.00000   0.00678   0.00678   2.28414
   R30        2.26870   0.00676   0.00000   0.00641   0.00641   2.27512
    A1        1.91276  -0.00145   0.00000  -0.00849  -0.00853   1.90423
    A2        1.93791  -0.00007   0.00000   0.00014   0.00013   1.93805
    A3        1.90993  -0.00246   0.00000  -0.01505  -0.01510   1.89482
    A4        1.89543   0.00094   0.00000   0.00665   0.00665   1.90208
    A5        1.90070   0.00178   0.00000   0.00942   0.00933   1.91004
    A6        1.90668   0.00133   0.00000   0.00778   0.00776   1.91445
    A7        1.99079  -0.00217   0.00000  -0.00899  -0.00903   1.98175
    A8        1.92905   0.00066   0.00000   0.00142   0.00145   1.93050
    A9        1.87258   0.00138   0.00000   0.00941   0.00941   1.88198
   A10        1.91458   0.00133   0.00000   0.00678   0.00682   1.92139
   A11        1.90268   0.00122   0.00000   0.01031   0.01034   1.91302
   A12        1.84809  -0.00245   0.00000  -0.01968  -0.01968   1.82841
   A13        1.91174  -0.00097   0.00000  -0.00622  -0.00626   1.90548
   A14        1.90907  -0.00205   0.00000  -0.01354  -0.01358   1.89549
   A15        1.93007   0.00014   0.00000   0.00276   0.00277   1.93284
   A16        1.91080   0.00095   0.00000   0.00172   0.00162   1.91242
   A17        1.89777   0.00084   0.00000   0.00782   0.00783   1.90560
   A18        1.90427   0.00113   0.00000   0.00764   0.00765   1.91192
   A19        2.04052   0.00198   0.00000   0.00562   0.00558   2.04610
   A20        2.05715  -0.00043   0.00000  -0.00363  -0.00367   2.05348
   A21        2.18551  -0.00155   0.00000  -0.00203  -0.00205   2.18346
   A22        1.86315   0.00040   0.00000   0.00824   0.00826   1.87141
   A23        2.17715  -0.00274   0.00000  -0.00831  -0.00823   2.16892
   A24        2.02639  -0.00118   0.00000  -0.00546  -0.00709   2.01930
   A25        2.03900   0.00481   0.00000   0.01759   0.01596   2.05496
   A26        2.21738  -0.00366   0.00000  -0.01502  -0.01666   2.20072
   A27        1.91576  -0.00253   0.00000  -0.02767  -0.02787   1.88789
   A28        1.92689  -0.00017   0.00000   0.00521   0.00507   1.93196
   A29        1.93343   0.00034   0.00000   0.00338   0.00362   1.93705
   A30        1.90323   0.00077   0.00000   0.00374   0.00373   1.90696
   A31        1.89038   0.00030   0.00000  -0.00118  -0.00136   1.88902
   A32        1.89344   0.00135   0.00000   0.01695   0.01669   1.91012
   A33        2.00489  -0.00396   0.00000  -0.01101  -0.01122   1.99367
   A34        1.86774   0.00246   0.00000   0.00737   0.00732   1.87506
   A35        1.93657   0.00155   0.00000   0.01297   0.01283   1.94940
   A36        1.92674   0.00158   0.00000   0.00525   0.00547   1.93221
   A37        1.87809   0.00368   0.00000   0.03075   0.03072   1.90881
   A38        1.84351  -0.00555   0.00000  -0.04947  -0.04934   1.79417
   A39        1.92387  -0.00025   0.00000   0.00207   0.00172   1.92559
   A40        1.91841  -0.00190   0.00000  -0.02313  -0.02323   1.89518
   A41        1.92043   0.00151   0.00000   0.02191   0.02220   1.94263
   A42        1.89692   0.00058   0.00000  -0.00039  -0.00038   1.89654
   A43        1.89831   0.00062   0.00000   0.01288   0.01244   1.91075
   A44        1.90553  -0.00055   0.00000  -0.01340  -0.01331   1.89222
   A45        2.01236   0.00270   0.00000   0.00871   0.00641   2.01876
   A46        2.05096   0.00088   0.00000   0.00172  -0.00058   2.05038
   A47        2.21890  -0.00364   0.00000  -0.01567  -0.01802   2.20089
   A48        2.05835   0.00053   0.00000   0.00308   0.00156   2.05990
   A49        2.02825   0.00138   0.00000   0.00634   0.00482   2.03307
   A50        2.19602  -0.00187   0.00000  -0.00619  -0.00772   2.18830
   A51        2.78289   0.00665   0.00000   0.02187   0.02197   2.80485
   A52        2.44485   0.00652   0.00000   0.03223   0.03241   2.47726
    D1       -1.00707  -0.00014   0.00000  -0.02350  -0.02354  -1.03061
    D2        1.15974   0.00051   0.00000  -0.02014  -0.02016   1.13958
    D3       -3.11623  -0.00129   0.00000  -0.03751  -0.03753   3.12942
    D4       -3.10102  -0.00033   0.00000  -0.02635  -0.02636  -3.12738
    D5       -0.93422   0.00032   0.00000  -0.02299  -0.02298  -0.95719
    D6        1.07300  -0.00149   0.00000  -0.04036  -0.04035   1.03265
    D7        1.07604  -0.00033   0.00000  -0.02626  -0.02625   1.04979
    D8       -3.04033   0.00032   0.00000  -0.02290  -0.02287  -3.06320
    D9       -1.03312  -0.00148   0.00000  -0.04027  -0.04024  -1.07336
   D10        0.96577  -0.00026   0.00000   0.01876   0.01880   0.98457
   D11       -1.12854   0.00043   0.00000   0.02875   0.02873  -1.09982
   D12        3.05704   0.00025   0.00000   0.02621   0.02622   3.08325
   D13       -1.20878  -0.00057   0.00000   0.01820   0.01825  -1.19054
   D14        2.98009   0.00012   0.00000   0.02819   0.02818   3.00826
   D15        0.88248  -0.00006   0.00000   0.02565   0.02567   0.90815
   D16        3.05809   0.00095   0.00000   0.03223   0.03224   3.09032
   D17        0.96377   0.00164   0.00000   0.04222   0.04216   1.00593
   D18       -1.13384   0.00146   0.00000   0.03968   0.03966  -1.09418
   D19       -2.87153   0.00105   0.00000   0.02269   0.02272  -2.84880
   D20        0.26723   0.00059   0.00000   0.00871   0.00872   0.27594
   D21       -0.66161  -0.00030   0.00000   0.01710   0.01711  -0.64450
   D22        2.47714  -0.00076   0.00000   0.00311   0.00310   2.48025
   D23        1.38911   0.00046   0.00000   0.02182   0.02180   1.41092
   D24       -1.75532   0.00000   0.00000   0.00783   0.00779  -1.74753
   D25        1.28019  -0.00095   0.00000  -0.04279  -0.04266   1.23753
   D26       -1.83252   0.00026   0.00000   0.05736   0.05734  -1.77518
   D27       -0.88376   0.00009   0.00000  -0.04398  -0.04397  -0.92772
   D28        2.28671   0.00130   0.00000   0.05617   0.05604   2.34276
   D29       -2.94243  -0.00075   0.00000  -0.04648  -0.04641  -2.98884
   D30        0.22804   0.00045   0.00000   0.05366   0.05360   0.28164
   D31        2.26820   0.00025   0.00000   0.00126   0.00132   2.26952
   D32       -0.87032   0.00074   0.00000   0.01640   0.01649  -0.85383
   D33       -2.61962   0.00005   0.00000   0.00502   0.00505  -2.61456
   D34        0.51888  -0.00043   0.00000  -0.01023  -0.01016   0.50872
   D35       -0.69262  -0.00190   0.00000  -0.02339  -0.02318  -0.71581
   D36        1.28959  -0.00015   0.00000   0.00759   0.00762   1.29721
   D37       -1.05694  -0.00017   0.00000  -0.02442  -0.02447  -1.08141
   D38        1.08849   0.00108   0.00000  -0.01945  -0.01945   1.06904
   D39        3.09143  -0.00333   0.00000  -0.06740  -0.06742   3.02401
   D40        3.12764   0.00061   0.00000  -0.01464  -0.01459   3.11305
   D41       -1.01010   0.00185   0.00000  -0.00967  -0.00958  -1.01968
   D42        0.99284  -0.00256   0.00000  -0.05762  -0.05755   0.93529
   D43        1.02984  -0.00120   0.00000  -0.04147  -0.04143   0.98840
   D44       -3.10791   0.00005   0.00000  -0.03651  -0.03642   3.13885
   D45       -1.10497  -0.00437   0.00000  -0.08445  -0.08439  -1.18936
   D46        0.93629   0.00048   0.00000   0.01686   0.01707   0.95336
   D47        3.03824  -0.00223   0.00000  -0.01587  -0.01575   3.02249
   D48       -1.18136  -0.00040   0.00000  -0.00266  -0.00265  -1.18401
   D49        3.11812  -0.00058   0.00000   0.00124   0.00111   3.11923
   D50        1.02755   0.00006   0.00000   0.01505   0.01496   1.04250
   D51       -1.07150   0.00099   0.00000   0.03244   0.03241  -1.03910
   D52        1.00465  -0.00219   0.00000  -0.00459  -0.00463   1.00002
   D53       -1.08592  -0.00155   0.00000   0.00922   0.00922  -1.07670
   D54        3.09821  -0.00062   0.00000   0.02661   0.02667   3.12488
   D55       -0.99900   0.00153   0.00000   0.03431   0.03421  -0.96479
   D56       -3.08957   0.00217   0.00000   0.04812   0.04806  -3.04151
   D57        1.09457   0.00311   0.00000   0.06551   0.06550   1.16007
   D58        1.27464   0.00006   0.00000  -0.06353  -0.06333   1.21131
   D59       -1.82319   0.00150   0.00000   0.05578   0.05572  -1.76747
   D60       -2.81532  -0.00220   0.00000  -0.06888  -0.06882  -2.88413
   D61        0.37003  -0.00075   0.00000   0.05043   0.05024   0.42027
   D62       -0.78995  -0.00015   0.00000  -0.05738  -0.05726  -0.84722
   D63        2.39540   0.00129   0.00000   0.06192   0.06179   2.45719
   D64        0.22982  -0.00278   0.00000  -0.15549  -0.15518   0.07463
   D65       -2.94583  -0.00152   0.00000  -0.05860  -0.05835  -3.00418
   D66       -1.97708  -0.00143   0.00000  -0.17218  -0.17259  -2.14968
   D67        1.13046  -0.00017   0.00000  -0.07529  -0.07576   1.05469
   D68        2.24784  -0.00222   0.00000  -0.16805  -0.16786   2.07998
   D69       -0.92781  -0.00096   0.00000  -0.07116  -0.07103  -0.99884
   D70       -0.59774  -0.00086   0.00000  -0.02276  -0.02302  -0.62076
   D71        1.51126   0.00016   0.00000   0.00131   0.00144   1.51270
   D72       -2.70455   0.00090   0.00000   0.00060   0.00043  -2.70412
         Item               Value     Threshold  Converged?
 Maximum Force            0.013373     0.000015     NO 
 RMS     Force            0.003957     0.000010     NO 
 Maximum Displacement     0.567929     0.000060     NO 
 RMS     Displacement     0.098891     0.000040     NO 
 GradGradGradGradGradGradGradGradGradGradGradGradGradGradGradGradGradGrad

                    Distance matrix (angstroms):
                    1          2          3          4          5
     1  C    0.000000
     2  C    1.519432   0.000000
     3  C    2.541516   1.518816   0.000000
     4  N    2.503232   1.525155   2.494814   0.000000
     5  O    3.594232   2.337978   2.737429   1.206580   0.000000
     6  O    2.665453   2.343185   3.518393   1.206649   2.141564
     7  N    2.466123   1.532146   2.493215   2.421628   2.988192
     8  O    2.930771   2.322925   2.816995   3.532803   4.050756
     9  O    3.225861   2.350041   3.477706   2.539891   2.988775
    10  H    1.100884   2.148385   2.777340   2.778223   3.805718
    11  H    1.099426   2.171867   3.493395   2.722386   3.913094
    12  H    1.100745   2.141337   2.777571   3.448064   4.441307
    13  H    2.757575   2.148093   1.099984   2.793819   3.040788
    14  H    2.800300   2.140196   1.099267   3.438492   3.763165
    15  H    3.490445   2.167598   1.099454   2.685452   2.434721
    16  C    5.629802   4.987753   5.000129   3.822455   3.375245
    17  C    5.340092   5.106257   5.374733   4.000091   4.001991
    18  C    5.464358   5.328479   5.977422   4.050076   4.206313
    19  N    6.630059   6.510069   6.630978   5.498880   5.466076
    20  O    6.868920   6.763301   6.635709   5.950112   5.890369
    21  O    7.542481   7.434021   7.679663   6.299759   6.244197
    22  N    4.299629   4.361859   4.572739   3.647597   3.983064
    23  O    3.712416   3.599850   3.517292   3.155146   3.432374
    24  O    4.576848   5.002513   5.345394   4.440770   4.982493
    25  H    6.616756   5.914383   5.971504   4.634509   4.057366
    26  H    5.869247   5.209837   4.903103   4.288052   3.796487
    27  H    4.991857   4.157008   4.260072   2.908554   2.313214
    28  H    5.646094   5.796718   6.534427   4.668823   5.040182
    29  H    6.455720   6.184109   6.801260   4.798358   4.749829
    30  H    4.772781   4.554984   5.386137   3.203696   3.445581
                    6          7          8          9         10
     6  O    0.000000
     7  N    3.165874   0.000000
     8  O    4.287628   1.203762   0.000000
     9  O    3.055624   1.206161   2.148133   0.000000
    10  H    2.790190   3.429434   3.927611   4.159970   0.000000
    11  H    2.471789   2.706708   3.295864   3.100779   1.791097
    12  H    3.739961   2.689752   2.671095   3.643513   1.797244
    13  H    3.636348   3.448225   3.830705   4.367152   2.537419
    14  H    4.397566   2.690827   2.516613   3.844230   3.161503
    15  H    3.859872   2.765252   3.153007   3.543602   3.765305
    16  C    3.853325   6.153397   7.163518   6.229135   5.141046
    17  C    3.625500   6.382939   7.401206   6.472743   4.686914
    18  C    3.304437   6.399548   7.510485   6.244795   4.976369
    19  N    5.118486   7.851120   8.825189   7.992075   5.840644
    20  O    5.743786   8.190193   9.062798   8.488684   5.989843
    21  O    5.786551   8.696312   9.730144   8.707619   6.799297
    22  N    3.327411   5.796288   6.677328   6.122617   3.461801
    23  O    3.230439   5.096538   5.873179   5.600207   2.904864
    24  O    3.903778   6.424692   7.250353   6.764213   3.630511
    25  H    4.599372   6.961373   8.015573   6.897994   6.178838
    26  H    4.522044   6.458805   7.353828   6.707832   5.299361
    27  H    3.110343   5.190720   6.230058   5.206031   4.695057
    28  H    3.759086   6.897608   7.964947   6.777449   5.070879
    29  H    4.115884   7.153507   8.303496   6.878882   6.027558
    30  H    2.365098   5.477638   6.622985   5.222053   4.478325
                   11         12         13         14         15
    11  H    0.000000
    12  H    1.798851   0.000000
    13  H    3.764613   3.094451   0.000000
    14  H    3.798544   2.584792   1.796813   0.000000
    15  H    4.322359   3.790913   1.792630   1.796067   0.000000
    16  C    5.951272   6.594251   4.477750   6.069860   4.856265
    17  C    5.513426   6.345725   4.756392   6.392676   5.527169
    18  C    5.333178   6.544326   5.565883   6.995199   6.159951
    19  N    6.835999   7.579293   5.868787   7.602154   6.793344
    20  O    7.237978   7.715448   5.743347   7.532870   6.813922
    21  O    7.620283   8.535792   6.980382   8.678153   7.805770
    22  N    4.602347   5.212349   3.816049   5.468409   4.990976
    23  O    4.275162   4.523210   2.668268   4.390953   3.945586
    24  O    4.746532   5.425469   4.574904   6.125226   5.923027
    25  H    6.856030   7.607771   5.519281   7.054033   5.715603
    26  H    6.366337   6.728487   4.235719   5.909314   4.730939
    27  H    5.300405   5.957241   3.945259   5.355945   4.027002
    28  H    5.409886   6.693278   6.070900   7.482282   6.867622
    29  H    6.298598   7.545928   6.430463   7.855322   6.849211
    30  H    4.548708   5.872632   5.158188   6.393534   5.558310
                   16         17         18         19         20
    16  C    0.000000
    17  C    1.517830   0.000000
    18  C    2.550694   1.519589   0.000000
    19  N    2.456877   1.530022   2.508855   0.000000
    20  O    2.908837   2.323636   3.592579   1.207454   0.000000
    21  O    3.207586   2.341993   2.695480   1.202524   2.148275
    22  N    2.515251   1.521621   2.481536   2.384900   2.638245
    23  O    2.674259   2.346181   3.404894   3.288463   3.255291
    24  O    3.608784   2.323542   2.873668   2.719331   2.955354
    25  H    1.101967   2.135695   2.797834   2.671779   3.266869
    26  H    1.100450   2.166851   3.497772   2.685217   2.650412
    27  H    1.104272   2.173411   2.801340   3.439298   3.919190
    28  H    3.494408   2.163776   1.100430   2.735864   3.792034
    29  H    2.785885   2.140420   1.098968   2.744381   3.918635
    30  H    2.828082   2.178156   1.103202   3.479198   4.459326
                   21         22         23         24         25
    21  O    0.000000
    22  N    3.414500   0.000000
    23  O    4.412403   1.208713   0.000000
    24  O    3.567015   1.203939   2.143737   0.000000
    25  H    3.041460   3.451179   3.759713   4.427892   0.000000
    26  H    3.616435   2.725325   2.579375   3.831163   1.795929
    27  H    4.162551   2.847095   2.730561   3.993317   1.787519
    28  H    2.775395   2.688703   3.787116   2.586326   3.783909
    29  H    2.520050   3.429201   4.313656   3.853979   2.581361
    30  H    3.780553   2.796339   3.447183   3.296340   3.189586
                   26         27         28         29         30
    26  H    0.000000
    27  H    1.799826   0.000000
    28  H    4.317456   3.813796   0.000000
    29  H    3.792444   3.127340   1.786808   0.000000
    30  H    3.824277   2.628876   1.799335   1.786285   0.000000
 Framework group  C1[X(C6H12N4O8)]
 Deg. of freedom    84
                         Standard orientation:                         
 ---------------------------------------------------------------------
 Center     Atomic      Atomic             Coordinates (Angstroms)
 Number     Number       Type             X           Y           Z
 ---------------------------------------------------------------------
      1          6           0        2.459122    1.299411   -1.185973
      2          6           0        2.587364    0.426860    0.051316
      3          6           0        2.507007    1.204749    1.353328
      4          7           0        1.539579   -0.681318    0.037679
      5          8           0        1.320816   -1.247210    1.080629
      6          8           0        0.982067   -0.912152   -1.007260
      7          7           0        3.930924   -0.305263   -0.028137
      8          8           0        4.908307    0.378428    0.134142
      9          8           0        3.921388   -1.459841   -0.376969
     10          1           0        1.493214    1.826759   -1.156441
     11          1           0        2.508293    0.694293   -2.102571
     12          1           0        3.278186    2.034775   -1.182661
     13          1           0        1.563214    1.769144    1.379358
     14          1           0        3.354948    1.902906    1.397624
     15          1           0        2.545105    0.524579    2.216298
     16          6           0       -2.022081   -0.913243    1.405872
     17          6           0       -2.450871   -0.403783    0.041907
     18          6           0       -2.283338   -1.413043   -1.081694
     19          7           0       -3.910390    0.040735    0.156687
     20          8           0       -4.104933    1.030873    0.819804
     21          8           0       -4.752896   -0.707061   -0.264083
     22          7           0       -1.733648    0.886338   -0.327565
     23          8           0       -0.884701    1.300205    0.426750
     24          8           0       -2.113317    1.445341   -1.323977
     25          1           0       -2.659278   -1.773474    1.667239
     26          1           0       -2.140238   -0.128937    2.168692
     27          1           0       -0.971803   -1.253879    1.388538
     28          1           0       -2.633350   -0.986673   -2.033873
     29          1           0       -2.889669   -2.299683   -0.849395
     30          1           0       -1.230929   -1.727628   -1.184282
 ---------------------------------------------------------------------
 Rotational constants (GHZ):           1.0667303           0.1968011           0.1899601
   276 basis functions,   498 primitive gaussians,   294 cartesian basis functions
    70 alpha electrons       70 beta electrons
       nuclear repulsion energy      1504.1513888116 Hartrees.
 NAtoms=   30 NActive=   30 NUniq=   30 SFac= 1.00D+00 NAtFMM=   60 NAOKFM=F Big=F
 Nuclear repulsion after empirical dispersion term =     1504.1292621184 Hartrees.
   1 Symmetry operations used in ECPInt.
 ECPInt:  NShTT=    8778 NPrTT=   35250 LenC2=    7985 LenP2D=   22128.
 LDataN:  DoStor=T MaxTD1= 4 Len=   56
 Initial guess from the checkpoint file:  "42.chk"
 B after Tr=     0.000000    0.000000   -0.000000
         Rot=    0.999782    0.020349    0.001111   -0.004620 Ang=   2.39 deg.
 ExpMin= 1.22D-01 ExpMax= 2.27D+03 ExpMxC= 3.41D+02 IAcc=3 IRadAn=         5 AccDes= 0.00D+00
 Harris functional with IExCor= 4639 and IRadAn=       5 diagonalized for initial guess.
 HarFok:  IExCor= 4639 AccDes= 0.00D+00 IRadAn=         5 IDoV= 1 UseB2=F ITyADJ=14
 ICtDFT=  3500011 ScaDFX=  1.000000  1.000000  1.000000  1.000000
 FoFCou: FMM=F IPFlag=           0 FMFlag=      100000 FMFlg1=           0
         NFxFlg=           0 DoJE=T BraDBF=F KetDBF=T FulRan=T
         wScrn=  0.000000 ICntrl=       500 IOpCl=  0 I1Cent=   200000004 NGrid=           0
         NMat0=    1 NMatS0=      1 NMatT0=    0 NMatD0=    1 NMtDS0=    0 NMtDT0=    0
 Petite list used in FoFCou.
     Minimum is close to point  4 DX=  6.31D-03 DF= -9.66D-07 DXR=  5.23D-03 DFR=  2.74D-05 which will be used.
     Minimum is close to point  2 DX=  3.34D-02 DF= -5.17D-06 DXR=  3.24D-02 DFR=  1.05D-03 which will be used.
     Accept linear search using points  1 and  2.
     Minimum is close to point  2 DX= -7.46D-02 DF= -1.87D-05 DXR=  9.04D-02 DFR=  6.78D-03 which will be used.
     Accept linear search using points  1 and  2.
     Minimum is close to point  2 DX= -7.31D-02 DF= -1.11D-05 DXR=  8.84D-02 DFR=  6.49D-03 which will be used.
     Minimum is close to point  2 DX=  4.74D-02 DF= -3.50D-06 DXR=  5.60D-02 DFR=  3.14D-03 which will be used.
     Accept linear search using points  1 and  2.
 Restarting incremental Fock formation.
     Accept linear search using points  1 and  2.
     Accept linear search using points  1 and  2.
     Accept linear search using points  1 and  2.
     Accept linear search using points  2 and  3.
     Accept linear search using points  1 and  2.
     Accept linear search using points  1 and  2.
     Minimum is close to point  2 DX= -7.70D-04 DF= -2.19D-10 DXR=  7.70D-04 DFR=  5.94D-07 which will be used.
 Restarting incremental Fock formation.
     Minimum is close to point  2 DX=  1.38D-04 DF=  0.00D+00 DXR=  1.38D-04 DFR=  0.00D+00 which will be used.
 SCF Done:  E(RwB97XD) =  -1055.13907957     a.u. after   19 cycles
            Convg  =    0.4521D-07                    75 Fock formations.
              S**2 =  0.0000                  -V/T =  2.0072
   1 Symmetry operations used in ECPInt.
 ECPInt:  NShTT=    8778 NPrTT=   35250 LenC2=    7985 LenP2D=   22128.
 LDataN:  DoStor=T MaxTD1= 5 Len=  102
 Calling FoFJK, ICntrl=      2127 FMM=F ISym2X=0 I1Cent= 0 IOpClX= 0 NMat=1 NMatS=1 NMatT=0.

 GradGradGradGradGradGradGradGradGradGradGradGradGradGradGradGradGradGrad
 Using GEDIIS/GDIIS optimizer.
 FormGI is forming the generalized inverse of G from B-inverse, IUseBI=4.
 Internal  Forces:  Max     0.006983286 RMS     0.002213951
 Step number   2 out of a maximum of  164
 All quantities printed in internal units (Hartrees-Bohrs-Radians)
 Mixed Optimization -- RFO/linear search
 Trust test= 1.32D-01 RLast= 4.59D-01 DXMaxT set to 3.00D-01
 ITU=  0  0
 Use linear search instead of GDIIS.
     Eigenvalues ---    0.00230   0.00230   0.00282   0.00320   0.00329
     Eigenvalues ---    0.00346   0.00362   0.00435   0.00505   0.00547
     Eigenvalues ---    0.00694   0.01035   0.01558   0.02122   0.02605
     Eigenvalues ---    0.03163   0.04087   0.04447   0.04543   0.04762
     Eigenvalues ---    0.05149   0.05535   0.05776   0.05817   0.05914
     Eigenvalues ---    0.05987   0.06011   0.06026   0.06872   0.07009
     Eigenvalues ---    0.07352   0.08796   0.11091   0.11172   0.12567
     Eigenvalues ---    0.14214   0.15179   0.15525   0.15695   0.15996
     Eigenvalues ---    0.16000   0.16000   0.16000   0.16000   0.16004
     Eigenvalues ---    0.16832   0.18270   0.22061   0.23982   0.24685
     Eigenvalues ---    0.24999   0.25000   0.25000   0.25000   0.25000
     Eigenvalues ---    0.26178   0.26468   0.30209   0.30357   0.30637
     Eigenvalues ---    0.30704   0.30893   0.31035   0.32052   0.32855
     Eigenvalues ---    0.33719   0.34946   0.34981   0.35007   0.35039
     Eigenvalues ---    0.35121   0.35137   0.35152   0.35174   0.35203
     Eigenvalues ---    0.35582   0.98519   1.01306   1.01625   1.02798
     Eigenvalues ---    1.03627   1.04344   1.05055   1.05943
 Quartic linear search produced a step of -0.47644.
 Iteration  1 RMS(Cart)=  0.06913593 RMS(Int)=  0.00875110
 Iteration  2 RMS(Cart)=  0.00891402 RMS(Int)=  0.00447551
 Iteration  3 RMS(Cart)=  0.00014846 RMS(Int)=  0.00447360
 Iteration  4 RMS(Cart)=  0.00000167 RMS(Int)=  0.00447360
 Iteration  5 RMS(Cart)=  0.00000003 RMS(Int)=  0.00447360
 Variable       Old X    -DE/DX   Delta X   Delta X   Delta X     New X
                                 (Linear)    (Quad)   (Total)
    R1        2.87131  -0.00109  -0.00197   0.00559   0.00362   2.87493
    R2        2.08037   0.00027  -0.01233   0.04791   0.03558   2.11595
    R3        2.07761  -0.00008  -0.00992   0.03810   0.02817   2.10579
    R4        2.08011  -0.00022  -0.01218   0.04657   0.03439   2.11450
    R5        2.87015  -0.00162  -0.00255   0.00688   0.00433   2.87447
    R6        2.88213   0.00099  -0.01933   0.07591   0.05658   2.93871
    R7        2.89534  -0.00045  -0.01411   0.05329   0.03918   2.93452
    R8        2.07867   0.00080  -0.01193   0.04719   0.03526   2.11393
    R9        2.07731   0.00016  -0.01102   0.04269   0.03167   2.10898
   R10        2.07767  -0.00010  -0.01012   0.03883   0.02870   2.10637
   R11        2.28011  -0.00100  -0.00347   0.01353   0.01007   2.29017
   R12        2.28024  -0.00025  -0.00311   0.01284   0.00977   2.29001
   R13        4.37134  -0.00119  -0.03592   0.08401   0.04805   4.41939
   R14        4.46939  -0.00080  -0.00441   0.00681   0.00244   4.47183
   R15        2.27478   0.00283  -0.00461   0.01964   0.01503   2.28981
   R16        2.27931  -0.00033  -0.00386   0.01501   0.01115   2.29046
   R17        2.86828  -0.00145  -0.00090  -0.00079  -0.00172   2.86656
   R18        2.08242   0.00031  -0.01310   0.05094   0.03784   2.12025
   R19        2.07955  -0.00076  -0.01039   0.03882   0.02843   2.10798
   R20        2.08677  -0.00385  -0.01464   0.05050   0.03583   2.12260
   R21        2.87161  -0.00374  -0.00326   0.00329   0.00000   2.87161
   R22        2.89132   0.00218  -0.01113   0.04657   0.03544   2.92677
   R23        2.87545   0.00299  -0.01653   0.06862   0.05209   2.92753
   R24        2.07951  -0.00011  -0.01063   0.04076   0.03013   2.10964
   R25        2.07675   0.00035  -0.01113   0.04340   0.03227   2.10902
   R26        2.08475  -0.00268  -0.01358   0.04773   0.03419   2.11894
   R27        2.28176   0.00055  -0.00388   0.01556   0.01168   2.29343
   R28        2.27244   0.00296  -0.00468   0.01997   0.01529   2.28773
   R29        2.28414   0.00278  -0.00323   0.01423   0.01100   2.29514
   R30        2.27512   0.00140  -0.00305   0.01277   0.00971   2.28483
    A1        1.90423  -0.00050   0.00406  -0.01706  -0.01306   1.89117
    A2        1.93805   0.00040  -0.00006   0.00182   0.00176   1.93980
    A3        1.89482  -0.00032   0.00719  -0.02783  -0.02070   1.87412
    A4        1.90208   0.00016  -0.00317   0.01229   0.00913   1.91121
    A5        1.91004   0.00014  -0.00445   0.01627   0.01167   1.92171
    A6        1.91445   0.00010  -0.00370   0.01456   0.01086   1.92531
    A7        1.98175   0.00063   0.00430  -0.01380  -0.00960   1.97216
    A8        1.93050  -0.00011  -0.00069   0.00119   0.00054   1.93104
    A9        1.88198  -0.00003  -0.00448   0.01868   0.01417   1.89616
   A10        1.92139  -0.00087  -0.00325   0.00708   0.00388   1.92527
   A11        1.91302   0.00041  -0.00493   0.02069   0.01575   1.92877
   A12        1.82841  -0.00006   0.00937  -0.03494  -0.02553   1.80289
   A13        1.90548  -0.00046   0.00298  -0.01272  -0.00980   1.89568
   A14        1.89549  -0.00038   0.00647  -0.02497  -0.01856   1.87693
   A15        1.93284   0.00058  -0.00132   0.00652   0.00522   1.93806
   A16        1.91242   0.00022  -0.00077   0.00404   0.00313   1.91554
   A17        1.90560   0.00000  -0.00373   0.01312   0.00941   1.91500
   A18        1.91192   0.00003  -0.00365   0.01377   0.01015   1.92207
   A19        2.04610  -0.00158  -0.00266   0.00731   0.00458   2.05069
   A20        2.05348  -0.00105   0.00175  -0.00829  -0.00660   2.04688
   A21        2.18346   0.00262   0.00098   0.00054   0.00148   2.18495
   A22        1.87141  -0.00367  -0.00394  -0.00562  -0.00953   1.86187
   A23        2.16892   0.00098   0.00392  -0.01762  -0.01360   2.15532
   A24        2.01930  -0.00133   0.00338  -0.00059  -0.01185   2.00745
   A25        2.05496  -0.00092  -0.00761   0.04207   0.01985   2.07481
   A26        2.20072   0.00311   0.00794  -0.00808  -0.01505   2.18567
   A27        1.88789  -0.00120   0.01328  -0.04067  -0.02735   1.86054
   A28        1.93196   0.00071  -0.00242   0.00820   0.00591   1.93787
   A29        1.93705   0.00060  -0.00173  -0.01305  -0.01490   1.92215
   A30        1.90696   0.00013  -0.00178   0.01016   0.00828   1.91525
   A31        1.88902   0.00217   0.00065   0.01319   0.01350   1.90252
   A32        1.91012  -0.00235  -0.00795   0.02193   0.01409   1.92421
   A33        1.99367   0.00458   0.00535  -0.01843  -0.01312   1.98055
   A34        1.87506  -0.00279  -0.00349   0.01624   0.01274   1.88780
   A35        1.94940  -0.00100  -0.00611   0.01363   0.00764   1.95704
   A36        1.93221  -0.00104  -0.00260   0.01711   0.01455   1.94676
   A37        1.90881  -0.00354  -0.01464   0.03352   0.01898   1.92778
   A38        1.79417   0.00367   0.02351  -0.06703  -0.04354   1.75063
   A39        1.92559   0.00147  -0.00082   0.00605   0.00546   1.93105
   A40        1.89518   0.00079   0.01107  -0.02488  -0.01384   1.88134
   A41        1.94263  -0.00491  -0.01058  -0.00708  -0.01777   1.92486
   A42        1.89654  -0.00055   0.00018   0.00661   0.00676   1.90330
   A43        1.91075  -0.00034  -0.00593   0.01772   0.01194   1.92270
   A44        1.89222   0.00367   0.00634   0.00145   0.00752   1.89974
   A45        2.01876   0.00056  -0.00305   0.03518   0.01296   2.03173
   A46        2.05038  -0.00072   0.00028   0.01972   0.00083   2.05122
   A47        2.20089   0.00150   0.00858  -0.00665  -0.01764   2.18325
   A48        2.05990  -0.00002  -0.00074   0.00970  -0.01127   2.04863
   A49        2.03307  -0.00215  -0.00230   0.01095  -0.01160   2.02147
   A50        2.18830   0.00270   0.00368  -0.00116  -0.01885   2.16945
   A51        2.80485  -0.00698  -0.01047   0.02388   0.01349   2.81835
   A52        2.47726  -0.00450  -0.01544   0.03953   0.02399   2.50125
    D1       -1.03061   0.00044   0.01122  -0.01111   0.00004  -1.03057
    D2        1.13958  -0.00033   0.00960  -0.01117  -0.00160   1.13798
    D3        3.12942  -0.00047   0.01788  -0.04169  -0.02384   3.10558
    D4       -3.12738   0.00031   0.01256  -0.01646  -0.00392  -3.13130
    D5       -0.95719  -0.00046   0.01095  -0.01652  -0.00556  -0.96275
    D6        1.03265  -0.00060   0.01923  -0.04704  -0.02780   1.00485
    D7        1.04979   0.00014   0.01251  -0.01761  -0.00508   1.04471
    D8       -3.06320  -0.00063   0.01089  -0.01767  -0.00672  -3.06992
    D9       -1.07336  -0.00077   0.01917  -0.04819  -0.02896  -1.10232
   D10        0.98457  -0.00010  -0.00896   0.00758  -0.00131   0.98327
   D11       -1.09982   0.00012  -0.01369   0.02482   0.01111  -1.08871
   D12        3.08325  -0.00003  -0.01249   0.01974   0.00727   3.09053
   D13       -1.19054   0.00026  -0.00869   0.01075   0.00210  -1.18844
   D14        3.00826   0.00048  -0.01342   0.02799   0.01451   3.02277
   D15        0.90815   0.00032  -0.01223   0.02290   0.01067   0.91882
   D16        3.09032   0.00058  -0.01536   0.03710   0.02177   3.11209
   D17        1.00593   0.00081  -0.02009   0.05433   0.03418   1.04011
   D18       -1.09418   0.00065  -0.01889   0.04925   0.03034  -1.06384
   D19       -2.84880   0.00001  -0.01083   0.02093   0.01013  -2.83867
   D20        0.27594  -0.00026  -0.00415  -0.00623  -0.01032   0.26562
   D21       -0.64450   0.00011  -0.00815   0.00916   0.00095  -0.64354
   D22        2.48025  -0.00016  -0.00148  -0.01800  -0.01949   2.46075
   D23        1.41092   0.00012  -0.01039   0.01760   0.00719   1.41810
   D24       -1.74753  -0.00015  -0.00371  -0.00956  -0.01326  -1.76079
   D25        1.23753   0.00409   0.02033   0.14547   0.16505   1.40258
   D26       -1.77518  -0.00289  -0.02732  -0.11444  -0.14081  -1.91598
   D27       -0.92772   0.00307   0.02095   0.13738   0.15737  -0.77036
   D28        2.34276  -0.00391  -0.02670  -0.12253  -0.14849   2.19427
   D29       -2.98884   0.00392   0.02211   0.13801   0.15928  -2.82956
   D30        0.28164  -0.00305  -0.02554  -0.12190  -0.14658   0.13506
   D31        2.26952  -0.00203  -0.00063  -0.02435  -0.02498   2.24453
   D32       -0.85383  -0.00170  -0.00786   0.00515  -0.00266  -0.85650
   D33       -2.61456   0.00222  -0.00241   0.02546   0.02309  -2.59147
   D34        0.50872   0.00188   0.00484  -0.00400   0.00092   0.50964
   D35       -0.71581   0.00194   0.01105  -0.02455  -0.01362  -0.72943
   D36        1.29721   0.00301  -0.00363   0.03500   0.03146   1.32866
   D37       -1.08141   0.00014   0.01166   0.01219   0.02375  -1.05766
   D38        1.06904  -0.00019   0.00927   0.03390   0.04306   1.11210
   D39        3.02401   0.00211   0.03212  -0.02979   0.00222   3.02623
   D40        3.11305   0.00031   0.00695   0.02019   0.02712   3.14017
   D41       -1.01968  -0.00003   0.00456   0.04190   0.04643  -0.97325
   D42        0.93529   0.00227   0.02742  -0.02179   0.00560   0.94088
   D43        0.98840   0.00240   0.01974  -0.00437   0.01542   1.00383
   D44        3.13885   0.00206   0.01735   0.01734   0.03473  -3.10960
   D45       -1.18936   0.00436   0.04021  -0.04635  -0.00610  -1.19546
   D46        0.95336   0.00146  -0.00813   0.02119   0.01301   0.96637
   D47        3.02249   0.00168   0.00750  -0.02791  -0.02068   3.00181
   D48       -1.18401   0.00176   0.00126   0.00461   0.00600  -1.17801
   D49        3.11923  -0.00038  -0.00053  -0.03157  -0.03209   3.08714
   D50        1.04250  -0.00107  -0.00713  -0.02802  -0.03506   1.00745
   D51       -1.03910  -0.00313  -0.01544  -0.00972  -0.02529  -1.06438
   D52        1.00002   0.00077   0.00220  -0.05260  -0.05034   0.94968
   D53       -1.07670   0.00008  -0.00439  -0.04905  -0.05331  -1.13001
   D54        3.12488  -0.00198  -0.01271  -0.03075  -0.04354   3.08134
   D55       -0.96479  -0.00110  -0.01630  -0.00021  -0.01653  -0.98132
   D56       -3.04151  -0.00179  -0.02290   0.00335  -0.01949  -3.06101
   D57        1.16007  -0.00384  -0.03121   0.02165  -0.00973   1.15034
   D58        1.21131   0.00315   0.03017   0.15286   0.18176   1.39306
   D59       -1.76747  -0.00522  -0.02655  -0.14240  -0.16788  -1.93535
   D60       -2.88413   0.00630   0.03279   0.15210   0.18385  -2.70028
   D61        0.42027  -0.00207  -0.02394  -0.14317  -0.16579   0.25449
   D62       -0.84722   0.00372   0.02728   0.16248   0.18855  -0.65867
   D63        2.45719  -0.00465  -0.02944  -0.13279  -0.16109   2.29610
   D64        0.07463   0.00644   0.07394   0.15499   0.22681   0.30144
   D65       -3.00418  -0.00231   0.02780  -0.16485  -0.13509  -3.13928
   D66       -2.14968   0.00391   0.08223   0.14313   0.22341  -1.92627
   D67        1.05469  -0.00484   0.03610  -0.17670  -0.13850   0.91619
   D68        2.07998   0.00477   0.07998   0.14331   0.22126   2.30124
   D69       -0.99884  -0.00398   0.03384  -0.17653  -0.14065  -1.13949
   D70       -0.62076  -0.00012   0.01097  -0.02073  -0.00965  -0.63041
   D71        1.51270  -0.00175  -0.00069  -0.00567  -0.00653   1.50617
   D72       -2.70412  -0.00047  -0.00021   0.01323   0.01316  -2.69096
         Item               Value     Threshold  Converged?
 Maximum Force            0.006983     0.000015     NO 
 RMS     Force            0.002214     0.000010     NO 
 Maximum Displacement     0.279570     0.000060     NO 
 RMS     Displacement     0.070089     0.000040     NO 
 GradGradGradGradGradGradGradGradGradGradGradGradGradGradGradGradGradGrad

                    Distance matrix (angstroms):
                    1          2          3          4          5
     1  C    0.000000
     2  C    1.521350   0.000000
     3  C    2.537005   1.521106   0.000000
     4  N    2.529973   1.555098   2.524719   0.000000
     5  O    3.623730   2.372182   2.778551   1.211907   0.000000
     6  O    2.689430   2.369427   3.541797   1.211822   2.151709
     7  N    2.497253   1.552880   2.525956   2.437349   3.009163
     8  O    3.043756   2.339065   2.782290   3.539784   4.014175
     9  O    3.335877   2.387157   3.472340   2.542302   2.936213
    10  H    1.119713   2.154341   2.766125   2.795833   3.821062
    11  H    1.114334   2.186136   3.505595   2.752820   3.948917
    12  H    1.118944   2.140906   2.756973   3.483713   4.475997
    13  H    2.748199   2.156714   1.118642   2.818441   3.077357
    14  H    2.779037   2.140674   1.116025   3.476786   3.820898
    15  H    3.504590   2.184894   1.114644   2.724905   2.484960
    16  C    5.660704   5.035622   5.039499   3.864087   3.422350
    17  C    5.357537   5.139264   5.396156   4.031682   4.037235
    18  C    5.498821   5.369678   6.005181   4.077217   4.228585
    19  N    6.631646   6.539276   6.644347   5.541187   5.521518
    20  O    6.786391   6.755504   6.634423   5.982999   5.980862
    21  O    7.505988   7.462288   7.707933   6.353129   6.344608
    22  N    4.302582   4.386170   4.580936   3.689890   4.032855
    23  O    3.529415   3.440152   3.417668   2.996732   3.327601
    24  O    4.487115   4.942512   5.308828   4.388452   4.957274
    25  H    6.661222   5.981776   6.039888   4.686145   4.119892
    26  H    5.918636   5.275651   4.958302   4.353428   3.865390
    27  H    5.008651   4.188452   4.288297   2.926553   2.338641
    28  H    5.704237   5.861377   6.588012   4.719628   5.086064
[...]
 ,0.00004665,0.00002758,0.00001900,0.00007783,-0.00027194,-0.00035954,0
 .00007563,0.00016630,-0.00003976,-0.00002259,-0.00002722,-0.00002972,0
 .00006642,-0.00637761,-0.00477001,0.00035648,-0.01099421,-0.01641932,-
 0.04226371,-0.00157023,-0.00128193,-0.00135104,0.00400622,-0.01143330,
 0.00103623,0.00048034,0.00563068,0.00057982,-0.00298817,0.00207539,-0.
 00029414,-0.03663542,-0.25443068,-0.24320102,0.01539760,0.04025491,-0.
 00601967,0.03809004,0.24511703,-0.00002212,-0.00038490,0.00099486,-0.0
 0142003,-0.00007172,-0.00170837,-0.00026221,0.00097091,-0.00003965,-0.
 00062432,-0.00012560,-0.00531697,0.00076401,0.00095137,0.00380583,-0.0
 0136275,-0.00012152,0.00213960,-0.00040981,0.00049483,0.00031561,0.000
 27499,-0.00015995,0.00015253,0.00028353,-0.00031868,0.00011425,0.00134
 636,0.00059549,-0.00223553,0.00062074,-0.00017198,0.00015838,-0.000192
 45,0.00007170,0.00017099,-0.00099899,-0.00089841,0.00047106,0.00034786
 ,-0.00014470,0.00006273,0.00000532,-0.00011567,0.00017951,-0.00372082,
 -0.00360639,0.00070667,-0.00234063,-0.02301541,-0.01905725,0.00149090,
 0.00325311,-0.00243891,0.00372019,-0.00206357,0.00029016,-0.00105371,0
 .00194037,0.00065810,-0.00160563,-0.00034115,0.00017126,0.00108960,-0.
 24425855,-0.52379205,0.04737673,-0.02740787,-0.11378113,-0.04307006,0.
 29384988,0.65286141,-0.00002899,-0.00002397,-0.00000165,0.00015206,0.0
 0002951,0.00006458,-0.00003557,-0.00004271,-0.00001835,0.00046638,0.00
 018890,0.00037498,-0.00046981,0.00001656,-0.00023232,-0.00024258,0.000
 06308,-0.00024882,0.00011639,-0.00005064,0.00000868,-0.00006222,0.0000
 1061,-0.00000573,-0.00006182,0.00003304,-0.00001443,-0.00000901,0.0000
 0946,0.00001189,0.00000544,0.00000321,0.00000737,-0.00000071,-0.000008
 59,-0.00001022,0.00000111,0.00002640,-0.00000171,-0.00000556,-0.000007
 16,0.00000958,0.00001656,0.00000590,-0.00001014,-0.16925130,-0.1391090
 8,-0.01806218,0.00383398,0.00717757,0.00110936,0.00016593,0.00015206,-
 0.00000954,0.00101259,0.00038275,-0.00068446,-0.00021693,-0.00001542,0
 .00027803,-0.00082604,0.00036501,0.00043409,-0.00112010,0.00128161,0.0
 0315059,0.00060076,-0.00075171,-0.00083715,0.00079551,0.00065588,-0.00
 000778,0.17534929,0.00001730,-0.00000576,-0.00000117,-0.00004059,-0.00
 003289,-0.00003064,0.00002168,0.00000287,0.00001626,-0.00016512,-0.000
 13290,-0.00016215,0.00020823,0.00002164,0.00008259,0.00008170,0.000020
 45,0.00011477,-0.00000517,-0.00001267,0.00001400,0.00000413,0.00001080
 ,-0.00000389,0.00000339,0.00001606,-0.00000415,0.00004381,0.00001654,0
 .00000641,-0.00000348,0.,-0.00000195,-0.00000870,0.00000802,0.00000730
 ,0.00002403,0.00001221,-0.00001441,-0.00000334,0.00000744,-0.00001038,
 -0.00000655,-0.00000026,0.00000240,-0.13586807,-0.20455973,-0.01824191
 ,-0.01044884,-0.01379401,-0.00072458,0.00004914,0.00018786,0.00137837,
 -0.00319682,-0.00192703,0.00080000,0.00066871,0.00064163,-0.00042553,0
 .00157738,0.00146063,0.00010614,0.00106163,0.00006976,-0.00086512,-0.0
 0030957,-0.00023097,-0.00090488,-0.00058894,-0.00109504,-0.00126209,0.
 14796435,0.21646374,0.00001228,-0.00001926,0.00000718,0.00001097,-0.00
 003126,-0.00002617,0.00000858,0.00000700,0.00001723,0.00010046,-0.0001
 0274,-0.00030807,0.00010573,0.00006989,0.00016345,-0.00010297,0.000066
 42,0.00008157,-0.00001446,-0.00002731,0.00002398,0.00001720,0.00001689
 ,-0.00000448,0.00000484,0.00002462,-0.00001032,0.00004097,0.00002007,-
 0.00000634,-0.00000568,-0.00000045,0.00000129,-0.00001027,0.00000755,0
 .00000284,0.00000701,-0.00000645,-0.00003211,0.00000132,0.00000287,0.0
 0000144,-0.00002065,0.00000051,0.00000339,-0.01458159,-0.01583734,-0.0
 5144930,-0.01972678,-0.02075577,-0.00257396,-0.00042164,-0.00006743,0.
 00081482,-0.00168649,-0.00045710,0.00109510,0.00021480,0.00031886,-0.0
 0013257,0.00054624,0.00081543,-0.00015331,0.00431913,-0.00098171,-0.00
 530456,-0.00025722,0.00068465,0.00150411,-0.00179181,-0.00212394,-0.00
 090662,0.01611634,0.02251042,0.05370908,-0.00000123,0.00000340,0.00001
 792,-0.00002539,0.00002892,-0.00002840,-0.00000691,0.00004288,-0.00000
 578,0.00045191,0.00015052,-0.00091733,0.00004322,-0.00001212,0.0005836
 9,-0.00057592,-0.00027331,0.00017998,-0.00004953,0.00007991,-0.0000203
 1,0.00001774,-0.00003837,0.00002107,0.00003267,-0.00006659,0.00002099,
 -0.00002353,-0.00001828,-0.00002056,-0.00000114,0.00000060,0.00000790,
 0.00000556,-0.00000390,-0.00000622,-0.00002844,-0.00008058,-0.00003083
 ,0.00001845,-0.00001121,0.00002905,-0.00004625,0.00000109,-0.00000135,
 -0.05031009,0.00942406,-0.01181778,-0.00237565,-0.00481816,0.00695082,
 0.00006879,0.00095338,0.00111772,0.00103287,-0.00195071,0.00131557,-0.
 00030397,0.00062090,-0.00041386,-0.00026333,0.00033832,-0.00014588,0.0
 0096034,0.00019519,-0.00170068,-0.00124906,-0.00106621,-0.00012783,-0.
 00034327,0.00020932,0.00081834,0.00252320,-0.01009883,0.01779210,0.047
 28571,0.00000261,0.00000961,-0.00000058,-0.00001200,0.00000186,-0.0000
 1377,-0.00000210,0.00001419,0.00000714,-0.00021547,-0.00005355,0.00023
 486,0.00004001,-0.00000780,-0.00015236,0.00019009,0.00006577,-0.000062
 26,-0.00004473,0.00000401,0.00000048,0.00002974,0.00000080,-0.00000094
 ,0.00002196,-0.00000526,0.00000135,-0.00001632,-0.00000843,-0.00000847
 ,0.00000061,-0.00000232,-0.00000271,0.00000256,0.00000013,-0.00000023,
 -0.00001794,-0.00000434,0.00000091,0.00000146,-0.00000055,-0.00000265,
 0.00000762,0.00000028,0.00000572,0.00969570,-0.15086116,0.13824889,-0.
 00066109,0.01160564,-0.01586198,0.00066238,-0.00224141,-0.00261403,-0.
 00048523,0.00257072,-0.00008649,-0.00012585,-0.00054039,0.00014794,-0.
 00006972,-0.00032601,-0.00000014,-0.00058616,0.00062562,0.00013206,-0.
 00175199,-0.00266359,-0.00171012,0.00010042,0.00039766,0.00049408,0.00
 410737,-0.01030039,0.01718383,-0.00917526,0.15662991,0.00000080,0.0000
 2210,0.00000542,-0.00004663,-0.00000237,0.00000501,-0.00000237,0.00002
 606,-0.00000956,-0.00005257,-0.00004053,-0.00028086,0.00006726,0.00004
 602,0.00015393,-0.00006992,-0.00004147,0.00011463,-0.00005033,0.000023
 86,-0.00001158,0.00003107,-0.00000734,0.00000367,0.00002638,-0.0000188
 5,0.00001092,-0.00003253,-0.00001560,-0.00002557,0.00000789,-0.0000027
 5,-0.00000276,0.00000740,-0.00000212,0.00000155,-0.00002405,-0.0000265
 3,0.00002281,0.00000777,-0.00000346,0.00000381,0.00000264,-0.00000653,
 0.00000685,-0.01085234,0.13207349,-0.22996057,-0.00130564,0.01629180,-
 0.02181295,0.00142717,-0.00427370,-0.00341052,-0.00160384,0.00319394,-
 0.00042098,0.00010920,-0.00147501,0.00094662,0.00010521,-0.00058843,0.
 00018221,0.00237667,0.00118649,-0.00268704,-0.00053104,0.00013851,0.00
 256540,-0.00049824,0.00026601,0.00134694,0.00084013,-0.00422037,0.0057
 9698,0.00949961,-0.14227457,0.24742830,0.00013616,0.00009652,-0.000021
 78,-0.00014157,-0.00037279,0.00016343,0.00009150,0.00005647,0.00006580
 ,-0.00098232,-0.00159048,-0.00327708,0.00030043,0.00095394,0.00138070,
 -0.00168969,0.00011557,0.00084709,-0.00032611,-0.00000011,0.00001877,0
 .00025433,0.00005977,-0.00001425,0.00014941,0.00005860,0.00001716,0.00
 003273,-0.00001027,0.00001195,-0.00002372,-0.00001723,-0.00003227,-0.0
 0000989,0.00004300,0.00003789,0.00002356,-0.00000988,-0.00000833,-0.00
 000174,0.00003253,-0.00002288,-0.00003496,-0.00003298,0.00004024,-0.28
 912645,0.09904372,-0.02012313,-0.00538756,0.00180596,-0.00068141,0.000
 38937,-0.00022273,-0.00039842,0.00041083,-0.00067421,0.00045416,0.0001
 3517,0.00000806,0.00003637,0.00039041,0.00040964,0.00007959,-0.0000612
 3,-0.00043554,0.00109916,0.00018377,-0.00123489,-0.00086662,-0.0000250
 2,-0.00010946,-0.00031240,-0.01310015,0.00859379,-0.00094712,0.0023561
 7,-0.00188528,0.00055075,0.30555008,0.00007685,0.00006093,0.00000133,-
 0.00053357,0.00006130,-0.00025485,0.00011351,0.00011802,0.00004622,-0.
 00161238,-0.00026215,-0.00095485,0.00089333,-0.00065991,0.00065805,0.0
 0059146,-0.00055028,0.00037669,-0.00030488,0.00005611,-0.00002923,0.00
 013591,-0.00001759,0.00001554,0.00014593,-0.00007350,0.00003881,-0.000
 01205,-0.00004555,-0.00002001,-0.00001748,-0.00000906,-0.00001492,0.00
 000821,0.00001605,0.00001995,-0.00001119,-0.00008066,0.00000846,0.0000
 1904,0.00001610,-0.00002309,-0.00004253,-0.00001252,0.00001609,0.09647
 256,-0.08735491,0.00899337,0.01624226,-0.00910824,0.00041889,-0.000426
 49,0.00021382,0.00101991,-0.00170006,-0.00220335,-0.00356334,0.0006085
 2,0.00009092,0.00042845,0.00083527,0.00092377,0.00061441,0.00166061,0.
 00034248,-0.00154450,-0.00101324,-0.00019628,0.00089415,-0.00013818,0.
 00021455,0.00088978,-0.02253560,0.01243097,-0.00140074,0.01557758,-0.0
 0557280,-0.00113615,-0.10467711,0.09112115,0.00001012,-0.00001420,-0.0
 0000587,-0.00000981,-0.00011832,-0.00019323,0.00005805,0.00002202,0.00
 003537,-0.00244806,-0.00032640,0.00349374,0.00021115,-0.00050885,-0.00
 211720,0.00141770,0.00075814,-0.00140062,-0.00011067,-0.00003111,0.000
 01042,0.00010600,0.00003829,-0.00001412,0.00005857,0.00003818,-0.00002
 039,0.00001127,-0.00001935,0.00000799,-0.00001989,-0.00000905,-0.00002
 541,0.00001094,0.00000659,-0.00000427,0.00000342,0.00002370,0.00001612
 ,-0.00000664,0.00001825,-0.00003788,0.00002071,-0.00000232,0.00000688,
 -0.02368704,0.01005141,-0.05096844,0.02827197,-0.01064610,0.00169675,0
 .00007217,0.00042630,0.00125230,-0.00160017,-0.00238413,-0.00676231,0.
 00095319,-0.00107721,0.00167059,0.00114049,0.00033410,0.00093643,0.000
 06691,0.00034443,0.00089329,-0.00014027,-0.00060295,-0.00002931,0.0000
 9613,0.00026875,-0.00004082,-0.00228743,0.00161723,-0.00124911,-0.0236
 1765,0.00735526,0.00062946,0.02156448,-0.00556203,0.05318596,0.0000039
 5,0.00000922,0.00001246,-0.00000191,0.00005396,0.00009773,-0.00002095,
 -0.00002121,-0.00003361,0.00010084,0.00002525,-0.00011784,-0.00007711,
 -0.00002797,-0.00000518,-0.00038107,-0.00018027,0.00002436,-0.00002698
 ,0.00002489,-0.00002241,0.00000480,-0.00001834,0.00000331,0.00001160,-
 0.00003346,-0.00000090,-0.00003331,-0.00004310,0.00002113,-0.00004888,
 0.00000673,0.00000192,0.00001688,-0.00000666,-0.00002134,-0.00001616,-
 0.00001284,0.00002063,0.00000220,-0.00001002,0.00001442,0.00000722,0.0
 0000386,-0.00000854,0.00045864,-0.00007176,-0.00029148,-0.00225609,-0.
 00096622,-0.00215473,-0.06848459,0.04075640,0.05706327,0.00145809,0.00
 005216,-0.00136277,-0.00015789,-0.00048468,0.00014658,-0.00064106,-0.0
 0014018,0.00048906,-0.00005369,0.00120038,0.00275297,0.00056286,-0.000
 11967,-0.00101852,-0.00079132,-0.00106954,-0.00109095,0.00003754,0.000
 22592,0.00015824,0.00055600,0.00005294,-0.00001678,0.00023737,-0.00009
 995,-0.00028917,0.06541741,0.00000186,0.00001665,-0.00001018,-0.000022
 14,-0.00000701,-0.00001246,0.00000765,0.00001522,-0.00000086,-0.000086
 39,0.00002974,0.00024779,-0.00001182,-0.00002815,-0.00011478,0.0001993
 9,0.00005632,-0.00014316,-0.00006272,0.00002013,-0.00001703,0.00004041
 ,-0.00000404,0.00000347,0.00003099,-0.00001400,0.00001272,-0.00003725,
 -0.00001353,-0.00000150,0.00000061,0.00000070,-0.00000677,0.00000637,-
 0.00000062,0.00000051,-0.00001565,-0.00001108,0.00001848,0.00000144,0.
 00000126,-0.00000187,0.00000385,-0.00000449,0.00000302,0.00005661,-0.0
 0274518,0.00264326,-0.00533860,0.01160421,0.01691227,0.04203954,-0.138
 39482,-0.12807595,0.00005915,0.00243449,-0.00046613,-0.00033663,-0.000
 54735,-0.00002580,-0.00005593,-0.00010074,0.00044067,-0.00025248,0.001
 23020,0.00051107,0.00034351,0.00028840,-0.00092645,-0.00151514,-0.0036
 5591,0.00065520,0.00016389,-0.00000850,0.00009248,-0.00014448,0.000763
 31,0.00103340,-0.00005513,-0.00010638,-0.00000196,-0.04359653,0.144160
 34,0.00000273,-0.00001879,0.00000257,0.00001277,0.00000568,0.00000367,
 -0.00000123,-0.00000958,0.00000392,0.00008837,-0.00007037,-0.00033313,
 0.00004684,0.00006612,0.00018361,-0.00017966,-0.00004969,0.00017522,0.
 00004273,-0.00001052,0.00001263,-0.00002976,0.00000120,-0.00000217,-0.
 00002125,0.00000918,-0.00000553,0.00004297,0.00001724,0.00000513,-0.00
 000015,0.00000570,0.00000722,-0.00001041,0.00000253,0.00000350,0.00001
 585,0.00000552,-0.00002045,-0.00000129,0.,0.00000159,-0.00000818,0.000
 00312,-0.00000232,-0.00054635,0.00438789,-0.00345515,0.00660676,-0.015
 39846,-0.02217794,0.05609387,-0.12185505,-0.22522103,0.00248015,-0.000
 20933,0.00063749,-0.00015830,0.00002772,-0.00013391,-0.00100637,-0.000
 49500,0.00040895,-0.00050032,-0.00233097,-0.00343753,-0.00044605,0.000
 13146,0.00141693,-0.00096305,-0.00041759,0.00292229,-0.00002714,0.0001
 2263,0.00026973,0.00039467,-0.00092016,-0.00107049,-0.00006675,0.00007
 240,0.00020175,-0.06040060,0.13122956,0.24283797,-0.00001313,-0.000013
 07,-0.00000462,0.00006000,0.00001666,0.00005069,-0.00002627,-0.0000145
 1,-0.00000981,0.00011000,-0.00015559,-0.00064398,0.00000151,0.00017330
 ,0.00036588,-0.00067931,0.00002654,0.00046562,0.00005972,-0.00004572,0
 .00001668,-0.00002855,0.00001484,-0.00000405,-0.00003271,0.00003048,-0
 .00001085,-0.00000332,0.00001800,-0.00000759,0.00001864,0.00000194,0.0
 0000827,-0.00000499,-0.00000369,0.00000073,-0.00000328,0.00000164,-0.0
 0000281,0.00000030,-0.00000666,0.00001007,0.00000288,0.00000158,-0.000
 00142,0.00022285,0.00012538,-0.00020831,-0.00019335,0.00124795,-0.0000
 6304,-0.16733704,-0.14192527,-0.01780828,0.00022628,0.00016742,0.00035
 453,-0.00004290,-0.00062989,0.00030330,-0.00262715,0.00187495,-0.00137
 585,0.00029499,0.00129678,-0.00037403,0.00023830,0.00000907,-0.0000527
 2,0.00042010,0.00031993,-0.00010146,0.00040484,0.00008325,0.00021848,0
 .00009180,0.00016913,-0.00003303,-0.00008337,-0.00019569,0.00007511,0.
 00712931,0.00862416,-0.00001233,0.17457613,0.00001564,-0.00001264,-0.0
 0000229,-0.00000361,-0.00003724,-0.00003327,0.00002141,-0.00000385,0.0
 0002169,-0.00002817,0.00000112,0.00022007,0.00004726,-0.00004215,-0.00
 015182,0.00033931,0.00004997,-0.00017285,-0.00000312,-0.00001399,0.000
 01160,0.00000402,0.00001060,-0.00000451,0.00000113,0.00001719,-0.00000
 556,0.00003442,0.00001877,0.00001837,-0.00001083,-0.00000072,-0.000003
 63,-0.00000809,0.00000807,0.00000310,0.00002424,0.00001665,-0.00002681
 ,-0.00000608,0.00000895,-0.00000940,-0.00001045,0.00000113,0.00000026,
 0.00026305,0.00032062,-0.00133775,-0.01080355,-0.01486882,-0.00269848,
 -0.13830668,-0.20891508,-0.02223282,-0.00384347,-0.00253148,0.00091408
 ,0.00079816,0.00149989,-0.00057964,0.00156215,0.00214718,-0.00127419,0
 .00152663,-0.00098940,0.00122800,-0.00126930,-0.00062332,0.00085177,-0
 .00064475,-0.00023820,0.00093965,0.00007909,0.00069266,0.00005700,0.00
 023428,0.00002267,-0.00005669,0.00013005,0.00005171,0.00003228,-0.0097
 5694,-0.00981620,0.00109919,0.15102378,0.22044943,-0.00001855,0.000030
 33,0.00000910,-0.00002579,0.00005180,0.00000720,-0.00001464,0.00001731
 ,-0.00002339,0.00002082,0.00008442,-0.00006390,-0.00005918,-0.00002429
 ,0.00006906,-0.00006697,-0.00009617,0.00006886,0.00001116,0.00003783,-
 0.00001670,-0.00001574,-0.00002308,0.00000720,-0.00000143,-0.00003593,
 0.00001015,-0.00002521,-0.00002619,-0.00003794,0.00003007,-0.00000251,
 0.00000420,0.00001072,-0.00001117,0.00000200,-0.00002462,-0.00002076,0
 .00003609,0.00000932,-0.00000914,0.00000628,0.00001457,-0.00000180,0.0
 0000148,0.00031881,-0.00001651,0.00091476,0.02011441,0.02249316,0.0028
 1985,-0.02055514,-0.02569483,-0.05216019,0.00070163,0.00043429,0.00054
 086,-0.00012512,-0.00062067,0.00041307,-0.00111822,-0.00034527,-0.0005
 1792,-0.00322875,0.00114329,-0.00711835,0.00218544,0.00118281,0.000285
 04,0.00035639,-0.00046236,0.00197835,0.00012056,0.00006000,-0.00123462
 ,-0.00018639,-0.00006161,0.00022391,0.00011160,-0.00002796,-0.00009959
 ,-0.01761808,-0.01654915,0.00034248,0.02071690,0.02200259,0.05496621,0
 .00006557,0.00001465,-0.00001162,0.00000322,-0.00034256,-0.00014122,0.
 00008006,0.00004647,0.00006072,-0.00080168,0.00012810,0.00227402,0.000
 11533,-0.00028816,-0.00110799,-0.00124790,-0.00011673,-0.00086095,-0.0
 0024344,-0.00000853,0.00001522,0.00021420,0.00005699,-0.00001115,0.000
 11440,0.00005343,-0.00000987,0.00002605,-0.00000919,0.00000378,-0.0000
 2720,-0.00001894,-0.00002612,-0.00000059,0.00002619,0.00000951,0.00000
 875,-0.00000652,-0.00000599,-0.00000308,0.00002774,-0.00002950,-0.0000
 1981,-0.00001755,0.00001773,0.00035339,-0.00024956,0.00028810,0.001107
 23,-0.00062343,0.00052304,-0.28894434,0.09721780,-0.03451346,-0.000483
 88,-0.00183284,0.00185299,0.00068221,-0.00010395,-0.00019770,0.0003036
 8,0.00086677,-0.00082364,0.00107829,-0.00061103,-0.00081684,-0.0003461
 2,0.00008903,0.00014589,-0.00005297,-0.00005595,0.00045756,-0.00005078
 ,0.00011559,-0.00010803,0.00015929,-0.00003548,0.00005935,0.00035251,-
 0.00006064,0.00006844,-0.00301371,-0.00004854,-0.00144849,-0.01278230,
 0.00859044,-0.00163855,0.30335364,0.00006760,0.00005369,0.00001480,-0.
 00021068,-0.00004087,-0.00010596,0.00008419,0.00004934,0.00002547,-0.0
 0042275,0.00017184,0.00137781,0.00015924,-0.00037357,-0.00093898,0.000
 70166,-0.00005599,-0.00067324,-0.00025890,0.00008390,-0.00004347,0.000
 14071,-0.00001997,0.00000715,0.00012286,-0.00006194,0.00003127,-0.0000
 0875,-0.00008057,0.00002291,-0.00008110,-0.00000695,-0.00002888,0.0000
 2568,0.00001260,-0.00000544,-0.00000564,-0.00002855,0.00002201,0.00000
 184,0.00001784,-0.00002220,-0.00001441,-0.00001156,0.00000593,-0.00022
 341,0.00010977,-0.00118819,0.01826438,-0.00948764,0.00341709,0.0939861
 3,-0.08663698,0.01176638,-0.00306880,-0.00127972,0.00383513,0.00142025
 ,-0.00107239,-0.00002601,0.00017996,0.00102024,-0.00096294,0.00064442,
 0.00086984,0.00063798,0.00012470,-0.00017514,-0.00006311,-0.00048322,-
 0.00039278,-0.00063820,-0.00017140,0.00003687,-0.00006699,-0.00010235,
 -0.00012420,-0.00010920,-0.00007952,0.00053529,-0.00003097,0.01424760,
 -0.00516298,0.00459838,-0.02223668,0.01277647,-0.00350843,-0.10280361,
 0.08927411,-0.00003804,-0.00004747,0.00004053,0.00010601,0.00017159,0.
 00023753,-0.00010255,-0.00009386,-0.00006648,0.00066906,-0.00001564,-0
 .00139261,-0.00022448,0.00007434,0.00047899,-0.00081963,-0.00018499,0.
 00083021,0.00020630,-0.00004645,0.00001234,-0.00015437,-0.00001900,-0.
 00000330,-0.00010162,-0.00000860,-0.00004093,-0.00000820,0.00000845,0.
 00001518,-0.00003187,0.00000095,0.00002343,-0.00000078,-0.00001495,-0.
 00003326,-0.00000474,0.00002270,0.00000087,-0.00000353,-0.00002721,0.0
 0003746,0.00002199,0.00001840,-0.00002075,-0.00040491,-0.00031568,0.00
 105831,-0.02755072,0.00848694,-0.00345637,-0.02943159,0.01148659,-0.05
 434106,0.00251658,0.00236109,-0.00484991,-0.00183354,0.00205454,-0.000
 19300,-0.00054389,0.00012067,0.00066037,-0.00060132,-0.00062166,0.0013
 6371,0.00028614,0.00004113,-0.00045491,-0.00021738,0.00014354,-0.00018
 322,-0.00006713,0.00003469,-0.00010067,0.00029142,-0.00003943,0.000244
 44,0.00029329,0.00001918,-0.00106848,0.02364682,-0.00744983,0.00642300
 ,-0.00187208,0.00119007,-0.00143359,0.03597476,-0.01735010,0.05621218\
 \0.00000052,-0.00000118,0.00000058,0.00000030,-0.00000142,0.00000051,0
 .00000076,-0.00000087,0.00000046,-0.00000028,-0.00000054,0.00000006,-0
 .00000053,-0.00000055,-0.00000010,-0.00000048,-0.00000065,-0.00000030,
 -0.00000021,-0.00000187,0.00000040,0.00000027,-0.00000241,0.00000057,-
 0.00000075,-0.00000209,0.00000004,0.00000074,-0.00000087,0.00000046,0.
 00000009,-0.00000156,0.00000034,0.00000093,-0.00000180,0.00000078,0.00
 000109,-0.00000038,0.00000056,0.00000119,-0.00000131,0.00000084,0.0000
 0057,-0.00000083,0.00000047,-0.00000052,0.00000125,-0.00000051,-0.0000
 0017,0.00000127,-0.00000033,-0.00000073,0.00000080,-0.00000056,0.00000
 017,0.00000213,-0.00000036,0.00000066,0.00000193,-0.00000007,-0.000000
 35,0.00000240,-0.00000065,0.00000023,0.00000061,0.00000012,0.00000058,
 0.00000062,0.00000013,0.00000057,0.00000049,0.00000002,-0.00000092,0.0
 0000180,-0.00000077,-0.00000008,0.00000161,-0.00000033,-0.00000072,0.0
 0000087,-0.00000055,-0.00000058,0.00000082,-0.00000047,-0.00000119,0.0
 0000134,-0.00000081,-0.00000114,0.00000040,-0.00000050\\\@


0EVERYBODY IS IGNORANT, ONLY ON DIFFERENT SUBJECTS.
0          WILL ROGERS
 File lengths (MBytes):  RWF=    296 Int=      0 D2E=      0 Chk=      8 Scr=      1
 Normal termination of Gaussian 16 at Tue Jul 11 04:17:51 2023.
real 18062.67
user 71596.22
sys 52.56
