 Entering Gaussian System, Link 0=g16
 Input=gaussian_test.inp
 Output=gaussian_test.log
 Initial command:
 /sw/restricted/lms/sw/Gaussian/g16_B01/g16/l1.exe "/scratch/user/peterchao1/peterchao1/8626447_1689049175000000401388363/Gau-40831.inp" -scrdir="/scratch/user/peterchao1/peterchao1/8626447_1689049175000000401388363/"
 Entering Link 1 = /sw/restricted/lms/sw/Gaussian/g16_B01/g16/l1.exe PID=     40832.
  
 Copyright (c) 1988-2017, Gaussian, Inc.  All Rights Reserved.
  
 This is part of the Gaussian(R) 16 program.  It is based on
 the Gaussian(R) 09 system (copyright 2009, Gaussian, Inc.),
 the Gaussian(R) 03 system (copyright 2003, Gaussian, Inc.),
 the Gaussian(R) 98 system (copyright 1998, Gaussian, Inc.),
 the Gaussian(R) 94 system (copyright 1995, Gaussian, Inc.),
 the Gaussian 92(TM) system (copyright 1992, Gaussian, Inc.),
 the Gaussian 90(TM) system (copyright 1990, Gaussian, Inc.),
 the Gaussian 88(TM) system (copyright 1988, Gaussian, Inc.),
 the Gaussian 86(TM) system (copyright 1986, Carnegie Mellon
 University), and the Gaussian 82(TM) system (copyright 1983,
 Carnegie Mellon University). Gaussian is a federally registered
 trademark of Gaussian, Inc.
  
 This software contains proprietary and confidential information,
 including trade secrets, belonging to Gaussian, Inc.
  
 This software is provided under written license and may be
 used, copied, transmitted, or stored only in accord with that
 written license.
  
 The following legend is applicable only to US Government
 contracts under FAR:
  
                    RESTRICTED RIGHTS LEGEND
  
 Use, reproduction and disclosure by the US Government is
 subject to restrictions as set forth in subparagraphs (a)
 and (c) of the Commercial Computer Software - Restricted
 Rights clause in FAR 52.227-19.
  
 Gaussian, Inc.
 340 Quinnipiac St., Bldg. 40, Wallingford CT 06492
  
  
 ---------------------------------------------------------------
 Warning -- This program may not be used in any manner that
 competes with the business of Gaussian, Inc. or will provide
 assistance to any competitor of Gaussian, Inc.  The licensee
 of this program is prohibited from giving any competitor of
 Gaussian, Inc. access to this program.  By using this program,
 the user acknowledges that Gaussian, Inc. is engaged in the
 business of creating and licensing software in the field of
 computational chemistry and represents and warrants to the
 licensee that it is not a competitor of Gaussian, Inc. and that
 it will not use this program in any manner prohibited above.
 ---------------------------------------------------------------
  

 Cite this work as:
 Gaussian 16, Revision B.01,
 M. J. Frisch, G. W. Trucks, H. B. Schlegel, G. E. Scuseria, 
 M. A. Robb, J. R. Cheeseman, G. Scalmani, V. Barone, 
 G. A. Petersson, H. Nakatsuji, X. Li, M. Caricato, A. V. Marenich, 
 J. Bloino, B. G. Janesko, R. Gomperts, B. Mennucci, H. P. Hratchian, 
 J. V. Ortiz, A. F. Izmaylov, J. L. Sonnenberg, D. Williams-Young, 
 F. Ding, F. Lipparini, F. Egidi, J. Goings, B. Peng, A. Petrone, 
 T. Henderson, D. Ranasinghe, V. G. Zakrzewski, J. Gao, N. Rega, 
 G. Zheng, W. Liang, M. Hada, M. Ehara, K. Toyota, R. Fukuda, 
 J. Hasegawa, M. Ishida, T. Nakajima, Y. Honda, O. Kitao, H. Nakai, 
 T. Vreven, K. Throssell, J. A. Montgomery, Jr., J. E. Peralta, 
 F. Ogliaro, M. J. Bearpark, J. J. Heyd, E. N. Brothers, K. N. Kudin, 
 V. N. Staroverov, T. A. Keith, R. Kobayashi, J. Normand, 
 K. Raghavachari, A. P. Rendell, J. C. Burant, S. S. Iyengar, 
 J. Tomasi, M. Cossi, J. M. Millam, M. Klene, C. Adamo, R. Cammi, 
 J. W. Ochterski, R. L. Martin, K. Morokuma, O. Farkas, 
 J. B. Foresman, and D. J. Fox, Gaussian, Inc., Wallingford CT, 2016.
 
 ******************************************
 Gaussian 16:  ES64L-G16RevB.01 20-Dec-2017
                10-Jul-2023 
 ******************************************
 %chk=42.chk
 %nprocshared=4
 Will use up to    4 processors via shared memory.
 %mem=8000mb
 ----------------------------------------------------------------------
 #T wB97XD/def2svpp opt=tight freq int(grid=ultrafine) scf=(verytight,q
 c)
 ----------------------------------------------------------------------
 --------------
 Comment gs min
 --------------
 Symbolic Z-matrix:
 Charge =  1 Multiplicity = 2
 C                    -0.14054   1.3556    1.26904 
 C                     0.00001   0.5408    0. 
 C                     0.14059   1.3556   -1.26902 
 N                     1.18933  -0.40396   0.18081 
 O                     2.17356  -0.19316  -0.48098 
 O                     1.05647  -1.25883   1.02156 
 N                    -1.18935  -0.40392  -0.18082 
 O                    -2.17355  -0.19315   0.48103 
 O                    -1.05654  -1.25873  -1.02163 
 H                     0.77581   1.95204   1.41025 
 H                    -0.28913   0.69972   2.13887 
 H                    -1.00032   2.03525   1.18083 
 H                     1.00039   2.03523  -1.18079 
 H                    -0.77574   1.95208  -1.41024 
 H                     0.28916   0.69973  -2.13885 
 

 GradGradGradGradGradGradGradGradGradGradGradGradGradGradGradGradGradGrad
 Initialization pass.
                           ----------------------------
                           !    Initial Parameters    !
                           ! (Angstroms and Degrees)  !
 --------------------------                            --------------------------
 ! Name  Definition              Value          Derivative Info.                !
 --------------------------------------------------------------------------------
 ! R1    R(1,2)                  1.5146         estimate D2E/DX2                !
 ! R2    R(1,10)                 1.1024         estimate D2E/DX2                !
 ! R3    R(1,11)                 1.0995         estimate D2E/DX2                !
 ! R4    R(1,12)                 1.0995         estimate D2E/DX2                !
 ! R5    R(2,3)                  1.5146         estimate D2E/DX2                !
 ! R6    R(2,4)                  1.5296         estimate D2E/DX2                !
 ! R7    R(2,7)                  1.5296         estimate D2E/DX2                !
 ! R8    R(3,13)                 1.0995         estimate D2E/DX2                !
 ! R9    R(3,14)                 1.1024         estimate D2E/DX2                !
 ! R10   R(3,15)                 1.0995         estimate D2E/DX2                !
 ! R11   R(4,5)                  1.2046         estimate D2E/DX2                !
 ! R12   R(4,6)                  1.2064         estimate D2E/DX2                !
 ! R13   R(7,8)                  1.2046         estimate D2E/DX2                !
 ! R14   R(7,9)                  1.2064         estimate D2E/DX2                !
 ! A1    A(2,1,10)             108.7376         estimate D2E/DX2                !
 ! A2    A(2,1,11)             110.7617         estimate D2E/DX2                !
 ! A3    A(2,1,12)             109.7475         estimate D2E/DX2                !
 ! A4    A(10,1,11)            109.4952         estimate D2E/DX2                !
 ! A5    A(10,1,12)            109.0151         estimate D2E/DX2                !
 ! A6    A(11,1,12)            109.0585         estimate D2E/DX2                !
 ! A7    A(1,2,3)              114.9109         estimate D2E/DX2                !
 ! A8    A(1,2,4)              107.7806         estimate D2E/DX2                !
 ! A9    A(1,2,7)              111.0473         estimate D2E/DX2                !
 ! A10   A(3,2,4)              111.0468         estimate D2E/DX2                !
 ! A11   A(3,2,7)              107.7809         estimate D2E/DX2                !
 ! A12   A(4,2,7)              103.714          estimate D2E/DX2                !
 ! A13   A(2,3,13)             109.7473         estimate D2E/DX2                !
 ! A14   A(2,3,14)             108.7376         estimate D2E/DX2                !
 ! A15   A(2,3,15)             110.7616         estimate D2E/DX2                !
 ! A16   A(13,3,14)            109.0153         estimate D2E/DX2                !
 ! A17   A(13,3,15)            109.0588         estimate D2E/DX2                !
 ! A18   A(14,3,15)            109.495          estimate D2E/DX2                !
 ! A19   A(2,4,5)              117.5326         estimate D2E/DX2                !
 ! A20   A(2,4,6)              115.749          estimate D2E/DX2                !
 ! A21   A(5,4,6)              126.6458         estimate D2E/DX2                !
 ! A22   A(2,7,8)              117.533          estimate D2E/DX2                !
 ! A23   A(2,7,9)              115.7485         estimate D2E/DX2                !
 ! A24   A(8,7,9)              126.6459         estimate D2E/DX2                !
 ! D1    D(10,1,2,3)           -62.5311         estimate D2E/DX2                !
 ! D2    D(10,1,2,4)            61.8551         estimate D2E/DX2                !
 ! D3    D(10,1,2,7)           174.8203         estimate D2E/DX2                !
 ! D4    D(11,1,2,3)           177.106          estimate D2E/DX2                !
 ! D5    D(11,1,2,4)           -58.5078         estimate D2E/DX2                !
 ! D6    D(11,1,2,7)            54.4574         estimate D2E/DX2                !
 ! D7    D(12,1,2,3)            56.6337         estimate D2E/DX2                !
 ! D8    D(12,1,2,4)          -178.9801         estimate D2E/DX2                !
 ! D9    D(12,1,2,7)           -66.0149         estimate D2E/DX2                !
 ! D10   D(1,2,3,13)            56.6329         estimate D2E/DX2                !
 ! D11   D(1,2,3,14)           -62.532          estimate D2E/DX2                !
 ! D12   D(1,2,3,15)           177.1054         estimate D2E/DX2                !
 ! D13   D(4,2,3,13)           -66.015          estimate D2E/DX2                !
 ! D14   D(4,2,3,14)           174.8201         estimate D2E/DX2                !
 ! D15   D(4,2,3,15)            54.4576         estimate D2E/DX2                !
 ! D16   D(7,2,3,13)          -178.9801         estimate D2E/DX2                !
 ! D17   D(7,2,3,14)            61.8551         estimate D2E/DX2                !
 ! D18   D(7,2,3,15)           -58.5075         estimate D2E/DX2                !
 ! D19   D(1,2,4,5)           -110.8701         estimate D2E/DX2                !
 ! D20   D(1,2,4,6)             66.2379         estimate D2E/DX2                !
 ! D21   D(3,2,4,5)             15.8109         estimate D2E/DX2                !
 ! D22   D(3,2,4,6)           -167.081          estimate D2E/DX2                !
 ! D23   D(7,2,4,5)            131.3238         estimate D2E/DX2                !
 ! D24   D(7,2,4,6)            -51.5682         estimate D2E/DX2                !
 ! D25   D(1,2,7,8)             15.8066         estimate D2E/DX2                !
 ! D26   D(1,2,7,9)           -167.0847         estimate D2E/DX2                !
 ! D27   D(3,2,7,8)           -110.8749         estimate D2E/DX2                !
 ! D28   D(3,2,7,9)             66.2337         estimate D2E/DX2                !
 ! D29   D(4,2,7,8)            131.3194         estimate D2E/DX2                !
 ! D30   D(4,2,7,9)            -51.572          estimate D2E/DX2                !
 --------------------------------------------------------------------------------
 Number of steps in this run=     78 maximum allowed number of steps=    100.
 GradGradGradGradGradGradGradGradGradGradGradGradGradGradGradGradGradGrad

                    Distance matrix (angstroms):
                    1          2          3          4          5
     1  C    0.000000
     2  C    1.514625   0.000000
     3  C    2.553576   1.514623   0.000000
     4  N    2.459437   1.529626   2.509564   0.000000
     5  O    3.288808   2.344009   2.674438   1.204621   0.000000
     6  O    2.886055   2.323439   3.594558   1.206367   2.154340
     7  N    2.509572   1.529624   2.459438   2.406014   3.382852
     8  O    2.674446   2.344013   3.288851   3.382829   4.452282
     9  O    3.594568   2.323432   2.886014   2.687085   3.444022
    10  H    1.102447   2.140623   2.817396   2.689469   3.183130
    11  H    1.099482   2.164160   3.496930   2.690341   3.704817
    12  H    1.099513   2.151367   2.786635   3.427002   4.219113
    13  H    2.786626   2.151363   1.099512   2.799871   2.613760
    14  H    2.817402   2.140621   1.102446   3.455985   3.763497
    15  H    3.496930   2.164157   1.099482   2.721998   2.663973
                    6          7          8          9         10
     6  O    0.000000
     7  N    2.687063   0.000000
     8  O    3.443963   1.204621   0.000000
     9  O    2.939291   1.206368   2.154342   0.000000
    10  H    3.246464   3.455991   3.763507   4.424998   0.000000
    11  H    2.625819   2.722009   2.663953   3.796470   1.798135
    12  H    3.886737   2.799882   2.613796   3.962867   1.792819
    13  H    3.962866   3.427001   4.219146   3.886702   2.602089
    14  H    4.424993   2.689470   3.183197   3.246409   3.219076
    15  H    3.796437   2.690339   3.704855   2.625767   3.794899
                   11         12         13         14         15
    11  H    0.000000
    12  H    1.790888   0.000000
    13  H    3.803497   3.095173   0.000000
    14  H    3.794906   2.602105   1.792819   0.000000
    15  H    4.316631   3.803506   1.790891   1.798132   0.000000
 Framework group  C1[X(C3H6N2O4)]
 Deg. of freedom    39
                         Standard orientation:                         
 ---------------------------------------------------------------------
 Center     Atomic      Atomic             Coordinates (Angstroms)
 Number     Number       Type             X           Y           Z
 ---------------------------------------------------------------------
      1          6           0        0.140540    1.355597   -1.269035
      2          6           0       -0.000006    0.540800   -0.000003
      3          6           0       -0.140593    1.355603    1.269018
      4          7           0       -1.189332   -0.403958   -0.180810
      5          8           0       -2.173561   -0.193157    0.480981
      6          8           0       -1.056472   -1.258830   -1.021561
      7          7           0        1.189350   -0.403915    0.180816
      8          8           0        2.173547   -0.193144   -0.481033
      9          8           0        1.056536   -1.258734    1.021630
     10          1           0       -0.775814    1.952039   -1.410250
     11          1           0        0.289129    0.699719   -2.138866
     12          1           0        1.000317    2.035252   -1.180826
     13          1           0       -1.000394    2.035225    1.180794
     14          1           0        0.775738    1.952078    1.410235
     15          1           0       -0.289159    0.699726    2.138854
 ---------------------------------------------------------------------
 Rotational constants (GHZ):           2.3308953           1.5468251           1.4407323
   138 basis functions,   249 primitive gaussians,   147 cartesian basis functions
    35 alpha electrons       34 beta electrons
       nuclear repulsion energy       506.8921668894 Hartrees.
 NAtoms=   15 NActive=   15 NUniq=   15 SFac= 1.00D+00 NAtFMM=   60 NAOKFM=F Big=F
 Nuclear repulsion after empirical dispersion term =      506.8837868398 Hartrees.
   1 Symmetry operations used in ECPInt.
 ECPInt:  NShTT=    2211 NPrTT=    8913 LenC2=    2192 LenP2D=    6939.
 LDataN:  DoStor=T MaxTD1= 4 Len=   56
 ExpMin= 1.22D-01 ExpMax= 2.27D+03 ExpMxC= 3.41D+02 IAcc=3 IRadAn=         5 AccDes= 0.00D+00
 Harris functional with IExCor= 4639 and IRadAn=       5 diagonalized for initial guess.
 HarFok:  IExCor= 4639 AccDes= 0.00D+00 IRadAn=         5 IDoV= 1 UseB2=F ITyADJ=14
 ICtDFT=  3500011 ScaDFX=  1.000000  1.000000  1.000000  1.000000
 FoFCou: FMM=F IPFlag=           0 FMFlag=      100000 FMFlg1=           0
         NFxFlg=           0 DoJE=T BraDBF=F KetDBF=T FulRan=T
         wScrn=  0.000000 ICntrl=       500 IOpCl=  0 I1Cent=   200000004 NGrid=           0
         NMat0=    1 NMatS0=      1 NMatT0=    0 NMatD0=    1 NMtDS0=    0 NMtDT0=    0
 Petite list used in FoFCou.
 Initial guess <Sx>= 0.0000 <Sy>= 0.0000 <Sz>= 0.5000 <S**2>= 0.7500 S= 0.5000
     Accept linear search using points  3 and  4.
     Accept linear search using points  1 and  2.
     Accept linear search using points  1 and  2.
     Accept linear search using points  1 and  2.
     Minimum is close to point  2 DX=  2.85D-03 DF= -7.95D-11 DXR=  2.84D-03 DFR=  8.10D-06 which will be used.
 SCF Done:  E(UwB97XD) =  -527.142755974     a.u. after   10 cycles
            Convg  =    0.7833D-07                    80 Fock formations.
              S**2 =  0.7738                  -V/T =  2.0067
 <Sx>= 0.0000 <Sy>= 0.0000 <Sz>= 0.5000 <S**2>= 0.7738 S= 0.5118
 <L.S>=  0.00000000000    
 Annihilation of the first spin contaminant:
 S**2 before annihilation     0.7738,   after     0.7504

 **********************************************************************

            Population analysis using the SCF Density.

 **********************************************************************

 Orbital symmetries:
 Alpha Orbitals:
       Occupied  (A) (A) (A) (A) (A) (A) (A) (A) (A) (A) (A) (A)
                 (A) (A) (A) (A) (A) (A) (A) (A) (A) (A) (A) (A)
                 (A) (A) (A) (A) (A) (A) (A) (A) (A) (A) (A)
       Virtual   (A) (A) (A) (A) (A) (A) (A) (A) (A) (A) (A) (A)
                 (A) (A) (A) (A) (A) (A) (A) (A) (A) (A) (A) (A)
                 (A) (A) (A) (A) (A) (A) (A) (A) (A) (A) (A) (A)
                 (A) (A) (A) (A) (A) (A) (A) (A) (A) (A) (A) (A)
                 (A) (A) (A) (A) (A) (A) (A) (A) (A) (A) (A) (A)
                 (A) (A) (A) (A) (A) (A) (A) (A) (A) (A) (A) (A)
                 (A) (A) (A) (A) (A) (A) (A) (A) (A) (A) (A) (A)
                 (A) (A) (A) (A) (A) (A) (A) (A) (A) (A) (A) (A)
                 (A) (A) (A) (A) (A) (A) (A)
 Beta  Orbitals:
       Occupied  (A) (A) (A) (A) (A) (A) (A) (A) (A) (A) (A) (A)
                 (A) (A) (A) (A) (A) (A) (A) (A) (A) (A) (A) (A)
                 (A) (A) (A) (A) (A) (A) (A) (A) (A) (A)
       Virtual   (A) (A) (A) (A) (A) (A) (A) (A) (A) (A) (A) (A)
                 (A) (A) (A) (A) (A) (A) (A) (A) (A) (A) (A) (A)
                 (A) (A) (A) (A) (A) (A) (A) (A) (A) (A) (A) (A)
                 (A) (A) (A) (A) (A) (A) (A) (A) (A) (A) (A) (A)
                 (A) (A) (A) (A) (A) (A) (A) (A) (A) (A) (A) (A)
                 (A) (A) (A) (A) (A) (A) (A) (A) (A) (A) (A) (A)
                 (A) (A) (A) (A) (A) (A) (A) (A) (A) (A) (A) (A)
                 (A) (A) (A) (A) (A) (A) (A) (A) (A) (A) (A) (A)
                 (A) (A) (A) (A) (A) (A) (A) (A)
 The electronic state is 2-A.
 Alpha  occ. eigenvalues --  -19.61126 -19.61126 -19.55592 -19.55587 -14.94770
 Alpha  occ. eigenvalues --  -14.94768 -10.66375 -10.51587 -10.51583  -1.62684
 Alpha  occ. eigenvalues --   -1.61478  -1.44810  -1.44340  -1.22948  -1.05788
 Alpha  occ. eigenvalues --   -1.03818  -1.02671  -0.93470  -0.92812  -0.90288
 Alpha  occ. eigenvalues --   -0.88446  -0.86772  -0.86673  -0.80983  -0.74457
 Alpha  occ. eigenvalues --   -0.73937  -0.72798  -0.70872  -0.69005  -0.68746
 Alpha  occ. eigenvalues --   -0.67265  -0.66810  -0.66384  -0.63899  -0.63682
 Alpha virt. eigenvalues --   -0.25516  -0.25054  -0.06477  -0.04296  -0.03413
 Alpha virt. eigenvalues --    0.01990   0.02562   0.03437   0.04811   0.05191
 Alpha virt. eigenvalues --    0.06751   0.07524   0.12414   0.12521   0.20233
 Alpha virt. eigenvalues --    0.24387   0.27156   0.31604   0.33300   0.34836
 Alpha virt. eigenvalues --    0.35677   0.37036   0.39677   0.47575   0.48922
 Alpha virt. eigenvalues --    0.51244   0.53431   0.54133   0.55832   0.57769
 Alpha virt. eigenvalues --    0.58726   0.60262   0.60268   0.61105   0.62042
 Alpha virt. eigenvalues --    0.68687   0.70101   0.74075   0.74342   0.77042
 Alpha virt. eigenvalues --    0.78042   0.78472   0.82719   0.84567   0.86364
 Alpha virt. eigenvalues --    0.88354   0.91597   0.92898   0.94370   0.96918
 Alpha virt. eigenvalues --    1.01236   1.02177   1.04586   1.19701   1.22640
 Alpha virt. eigenvalues --    1.23937   1.28746   1.31445   1.36106   1.50689
 Alpha virt. eigenvalues --    1.55538   1.58707   1.60092   1.62700   1.67315
 Alpha virt. eigenvalues --    1.71784   1.85322   1.88308   1.89740   1.95665
 Alpha virt. eigenvalues --    1.96005   2.00767   2.04160   2.11071   2.14886
 Alpha virt. eigenvalues --    2.18939   2.24564   2.24716   2.26111   2.30973
 Alpha virt. eigenvalues --    2.37718   2.39891   2.41275   2.43551   2.44380
 Alpha virt. eigenvalues --    2.47960   2.49570   2.52558   2.52609   2.57826
 Alpha virt. eigenvalues --    2.64206   2.85965   2.90181   2.96345   3.02622
 Alpha virt. eigenvalues --    3.13872   3.13889   3.22896   3.25540   3.55747
 Alpha virt. eigenvalues --    3.56090   3.60106   3.63214
  Beta  occ. eigenvalues --  -19.59895 -19.59894 -19.55667 -19.55662 -14.94747
  Beta  occ. eigenvalues --  -14.94745 -10.66283 -10.51581 -10.51578  -1.61673
  Beta  occ. eigenvalues --   -1.60332  -1.43439  -1.43128  -1.22250  -1.04170
  Beta  occ. eigenvalues --   -1.03503  -1.02287  -0.92075  -0.91451  -0.89738
  Beta  occ. eigenvalues --   -0.87750  -0.85604  -0.85535  -0.80110  -0.74185
  Beta  occ. eigenvalues --   -0.72230  -0.71679  -0.70152  -0.67191  -0.66427
  Beta  occ. eigenvalues --   -0.65800  -0.63764  -0.63647  -0.60089
  Beta virt. eigenvalues --   -0.43686  -0.25113  -0.24726  -0.05736  -0.03781
  Beta virt. eigenvalues --   -0.03358   0.02066   0.02703   0.03711   0.04981
  Beta virt. eigenvalues --    0.05254   0.06881   0.07716   0.13146   0.13201
  Beta virt. eigenvalues --    0.21082   0.25058   0.27280   0.31970   0.33479
  Beta virt. eigenvalues --    0.35017   0.35765   0.37230   0.40347   0.48004
  Beta virt. eigenvalues --    0.49030   0.51390   0.53791   0.54191   0.55871
  Beta virt. eigenvalues --    0.57841   0.59015   0.60305   0.60318   0.61478
  Beta virt. eigenvalues --    0.62504   0.68922   0.70514   0.74754   0.75132
  Beta virt. eigenvalues --    0.77860   0.78203   0.78761   0.83038   0.85126
  Beta virt. eigenvalues --    0.87285   0.89163   0.91765   0.93253   0.94658
  Beta virt. eigenvalues --    0.97563   1.01838   1.03520   1.04958   1.19866
  Beta virt. eigenvalues --    1.23228   1.24248   1.29661   1.31765   1.36647
  Beta virt. eigenvalues --    1.50860   1.56111   1.58962   1.60185   1.62878
  Beta virt. eigenvalues --    1.67736   1.71920   1.85577   1.88425   1.89904
  Beta virt. eigenvalues --    1.95814   1.96432   2.00854   2.04241   2.11501
  Beta virt. eigenvalues --    2.15226   2.20226   2.25210   2.25228   2.26778
  Beta virt. eigenvalues --    2.31603   2.40201   2.41624   2.43588   2.45401
  Beta virt. eigenvalues --    2.45989   2.48793   2.50174   2.52695   2.52956
  Beta virt. eigenvalues --    2.58829   2.65391   2.86412   2.90655   2.97499
  Beta virt. eigenvalues --    3.03790   3.14237   3.14444   3.24085   3.26576
  Beta virt. eigenvalues --    3.56644   3.57048   3.60903   3.63914
          Condensed to atoms (all electrons):
          Atomic-Atomic Spin Densities.
 Mulliken charges and spin densities:
               1          2
     1  C   -0.246878   0.001303
     2  C   -0.158728   0.055470
     3  C   -0.246882   0.001302
     4  N    0.253024  -0.000816
     5  O    0.032286   0.502108
     6  O   -0.088237  -0.033530
     7  N    0.253022  -0.000816
     8  O    0.032288   0.502109
     9  O   -0.088237  -0.033532
    10  H    0.207107  -0.000538
    11  H    0.207717  -0.000023
    12  H    0.214346   0.003762
    13  H    0.214345   0.003762
    14  H    0.207108  -0.000538
    15  H    0.207718  -0.000023
 Sum of Mulliken charges =   1.00000   1.00000
 Mulliken charges and spin densities with hydrogens summed into heavy atoms:
               1          2
     1  C    0.382292   0.004504
     2  C   -0.158728   0.055470
     3  C    0.382289   0.004503
     4  N    0.253024  -0.000816
     5  O    0.032286   0.502108
     6  O   -0.088237  -0.033530
     7  N    0.253022  -0.000816
     8  O    0.032288   0.502109
     9  O   -0.088237  -0.033532
 Electronic spatial extent (au):  <R**2>=            960.2476
 Charge=              1.0000 electrons
 Dipole moment (field-independent basis, Debye):
    X=             -0.0001    Y=              3.7574    Z=             -0.0001  Tot=              3.7574
                          Isotropic Fermi Contact Couplings
        Atom                 a.u.       MegaHertz       Gauss      10(-4) cm-1
     1  C(13)              0.00425       4.78040       1.70577       1.59457
     2  C(13)             -0.04963     -55.79556     -19.90924     -18.61140
     3  C(13)              0.00425       4.78059       1.70583       1.59463
     4  N(14)             -0.01921      -6.20563      -2.21432      -2.06998
     5  O(17)              0.16806    -101.87588     -36.35185     -33.98214
     6  O(17)             -0.03625      21.97318       7.84058       7.32946
     7  N(14)             -0.01921      -6.20584      -2.21440      -2.07004
     8  O(17)              0.16806    -101.87634     -36.35201     -33.98229
     9  O(17)             -0.03625      21.97364       7.84074       7.32962
    10  H(1)              -0.00010      -0.44959      -0.16043      -0.14997
    11  H(1)              -0.00011      -0.48681      -0.17370      -0.16238
    12  H(1)               0.00102       4.54612       1.62217       1.51642
    13  H(1)               0.00102       4.54543       1.62192       1.51619
    14  H(1)              -0.00010      -0.44930      -0.16032      -0.14987
    15  H(1)              -0.00011      -0.48723      -0.17386      -0.16252
 --------------------------------------------------------
       Center         ----  Spin Dipole Couplings  ----
                      3XX-RR        3YY-RR        3ZZ-RR
 --------------------------------------------------------
     1   Atom        0.001149      0.001765     -0.002914
     2   Atom        0.193385     -0.121295     -0.072090
     3   Atom        0.001149      0.001764     -0.002913
     4   Atom        0.062369     -0.016807     -0.045562
     5   Atom       -0.139878      0.755812     -0.615934
     6   Atom        0.005597      0.048059     -0.053656
     7   Atom        0.062370     -0.016810     -0.045559
     8   Atom       -0.139814      0.755736     -0.615922
     9   Atom        0.005595      0.048026     -0.053621
    10   Atom       -0.000457      0.001075     -0.000619
    11   Atom        0.001504     -0.005640      0.004137
    12   Atom       -0.001581      0.005685     -0.004104
    13   Atom       -0.001581      0.005685     -0.004104
    14   Atom       -0.000457      0.001076     -0.000619
    15   Atom        0.001503     -0.005640      0.004137
 --------------------------------------------------------
                        XY            XZ            YZ
 --------------------------------------------------------
     1   Atom       -0.000552     -0.001642     -0.009443
     2   Atom        0.000006     -0.058513     -0.000001
     3   Atom        0.000552     -0.001643      0.009443
     4   Atom        0.056483      0.000986      0.011671
     5   Atom        1.133254      0.588599      0.545334
     6   Atom        0.038165     -0.104426      0.273437
     7   Atom       -0.056480      0.000986     -0.011670
     8   Atom       -1.133246      0.588651     -0.545361
     9   Atom       -0.038182     -0.104427     -0.273451
    10   Atom       -0.000962     -0.000095     -0.004638
    11   Atom       -0.002101      0.002835     -0.002749
    12   Atom       -0.003166      0.000094     -0.004429
    13   Atom        0.003166      0.000094      0.004429
    14   Atom        0.000962     -0.000095      0.004638
    15   Atom        0.002101      0.002835      0.002749
 --------------------------------------------------------


 ---------------------------------------------------------------------------------
              Anisotropic Spin Dipole Couplings in Principal Axis System
 ---------------------------------------------------------------------------------

       Atom             a.u.   MegaHertz   Gauss  10(-4) cm-1        Axes

              Baa    -0.0105    -1.413    -0.504    -0.471  0.1387  0.6071  0.7824
     1 C(13)  Bbb     0.0013     0.179     0.064     0.060  0.9877 -0.1429 -0.0642
              Bcc     0.0092     1.234     0.440     0.412  0.0728  0.7817 -0.6194
 
              Baa    -0.1213   -16.277    -5.808    -5.429 -0.0000  1.0000 -0.0000
     2 C(13)  Bbb    -0.0844   -11.328    -4.042    -3.779  0.2061  0.0000  0.9785
              Bcc     0.2057    27.604     9.850     9.208  0.9785  0.0000 -0.2061
 
              Baa    -0.0105    -1.413    -0.504    -0.471  0.1387 -0.6071  0.7824
     3 C(13)  Bbb     0.0013     0.179     0.064     0.060  0.9877  0.1429 -0.0642
              Bcc     0.0092     1.234     0.440     0.412 -0.0728  0.7816  0.6195
 
              Baa    -0.0559    -2.156    -0.769    -0.719  0.3029 -0.6465  0.7002
     4 N(14)  Bbb    -0.0361    -1.393    -0.497    -0.465 -0.3544  0.6056  0.7125
              Bcc     0.0920     3.550     1.267     1.184  0.8847  0.4640  0.0457
 
              Baa    -1.0637    76.968    27.464    25.674  0.7261 -0.2617 -0.6358
     5 O(17)  Bbb    -0.7190    52.027    18.564    17.354  0.4106 -0.5767  0.7063
              Bcc     1.7827  -128.994   -46.028   -43.028  0.5515  0.7739  0.3113
 
              Baa    -0.3153    22.818     8.142     7.611  0.3122 -0.5919  0.7431
     6 O(17)  Bbb     0.0345    -2.499    -0.892    -0.834  0.9389  0.3113 -0.1464
              Bcc     0.2808   -20.318    -7.250    -6.777 -0.1447  0.7434  0.6530
 
              Baa    -0.0559    -2.156    -0.769    -0.719  0.3029  0.6465  0.7002
     7 N(14)  Bbb    -0.0361    -1.393    -0.497    -0.465 -0.3544 -0.6056  0.7125
              Bcc     0.0920     3.550     1.267     1.184  0.8847 -0.4639  0.0457
 
              Baa    -1.0637    76.968    27.464    25.674  0.7261  0.2617 -0.6359
     8 O(17)  Bbb    -0.7190    52.026    18.564    17.354  0.4106  0.5767  0.7062
              Bcc     1.7827  -128.994   -46.028   -43.028 -0.5515  0.7739 -0.3113
 
              Baa    -0.3153    22.818     8.142     7.611  0.3122  0.5920  0.7430
     9 O(17)  Bbb     0.0345    -2.500    -0.892    -0.834  0.9389 -0.3113 -0.1465
              Bcc     0.2808   -20.319    -7.250    -6.778  0.1446  0.7434 -0.6530
 
              Baa    -0.0046    -2.456    -0.876    -0.819  0.1658  0.6406  0.7498
    10 H(1)   Bbb    -0.0004    -0.227    -0.081    -0.076  0.9784 -0.0115 -0.2066
              Bcc     0.0050     2.683     0.957     0.895 -0.1237  0.7678 -0.6286
 
              Baa    -0.0066    -3.522    -1.257    -1.175  0.1801  0.9633  0.1991
    11 H(1)   Bbb    -0.0003    -0.157    -0.056    -0.052  0.8301 -0.0402 -0.5561
              Bcc     0.0069     3.679     1.313     1.227  0.5277 -0.2654  0.8069
 
              Baa    -0.0061    -3.253    -1.161    -1.085  0.2626  0.4006  0.8778
    12 H(1)   Bbb    -0.0022    -1.176    -0.420    -0.392  0.9198  0.1709 -0.3531
              Bcc     0.0083     4.429     1.581     1.477 -0.2915  0.9002 -0.3236
 
              Baa    -0.0061    -3.253    -1.161    -1.085  0.2626 -0.4006  0.8778
    13 H(1)   Bbb    -0.0022    -1.176    -0.420    -0.392  0.9198 -0.1709 -0.3531
              Bcc     0.0083     4.430     1.581     1.478  0.2914  0.9002  0.3236
 
              Baa    -0.0046    -2.456    -0.876    -0.819  0.1658 -0.6406  0.7498
    14 H(1)   Bbb    -0.0004    -0.227    -0.081    -0.076  0.9784  0.0115 -0.2066
              Bcc     0.0050     2.683     0.957     0.895  0.1238  0.7678  0.6286
 
              Baa    -0.0066    -3.522    -1.257    -1.175 -0.1801  0.9633 -0.1991
    15 H(1)   Bbb    -0.0003    -0.157    -0.056    -0.052  0.8301  0.0402 -0.5561
              Bcc     0.0069     3.679     1.313     1.227  0.5277  0.2654  0.8069
 

 ---------------------------------------------------------------------------------

   1 Symmetry operations used in ECPInt.
 ECPInt:  NShTT=    2211 NPrTT=    8913 LenC2=    2192 LenP2D=    6939.
 LDataN:  DoStor=T MaxTD1= 5 Len=  102
 Calling FoFJK, ICntrl=      2127 FMM=F ISym2X=0 I1Cent= 0 IOpClX= 1 NMat=1 NMatS=1 NMatT=0.

 GradGradGradGradGradGradGradGradGradGradGradGradGradGradGradGradGradGrad
 FormGI is forming the generalized inverse of G from B-inverse, IUseBI=4.
 Internal  Forces:  Max     0.021251153 RMS     0.006471017
 Step number   1 out of a maximum of   78
 All quantities printed in internal units (Hartrees-Bohrs-Radians)
 Mixed Optimization -- RFO/linear search
 Second derivative matrix not updated -- first step.
 ITU=  0
     Eigenvalues ---    0.00230   0.00230   0.00244   0.00244   0.00572
     Eigenvalues ---    0.00573   0.04304   0.05524   0.05789   0.05789
     Eigenvalues ---    0.05984   0.05984   0.07270   0.15455   0.16000
     Eigenvalues ---    0.16000   0.16000   0.16000   0.16000   0.16000
     Eigenvalues ---    0.16189   0.25000   0.25000   0.25000   0.25000
     Eigenvalues ---    0.29458   0.29458   0.30890   0.30890   0.33413
     Eigenvalues ---    0.33413   0.33736   0.33736   0.33739   0.33739
     Eigenvalues ---    1.01687   1.01688   1.02535   1.02535
 Linear search not attempted -- first point.
 Iteration  1 RMS(Cart)=  0.04624503 RMS(Int)=  0.00106349
 Iteration  2 RMS(Cart)=  0.00123833 RMS(Int)=  0.00050620
 Iteration  3 RMS(Cart)=  0.00000081 RMS(Int)=  0.00050620
 Variable       Old X    -DE/DX   Delta X   Delta X   Delta X     New X
                                 (Linear)    (Quad)   (Total)
    R1        2.86223   0.00517   0.00000   0.01620   0.01620   2.87842
    R2        2.08332  -0.00023   0.00000  -0.00066  -0.00066   2.08266
    R3        2.07772   0.00145   0.00000   0.00417   0.00417   2.08189
    R4        2.07778   0.00046   0.00000   0.00131   0.00131   2.07909
    R5        2.86222   0.00517   0.00000   0.01620   0.01620   2.87842
    R6        2.89057   0.01468   0.00000   0.04814   0.04814   2.93871
    R7        2.89057   0.01468   0.00000   0.04814   0.04814   2.93871
    R8        2.07778   0.00046   0.00000   0.00131   0.00131   2.07909
    R9        2.08332  -0.00023   0.00000  -0.00066  -0.00066   2.08266
   R10        2.07772   0.00145   0.00000   0.00417   0.00417   2.08189
   R11        2.27640   0.00470   0.00000   0.00453   0.00453   2.28094
   R12        2.27970  -0.02125   0.00000  -0.02069  -0.02069   2.25902
   R13        2.27640   0.00470   0.00000   0.00453   0.00453   2.28094
   R14        2.27970  -0.02125   0.00000  -0.02069  -0.02069   2.25902
    A1        1.89783   0.00027   0.00000  -0.00218  -0.00224   1.89559
    A2        1.93316   0.00245   0.00000   0.01919   0.01914   1.95230
    A3        1.91545  -0.00089   0.00000  -0.00612  -0.00619   1.90926
    A4        1.91105  -0.00104   0.00000  -0.00405  -0.00408   1.90698
    A5        1.90267  -0.00114   0.00000  -0.01648  -0.01657   1.88610
    A6        1.90343   0.00028   0.00000   0.00901   0.00895   1.91238
    A7        2.00557  -0.00348   0.00000   0.00667   0.00614   2.01171
    A8        1.88113  -0.00255   0.00000  -0.01543  -0.01508   1.86605
    A9        1.93814   0.00835   0.00000   0.05148   0.05066   1.98881
   A10        1.93813   0.00835   0.00000   0.05149   0.05068   1.98881
   A11        1.88113  -0.00255   0.00000  -0.01543  -0.01507   1.86606
   A12        1.81015  -0.00840   0.00000  -0.08707  -0.08608   1.72407
   A13        1.91545  -0.00089   0.00000  -0.00612  -0.00619   1.90926
   A14        1.89783   0.00027   0.00000  -0.00218  -0.00224   1.89559
   A15        1.93315   0.00245   0.00000   0.01919   0.01914   1.95230
   A16        1.90268  -0.00114   0.00000  -0.01648  -0.01657   1.88610
   A17        1.90344   0.00028   0.00000   0.00901   0.00894   1.91238
   A18        1.91105  -0.00104   0.00000  -0.00405  -0.00408   1.90697
   A19        2.05133  -0.01727   0.00000  -0.06637  -0.06637   1.98496
   A20        2.02020   0.01094   0.00000   0.04198   0.04198   2.06218
   A21        2.21039   0.00632   0.00000   0.02426   0.02426   2.23465
   A22        2.05134  -0.01727   0.00000  -0.06637  -0.06637   1.98497
   A23        2.02019   0.01094   0.00000   0.04199   0.04199   2.06218
   A24        2.21039   0.00632   0.00000   0.02426   0.02426   2.23464
    D1       -1.09137  -0.00146   0.00000  -0.01504  -0.01444  -1.10582
    D2        1.07958   0.00503   0.00000   0.04504   0.04488   1.12446
    D3        3.05119  -0.00209   0.00000  -0.04055  -0.04104   3.01015
    D4        3.09108  -0.00185   0.00000  -0.02046  -0.01983   3.07125
    D5       -1.02115   0.00463   0.00000   0.03962   0.03949  -0.98166
    D6        0.95046  -0.00248   0.00000  -0.04597  -0.04644   0.90403
    D7        0.98844  -0.00320   0.00000  -0.03997  -0.03935   0.94910
    D8       -3.12379   0.00328   0.00000   0.02011   0.01998  -3.10381
    D9       -1.15218  -0.00383   0.00000  -0.06548  -0.06595  -1.21813
   D10        0.98843  -0.00320   0.00000  -0.03996  -0.03934   0.94909
   D11       -1.09139  -0.00145   0.00000  -0.01503  -0.01443  -1.10582
   D12        3.09107  -0.00185   0.00000  -0.02045  -0.01983   3.07124
   D13       -1.15218  -0.00383   0.00000  -0.06549  -0.06595  -1.21813
   D14        3.05119  -0.00209   0.00000  -0.04055  -0.04104   3.01014
   D15        0.95046  -0.00248   0.00000  -0.04597  -0.04644   0.90403
   D16       -3.12379   0.00328   0.00000   0.02010   0.01997  -3.10382
   D17        1.07957   0.00503   0.00000   0.04503   0.04488   1.12445
   D18       -1.02115   0.00463   0.00000   0.03961   0.03948  -0.98167
   D19       -1.93505   0.00189   0.00000   0.01478   0.01552  -1.91953
   D20        1.15607   0.00186   0.00000   0.01307   0.01381   1.16988
   D21        0.27595   0.00136   0.00000   0.04754   0.04814   0.32409
   D22       -2.91611   0.00133   0.00000   0.04583   0.04643  -2.86969
   D23        2.29203  -0.00238   0.00000   0.00570   0.00436   2.29639
   D24       -0.90004  -0.00240   0.00000   0.00399   0.00265  -0.89739
   D25        0.27588   0.00136   0.00000   0.04756   0.04816   0.32404
   D26       -2.91618   0.00133   0.00000   0.04582   0.04642  -2.86976
   D27       -1.93513   0.00189   0.00000   0.01481   0.01555  -1.91958
   D28        1.15600   0.00186   0.00000   0.01307   0.01381   1.16980
   D29        2.29196  -0.00238   0.00000   0.00572   0.00438   2.29633
   D30       -0.90010  -0.00240   0.00000   0.00398   0.00264  -0.89747
         Item               Value     Threshold  Converged?
 Maximum Force            0.021251     0.000015     NO 
 RMS     Force            0.006471     0.000010     NO 
 Maximum Displacement     0.110149     0.000060     NO 
 RMS     Displacement     0.046418     0.000040     NO 
 GradGradGradGradGradGradGradGradGradGradGradGradGradGradGradGradGradGrad

                    Distance matrix (angstroms):
                    1          2          3          4          5
     1  C    0.000000
     2  C    1.523196   0.000000
     3  C    2.573047   1.523196   0.000000
     4  N    2.473253   1.555099   2.581008   0.000000
     5  O    3.258169   2.320770   2.704397   1.207020   0.000000
     6  O    2.932829   2.366788   3.656374   1.195420   2.159634
     7  N    2.581003   1.555097   2.473256   2.361165   3.320719
     8  O    2.704382   2.320770   3.258201   3.320695   4.377395
     9  O    3.656377   2.366786   2.932798   2.646897   3.393111
    10  H    1.102096   2.146191   2.841391   2.716558   3.155175
    11  H    1.101690   2.187097   3.525213   2.694607   3.678899
    12  H    1.100205   2.154868   2.784534   3.443366   4.188085
    13  H    2.784533   2.154869   1.100205   2.902982   2.686199
    14  H    2.841395   2.146191   1.102096   3.512102   3.787957
    15  H    3.525212   2.187096   1.101690   2.800951   2.709287
                    6          7          8          9         10
     6  O    0.000000
     7  N    2.646860   0.000000
     8  O    3.393044   1.207020   0.000000
     9  O    2.879957   1.195420   2.159633   0.000000
    10  H    3.307088   3.512097   3.787944   4.471307   0.000000
    11  H    2.675468   2.800945   2.709249   3.862169   1.797054
    12  H    3.932572   2.902973   2.686196   4.056736   1.782443
    13  H    4.056752   3.443369   4.188108   3.932551   2.608736
    14  H    4.471301   2.716558   3.155222   3.307037   3.254555
    15  H    3.862148   2.694614   3.678935   2.675433   3.818124
                   11         12         13         14         15
    11  H    0.000000
    12  H    1.798948   0.000000
    13  H    3.815894   3.051779   0.000000
    14  H    3.818128   2.608742   1.782443   0.000000
    15  H    4.360396   3.815894   1.798948   1.797052   0.000000
 Framework group  C1[X(C3H6N2O4)]
 Deg. of freedom    39
                         Standard orientation:                         
 ---------------------------------------------------------------------
 Center     Atomic      Atomic             Coordinates (Angstroms)
 Number     Number       Type             X           Y           Z
 ---------------------------------------------------------------------
      1          6           0        0.077791    1.395417   -1.284179
      2          6           0       -0.000009    0.579964   -0.000003
      3          6           0       -0.077833    1.395441    1.284157
      4          7           0       -1.167271   -0.432258   -0.176749
      5          8           0       -2.127516   -0.191779    0.513901
      6          8           0       -1.044272   -1.298417   -0.991407
      7          7           0        1.167281   -0.432221    0.176754
      8          8           0        2.127494   -0.191765   -0.513949
      9          8           0        1.044341   -1.298324    0.991481
     10          1           0       -0.851290    1.979264   -1.386876
     11          1           0        0.203515    0.753525   -2.170683
     12          1           0        0.918933    2.101514   -1.218152
     13          1           0       -0.918989    2.101518    1.218114
     14          1           0        0.851235    1.979310    1.386846
     15          1           0       -0.203542    0.753562    2.170671
 ---------------------------------------------------------------------
 Rotational constants (GHZ):           2.2454155           1.5895155           1.4455849
   138 basis functions,   249 primitive gaussians,   147 cartesian basis functions
    35 alpha electrons       34 beta electrons
       nuclear repulsion energy       505.9845251969 Hartrees.
 NAtoms=   15 NActive=   15 NUniq=   15 SFac= 1.00D+00 NAtFMM=   60 NAOKFM=F Big=F
 Nuclear repulsion after empirical dispersion term =      505.9761287942 Hartrees.
   1 Symmetry operations used in ECPInt.
 ECPInt:  NShTT=    2211 NPrTT=    8913 LenC2=    2192 LenP2D=    6930.
 LDataN:  DoStor=T MaxTD1= 4 Len=   56
 Initial guess from the checkpoint file:  "42.chk"
 B after Tr=     0.000000    0.000000   -0.000000
         Rot=    0.999941    0.000001   -0.010844    0.000001 Ang=   1.24 deg.
 Initial guess <Sx>= 0.0000 <Sy>= 0.0000 <Sz>= 0.5000 <S**2>= 0.7731 S= 0.5115
 ExpMin= 1.22D-01 ExpMax= 2.27D+03 ExpMxC= 3.41D+02 IAcc=3 IRadAn=         5 AccDes= 0.00D+00
 Harris functional with IExCor= 4639 and IRadAn=       5 diagonalized for initial guess.
 HarFok:  IExCor= 4639 AccDes= 0.00D+00 IRadAn=         5 IDoV= 1 UseB2=F ITyADJ=14
 ICtDFT=  3500011 ScaDFX=  1.000000  1.000000  1.000000  1.000000
 FoFCou: FMM=F IPFlag=           0 FMFlag=      100000 FMFlg1=           0
         NFxFlg=           0 DoJE=T BraDBF=F KetDBF=T FulRan=T
         wScrn=  0.000000 ICntrl=       500 IOpCl=  0 I1Cent=   200000004 NGrid=           0
         NMat0=    1 NMatS0=      1 NMatT0=    0 NMatD0=    1 NMtDS0=    0 NMtDT0=    0
 Petite list used in FoFCou.
     Accept linear search using points  3 and  4.
     Minimum is close to point  4 DX= -5.22D-02 DF= -1.52D-06 DXR=  4.55D-02 DFR=  4.50D-04 which will be used.
     Minimum is close to point  2 DX=  5.04D-02 DF= -9.40D-07 DXR=  4.80D-02 DFR=  2.31D-03 which will be used.
     Accept linear search using points  1 and  2.
     Minimum is close to point  2 DX= -7.79D-02 DF= -1.71D-06 DXR=  8.44D-02 DFR=  7.18D-03 which will be used.
     Accept linear search using points  1 and  2.
     Accept linear search using points  1 and  2.
     Accept linear search using points  1 and  2.
     Accept linear search using points  1 and  2.
     Minimum is close to point  2 DX= -4.95D-02 DF= -2.17D-06 DXR=  5.21D-02 DFR=  2.86D-03 which will be used.
     Minimum is close to point  2 DX=  1.53D-03 DF= -7.47D-11 DXR=  1.52D-03 DFR=  2.32D-06 which will be used.
 SCF Done:  E(UwB97XD) =  -527.150072894     a.u. after   13 cycles
            Convg  =    0.5289D-07                    82 Fock formations.
              S**2 =  0.7688                  -V/T =  2.0068
 <Sx>= 0.0000 <Sy>= 0.0000 <Sz>= 0.5000 <S**2>= 0.7688 S= 0.5094
 <L.S>=  0.00000000000    
 Annihilation of the first spin contaminant:
 S**2 before annihilation     0.7688,   after     0.7502
   1 Symmetry operations used in ECPInt.
 ECPInt:  NShTT=    2211 NPrTT=    8913 LenC2=    2192 LenP2D=    6930.
 LDataN:  DoStor=T MaxTD1= 5 Len=  102
 Calling FoFJK, ICntrl=      2127 FMM=F ISym2X=0 I1Cent= 0 IOpClX= 1 NMat=1 NMatS=1 NMatT=0.

 GradGradGradGradGradGradGradGradGradGradGradGradGradGradGradGradGradGrad
 Using GEDIIS/GDIIS optimizer.
 FormGI is forming the generalized inverse of G from B-inverse, IUseBI=4.
 Internal  Forces:  Max     0.015099922 RMS     0.004370828
 Step number   2 out of a maximum of   78
 All quantities printed in internal units (Hartrees-Bohrs-Radians)
 Mixed Optimization -- RFO/linear search
 Trust test= 1.31D+00 RLast= 2.70D-01 DXMaxT set to 5.05D-01
 ITU=  1  0
 Use linear search instead of GDIIS.
     Eigenvalues ---    0.00230   0.00232   0.00246   0.00246   0.00572
     Eigenvalues ---    0.00572   0.03930   0.05283   0.05651   0.05664
     Eigenvalues ---    0.05971   0.06037   0.07962   0.11416   0.15954
     Eigenvalues ---    0.16000   0.16000   0.16000   0.16000   0.16165
     Eigenvalues ---    0.16757   0.18731   0.25000   0.25000   0.27182
     Eigenvalues ---    0.28552   0.29458   0.30890   0.33379   0.33413
     Eigenvalues ---    0.33621   0.33734   0.33736   0.33739   0.36986
     Eigenvalues ---    0.94754   1.01688   1.02535   1.03397
 Quartic linear search produced a step of  0.57718.
 Iteration  1 RMS(Cart)=  0.04674667 RMS(Int)=  0.00247209
 Iteration  2 RMS(Cart)=  0.00275713 RMS(Int)=  0.00114239
 Iteration  3 RMS(Cart)=  0.00000645 RMS(Int)=  0.00114238
 Iteration  4 RMS(Cart)=  0.00000001 RMS(Int)=  0.00114238
 Variable       Old X    -DE/DX   Delta X   Delta X   Delta X     New X
                                 (Linear)    (Quad)   (Total)
    R1        2.87842  -0.00477   0.00935  -0.02427  -0.01492   2.86350
    R2        2.08266   0.00055  -0.00038   0.00255   0.00217   2.08483
    R3        2.08189  -0.00053   0.00241  -0.00255  -0.00014   2.08175
    R4        2.07909   0.00046   0.00076   0.00205   0.00280   2.08189
    R5        2.87842  -0.00477   0.00935  -0.02428  -0.01493   2.86350
    R6        2.93871   0.01292   0.02778   0.06512   0.09291   3.03162
    R7        2.93871   0.01292   0.02778   0.06513   0.09291   3.03162
    R8        2.07909   0.00046   0.00076   0.00205   0.00280   2.08189
    R9        2.08266   0.00055  -0.00038   0.00255   0.00217   2.08483
   R10        2.08189  -0.00053   0.00241  -0.00255  -0.00014   2.08175
   R11        2.28094  -0.00122   0.00262  -0.00189   0.00073   2.28167
   R12        2.25902  -0.01510  -0.01194  -0.02277  -0.03471   2.22431
   R13        2.28094  -0.00121   0.00262  -0.00189   0.00073   2.28167
   R14        2.25902  -0.01510  -0.01194  -0.02277  -0.03471   2.22431
    A1        1.89559  -0.00177  -0.00129  -0.01878  -0.02018   1.87541
    A2        1.95230   0.00016   0.01105   0.00222   0.01324   1.96554
    A3        1.90926  -0.00026  -0.00358  -0.00188  -0.00565   1.90361
    A4        1.90698   0.00090  -0.00235   0.00867   0.00638   1.91335
    A5        1.88610   0.00043  -0.00956   0.00081  -0.00905   1.87705
    A6        1.91238   0.00054   0.00516   0.00872   0.01378   1.92616
    A7        2.01171   0.00086   0.00354   0.00673   0.00984   2.02155
    A8        1.86605  -0.00152  -0.00870  -0.01236  -0.02066   1.84540
    A9        1.98881   0.00112   0.02924   0.00633   0.03470   2.02350
   A10        1.98881   0.00112   0.02925   0.00632   0.03469   2.02350
   A11        1.86606  -0.00152  -0.00870  -0.01237  -0.02066   1.84540
   A12        1.72407  -0.00009  -0.04968   0.00579  -0.04267   1.68140
   A13        1.90926  -0.00026  -0.00357  -0.00189  -0.00565   1.90361
   A14        1.89559  -0.00177  -0.00129  -0.01878  -0.02018   1.87541
   A15        1.95230   0.00016   0.01105   0.00222   0.01324   1.96554
   A16        1.88610   0.00043  -0.00956   0.00081  -0.00905   1.87705
   A17        1.91238   0.00054   0.00516   0.00872   0.01378   1.92616
   A18        1.90697   0.00090  -0.00235   0.00867   0.00638   1.91335
   A19        1.98496  -0.01011  -0.03831  -0.06070  -0.10235   1.88261
   A20        2.06218  -0.00059   0.02423  -0.00785   0.01306   2.07524
   A21        2.23465   0.01065   0.01400   0.06157   0.07215   2.30680
   A22        1.98497  -0.01011  -0.03831  -0.06070  -0.10233   1.88264
   A23        2.06218  -0.00059   0.02423  -0.00784   0.01308   2.07526
   A24        2.23464   0.01065   0.01400   0.06157   0.07217   2.30681
    D1       -1.10582  -0.00036  -0.00834  -0.00671  -0.01445  -1.12027
    D2        1.12446   0.00051   0.02591  -0.00352   0.02213   1.14659
    D3        3.01015   0.00006  -0.02369  -0.00069  -0.02502   2.98512
    D4        3.07125  -0.00040  -0.01145  -0.00642  -0.01713   3.05412
    D5       -0.98166   0.00047   0.02279  -0.00322   0.01945  -0.96221
    D6        0.90403   0.00002  -0.02680  -0.00040  -0.02770   0.87633
    D7        0.94910  -0.00101  -0.02271  -0.01760  -0.03955   0.90955
    D8       -3.10381  -0.00014   0.01153  -0.01440  -0.00297  -3.10678
    D9       -1.21813  -0.00059  -0.03806  -0.01158  -0.05012  -1.26825
   D10        0.94909  -0.00101  -0.02271  -0.01760  -0.03955   0.90954
   D11       -1.10582  -0.00036  -0.00833  -0.00672  -0.01445  -1.12027
   D12        3.07124  -0.00040  -0.01144  -0.00642  -0.01713   3.05412
   D13       -1.21813  -0.00059  -0.03807  -0.01158  -0.05012  -1.26825
   D14        3.01014   0.00006  -0.02369  -0.00069  -0.02502   2.98512
   D15        0.90403   0.00002  -0.02680  -0.00040  -0.02770   0.87632
   D16       -3.10382  -0.00014   0.01153  -0.01440  -0.00297  -3.10679
   D17        1.12445   0.00051   0.02590  -0.00351   0.02213   1.14658
   D18       -0.98167   0.00047   0.02279  -0.00322   0.01945  -0.96221
   D19       -1.91953   0.00042   0.00896   0.05159   0.06116  -1.85836
   D20        1.16988  -0.00025   0.00797  -0.07677  -0.06773   1.10215
   D21        0.32409   0.00116   0.02779   0.05516   0.08326   0.40736
   D22       -2.86969   0.00048   0.02680  -0.07320  -0.04563  -2.91532
   D23        2.29639  -0.00025   0.00252   0.04635   0.04725   2.34365
   D24       -0.89739  -0.00092   0.00153  -0.08201  -0.08164  -0.97902
   D25        0.32404   0.00116   0.02780   0.05500   0.08311   0.40715
   D26       -2.86976   0.00048   0.02679  -0.07303  -0.04546  -2.91522
   D27       -1.91958   0.00042   0.00897   0.05143   0.06102  -1.85857
   D28        1.16980  -0.00025   0.00797  -0.07660  -0.06756   1.10225
   D29        2.29633  -0.00025   0.00253   0.04620   0.04711   2.34344
   D30       -0.89747  -0.00092   0.00152  -0.08183  -0.08146  -0.97893
         Item               Value     Threshold  Converged?
 Maximum Force            0.015100     0.000015     NO 
 RMS     Force            0.004371     0.000010     NO 
 Maximum Displacement     0.127093     0.000060     NO 
 RMS     Displacement     0.047298     0.000040     NO 
 GradGradGradGradGradGradGradGradGradGradGradGradGradGradGradGradGradGrad

                    Distance matrix (angstroms):
                    1          2          3          4          5
     1  C    0.000000
     2  C    1.515298   0.000000
     3  C    2.567653   1.515297   0.000000
     4  N    2.487598   1.604264   2.645066   0.000000
     5  O    3.176418   2.284729   2.694089   1.207406   0.000000
     6  O    2.916971   2.405082   3.701073   1.177052   2.179779
     7  N    2.645064   1.604263   2.487599   2.390711   3.324394
     8  O    2.694065   2.284747   3.176538   3.324324   4.337153
     9  O    3.701072   2.405096   2.917035   2.700841   3.443242
    10  H    1.103242   2.125102   2.828336   2.712588   3.031070
    11  H    1.101615   2.189426   3.523210   2.694205   3.610841
    12  H    1.101688   2.144909   2.761931   3.466917   4.105740
    13  H    2.761929   2.144910   1.101688   2.985111   2.684796
    14  H    2.828338   2.125102   1.103243   3.560933   3.771313
    15  H    3.523209   2.189425   1.101615   2.865419   2.735490
                    6          7          8          9         10
     6  O    0.000000
     7  N    2.700870   0.000000
     8  O    3.443106   1.207406   0.000000
     9  O    3.005792   1.177052   2.179788   0.000000
    10  H    3.265606   3.560932   3.771296   4.496524   0.000000
    11  H    2.648199   2.865419   2.735381   3.928420   1.801988
    12  H    3.932468   2.985106   2.684831   4.105656   1.778690
    13  H    4.105641   3.466918   4.105841   3.932525   2.578442
    14  H    4.496520   2.712586   3.031246   3.265680   3.250822
    15  H    3.928446   2.694207   3.610964   2.648277   3.798927
                   11         12         13         14         15
    11  H    0.000000
    12  H    1.808809   0.000000
    13  H    3.802679   2.990362   0.000000
    14  H    3.798930   2.578445   1.778690   0.000000
    15  H    4.365364   3.802680   1.808810   1.801989   0.000000
 Framework group  C1[X(C3H6N2O4)]
 Deg. of freedom    39
                         Standard orientation:                         
 ---------------------------------------------------------------------
 Center     Atomic      Atomic             Coordinates (Angstroms)
 Number     Number       Type             X           Y           Z
 ---------------------------------------------------------------------
      1          6           0       -0.049751    1.386466   -1.282935
      2          6           0       -0.000027    0.581628   -0.000013
      3          6           0        0.049587    1.386654    1.282795
      4          7           0       -1.190105   -0.488408   -0.111364
      5          8           0       -2.074400   -0.137635    0.632148
      6          8           0       -1.150675   -1.296183   -0.966581
      7          7           0        1.190197   -0.488230    0.111486
      8          8           0        2.074360   -0.137587   -0.632244
      9          8           0        1.150851   -1.295961    0.966748
     10          1           0       -0.997942    1.950448   -1.283194
     11          1           0        0.004357    0.753184   -2.182703
     12          1           0        0.772696    2.119467   -1.280086
     13          1           0       -0.772956    2.119546    1.279841
     14          1           0        0.997705    1.950761    1.282977
     15          1           0       -0.004439    0.753491    2.182652
 ---------------------------------------------------------------------
 Rotational constants (GHZ):           2.2248496           1.5709485           1.4383255
   138 basis functions,   249 primitive gaussians,   147 cartesian basis functions
    35 alpha electrons       34 beta electrons
       nuclear repulsion energy       504.3531854479 Hartrees.
 NAtoms=   15 NActive=   15 NUniq=   15 SFac= 1.00D+00 NAtFMM=   60 NAOKFM=F Big=F
 Nuclear repulsion after empirical dispersion term =      504.3447279750 Hartrees.
   1 Symmetry operations used in ECPInt.
 ECPInt:  NShTT=    2211 NPrTT=    8913 LenC2=    2190 LenP2D=    6921.
 LDataN:  DoStor=T MaxTD1= 4 Len=   56
 Initial guess from the checkpoint file:  "42.chk"
 B after Tr=    -0.000000    0.000000    0.000000
         Rot=    0.999416    0.000025   -0.034167   -0.000016 Ang=   3.92 deg.
 Initial guess <Sx>= 0.0000 <Sy>= 0.0000 <Sz>= 0.5000 <S**2>= 0.7685 S= 0.5092
 ExpMin= 1.22D-01 ExpMax= 2.27D+03 ExpMxC= 3.41D+02 IAcc=3 IRadAn=         5 AccDes= 0.00D+00
 Harris functional with IExCor= 4639 and IRadAn=       5 diagonalized for initial guess.
 HarFok:  IExCor= 4639 AccDes= 0.00D+00 IRadAn=         5 IDoV= 1 UseB2=F ITyADJ=14
 ICtDFT=  3500011 ScaDFX=  1.000000  1.000000  1.000000  1.000000
 FoFCou: FMM=F IPFlag=           0 FMFlag=      100000 FMFlg1=           0
         NFxFlg=           0 DoJE=T BraDBF=F KetDBF=T FulRan=T
         wScrn=  0.000000 ICntrl=       500 IOpCl=  0 I1Cent=   200000004 NGrid=           0
         NMat0=    1 NMatS0=      1 NMatT0=    0 NMatD0=    1 NMtDS0=    0 NMtDT0=    0
 Petite list used in FoFCou.
     Minimum is close to point  4 DX=  5.06D-03 DF= -2.81D-07 DXR=  4.20D-03 DFR=  1.76D-05 which will be used.
     Minimum is close to point  2 DX=  6.23D-02 DF= -6.61D-06 DXR=  5.86D-02 DFR=  3.45D-03 which will be used.
     Minimum is close to point  2 DX=  1.32D-02 DF= -2.17D-07 DXR=  1.44D-02 DFR=  2.08D-04 which will be used.
     Accept linear search using points  1 and  2.
     Minimum is close to point  2 DX= -1.51D-02 DF= -1.51D-07 DXR=  1.53D-02 DFR=  2.35D-04 which will be used.
     Accept linear search using points  1 and  2.
     Minimum is close to point  2 DX= -3.26D-02 DF= -4.89D-07 DXR=  3.76D-02 DFR=  1.14D-03 which will be used.
     Minimum is close to point  2 DX=  6.95D-02 DF= -1.57D-06 DXR=  7.17D-02 DFR=  5.16D-03 which will be used.
     Accept linear search using points  1 and  2.
     Minimum is close to point  2 DX=  9.97D-02 DF= -1.26D-06 DXR=  9.07D-02 DFR=  8.29D-03 which will be used.
     Accept linear search using points  1 and  2.
     Minimum is close to point  2 DX= -1.26D-03 DF= -2.02D-10 DXR=  1.26D-03 DFR=  1.58D-06 which will be used.
     Accept linear search using points  1 and  2.
     Minimum is close to point  2 DX= -8.70D-02 DF= -9.97D-07 DXR=  9.53D-02 DFR=  9.17D-03 which will be used.
     Accept linear search using points  1 and  2.
     Accept linear search using points  1 and  2.
     Minimum is close to point  2 DX=  9.97D-02 DF= -5.65D-07 DXR=  9.06D-02 DFR=  8.28D-03 which will be used.
     Accept linear search using points  1 and  2.
     Minimum is close to point  2 DX= -1.14D-02 DF= -8.17D-09 DXR=  1.16D-02 DFR=  1.34D-04 which will be used.
     Accept linear search using points  1 and  2.
     Minimum is close to point  2 DX=  9.60D-03 DF= -6.85D-08 DXR=  9.51D-03 DFR=  9.04D-05 which will be used.
     Minimum is close to point  2 DX=  4.15D-03 DF= -1.42D-10 DXR=  4.13D-03 DFR=  1.71D-05 which will be used.
 SCF Done:  E(UwB97XD) =  -527.152093618     a.u. after   22 cycles
            Convg  =    0.6559D-08                    94 Fock formations.
              S**2 =  0.7626                  -V/T =  2.0068
 <Sx>= 0.0000 <Sy>= 0.0000 <Sz>= 0.5000 <S**2>= 0.7626 S= 0.5063
 <L.S>=  0.00000000000    
 Annihilation of the first spin contaminant:
 S**2 before annihilation     0.7626,   after     0.7501
   1 Symmetry operations used in ECPInt.
 ECPInt:  NShTT=    2211 NPrTT=    8913 LenC2=    2190 LenP2D=    6921.
 LDataN:  DoStor=T MaxTD1= 5 Len=  102
 Calling FoFJK, ICntrl=      2127 FMM=F ISym2X=0 I1Cent= 0 IOpClX= 1 NMat=1 NMatS=1 NMatT=0.

 GradGradGradGradGradGradGradGradGradGradGradGradGradGradGradGradGradGrad
 Using GEDIIS/GDIIS optimizer.
 FormGI is forming the generalized inverse of G from B-inverse, IUseBI=4.
 Internal  Forces:  Max     0.009596795 RMS     0.003618742
 Step number   3 out of a maximum of   78
 All quantities printed in internal units (Hartrees-Bohrs-Radians)
 Mixed Optimization -- RFO/linear search
 Trust test= 4.58D-01 RLast= 3.53D-01 DXMaxT set to 5.05D-01
 ITU=  0  1  0
 Use linear search instead of GDIIS.
     Eigenvalues ---    0.00230   0.00230   0.00461   0.00502   0.00572
     Eigenvalues ---    0.00639   0.03703   0.05344   0.05571   0.05574
     Eigenvalues ---    0.06157   0.06182   0.08366   0.11777   0.15900
     Eigenvalues ---    0.16000   0.16000   0.16000   0.16014   0.16136
     Eigenvalues ---    0.16865   0.18337   0.25000   0.25000   0.27566
     Eigenvalues ---    0.29458   0.30090   0.30890   0.33386   0.33413
     Eigenvalues ---    0.33648   0.33736   0.33739   0.33743   0.38881
     Eigenvalues ---    0.94421   1.01688   1.02535   1.05018
 Quartic linear search produced a step of -0.33096.
 Iteration  1 RMS(Cart)=  0.09494646 RMS(Int)=  0.01699778
 Iteration  2 RMS(Cart)=  0.01892426 RMS(Int)=  0.00896342
 Iteration  3 RMS(Cart)=  0.00040667 RMS(Int)=  0.00895675
 Iteration  4 RMS(Cart)=  0.00000954 RMS(Int)=  0.00895674
 Iteration  5 RMS(Cart)=  0.00000027 RMS(Int)=  0.00895674
 Variable       Old X    -DE/DX   Delta X   Delta X   Delta X     New X
                                 (Linear)    (Quad)   (Total)
    R1        2.86350  -0.00528   0.00494  -0.02148  -0.01654   2.84696
    R2        2.08483   0.00063  -0.00072   0.00357   0.00285   2.08768
    R3        2.08175  -0.00085   0.00005   0.00025   0.00029   2.08205
    R4        2.08189  -0.00034  -0.00093   0.00344   0.00251   2.08440
    R5        2.86350  -0.00528   0.00494  -0.02148  -0.01654   2.84696
    R6        3.03162   0.00960  -0.03075   0.15901   0.12826   3.15988
    R7        3.03162   0.00960  -0.03075   0.15901   0.12826   3.15988
    R8        2.08189  -0.00034  -0.00093   0.00344   0.00251   2.08440
    R9        2.08483   0.00063  -0.00072   0.00357   0.00285   2.08768
   R10        2.08175  -0.00085   0.00005   0.00025   0.00029   2.08205
   R11        2.28167  -0.00773  -0.00024  -0.00186  -0.00211   2.27956
   R12        2.22431   0.00296   0.01149  -0.05167  -0.04018   2.18413
   R13        2.28167  -0.00773  -0.00024  -0.00187  -0.00211   2.27956
   R14        2.22431   0.00296   0.01149  -0.05167  -0.04018   2.18412
    A1        1.87541  -0.00023   0.00668  -0.02539  -0.01874   1.85667
    A2        1.96554  -0.00038  -0.00438   0.02232   0.01791   1.98345
    A3        1.90361   0.00081   0.00187  -0.00661  -0.00486   1.89875
    A4        1.91335   0.00025  -0.00211   0.00613   0.00409   1.91744
    A5        1.87705  -0.00001   0.00300  -0.01647  -0.01363   1.86342
    A6        1.92616  -0.00041  -0.00456   0.01711   0.01245   1.93861
    A7        2.02155   0.00282  -0.00326   0.02281   0.01913   2.04068
    A8        1.84540   0.00023   0.00684  -0.03060  -0.02352   1.82187
    A9        2.02350  -0.00275  -0.01148   0.05460   0.04230   2.06580
   A10        2.02350  -0.00275  -0.01148   0.05460   0.04230   2.06580
   A11        1.84540   0.00023   0.00684  -0.03060  -0.02353   1.82187
   A12        1.68140   0.00165   0.01412  -0.08221  -0.06713   1.61428
   A13        1.90361   0.00081   0.00187  -0.00660  -0.00486   1.89876
   A14        1.87541  -0.00023   0.00668  -0.02539  -0.01874   1.85667
   A15        1.96554  -0.00038  -0.00438   0.02231   0.01791   1.98345
   A16        1.87705  -0.00001   0.00300  -0.01647  -0.01364   1.86341
   A17        1.92616  -0.00041  -0.00456   0.01711   0.01245   1.93861
   A18        1.91335   0.00025  -0.00211   0.00613   0.00409   1.91744
   A19        1.88261   0.00828   0.03387  -0.10695  -0.10272   1.77989
   A20        2.07524  -0.00344  -0.00432   0.05687   0.02324   2.09848
   A21        2.30680  -0.00277  -0.02388   0.12286   0.06817   2.37497
   A22        1.88264   0.00828   0.03387  -0.10704  -0.10270   1.77993
   A23        2.07526  -0.00345  -0.00433   0.05678   0.02325   2.09851
   A24        2.30681  -0.00277  -0.02389   0.12277   0.06820   2.37502
    D1       -1.12027   0.00026   0.00478  -0.02261  -0.01729  -1.13755
    D2        1.14659  -0.00108  -0.00732   0.04234   0.03480   1.18139
    D3        2.98512  -0.00015   0.00828  -0.05010  -0.04233   2.94279
    D4        3.05412   0.00034   0.00567  -0.02689  -0.02057   3.03355
    D5       -0.96221  -0.00100  -0.00644   0.03807   0.03152  -0.93069
    D6        0.87633  -0.00007   0.00917  -0.05438  -0.04562   0.83071
    D7        0.90955   0.00054   0.01309  -0.05922  -0.04551   0.86404
    D8       -3.10678  -0.00080   0.00098   0.00573   0.00658  -3.10020
    D9       -1.26825   0.00013   0.01659  -0.08671  -0.07055  -1.33880
   D10        0.90954   0.00054   0.01309  -0.05922  -0.04550   0.86404
   D11       -1.12027   0.00026   0.00478  -0.02261  -0.01728  -1.13755
   D12        3.05412   0.00034   0.00567  -0.02688  -0.02057   3.03355
   D13       -1.26825   0.00013   0.01659  -0.08672  -0.07056  -1.33881
   D14        2.98512  -0.00015   0.00828  -0.05011  -0.04234   2.94278
   D15        0.87632  -0.00007   0.00917  -0.05438  -0.04562   0.83070
   D16       -3.10679  -0.00080   0.00098   0.00573   0.00658  -3.10021
   D17        1.14658  -0.00108  -0.00732   0.04234   0.03480   1.18138
   D18       -0.96221  -0.00100  -0.00644   0.03806   0.03151  -0.93070
   D19       -1.85836  -0.00576  -0.02024  -0.15835  -0.17518  -2.03354
   D20        1.10215   0.00401   0.02242   0.20559   0.22596   1.32811
   D21        0.40736  -0.00385  -0.02756  -0.11186  -0.13633   0.27102
   D22       -2.91532   0.00591   0.01510   0.25208   0.26480  -2.65052
   D23        2.34365  -0.00350  -0.01564  -0.17680  -0.19075   2.15290
   D24       -0.97902   0.00627   0.02702   0.18714   0.21039  -0.76864
   D25        0.40715  -0.00384  -0.02751  -0.11153  -0.13597   0.27118
   D26       -2.91522   0.00590   0.01505   0.25173   0.26442  -2.65080
   D27       -1.85857  -0.00574  -0.02019  -0.15801  -0.17480  -2.03337
   D28        1.10225   0.00399   0.02236   0.20525   0.22558   1.32783
   D29        2.34344  -0.00348  -0.01559  -0.17646  -0.19038   2.15306
   D30       -0.97893   0.00625   0.02696   0.18680   0.21001  -0.76892
         Item               Value     Threshold  Converged?
 Maximum Force            0.009597     0.000015     NO 
 RMS     Force            0.003619     0.000010     NO 
 Maximum Displacement     0.257064     0.000060     NO 
 RMS     Displacement     0.098705     0.000040     NO 
 GradGradGradGradGradGradGradGradGradGradGradGradGradGradGradGradGradGrad

                    Distance matrix (angstroms):
                    1          2          3          4          5
     1  C    0.000000
     2  C    1.506544   0.000000
     3  C    2.568016   1.506545   0.000000
     4  N    2.513458   1.672136   2.731135   0.000000
     5  O    3.214789   2.255785   2.663741   1.206291   0.000000
     6  O    3.055308   2.465397   3.729477   1.155790   2.190749
     7  N    2.731132   1.672136   2.513456   2.415603   3.214283
     8  O    2.663809   2.255821   3.214735   3.214390   4.170113
     9  O    3.729535   2.465417   3.055197   2.608511   3.221884
    10  H    1.104752   2.104479   2.825502   2.726166   3.105704
    11  H    1.101771   2.194295   3.526819   2.697602   3.657212
    12  H    1.103015   2.134675   2.746794   3.504229   4.126507
    13  H    2.746799   2.134680   1.103015   3.099065   2.758080
    14  H    2.825503   2.104481   1.104753   3.629175   3.737724
    15  H    3.526817   2.194292   1.101771   2.950140   2.645085
                    6          7          8          9         10
     6  O    0.000000
     7  N    2.608354   0.000000
     8  O    3.221945   1.206291   0.000000
     9  O    2.655576   1.155787   2.190768   0.000000
    10  H    3.434235   3.629173   3.737791   4.502693   0.000000
    11  H    2.809987   2.950142   2.645221   3.905597   1.805944
    12  H    4.056056   3.099051   2.758074   4.208699   1.772042
    13  H    4.208711   3.504230   4.126476   4.055981   2.564017
    14  H    4.502629   2.726157   3.105589   3.434069   3.261481
    15  H    3.905470   2.697599   3.657148   2.809830   3.788614
                   11         12         13         14         15
    11  H    0.000000
    12  H    1.817831   0.000000
    13  H    3.797533   2.931718   0.000000
    14  H    3.788616   2.564012   1.772043   0.000000
    15  H    4.376317   3.797526   1.817831   1.805946   0.000000
 Framework group  C1[X(C3H6N2O4)]
 Deg. of freedom    39
                         Standard orientation:                         
 ---------------------------------------------------------------------
 Center     Atomic      Atomic             Coordinates (Angstroms)
 Number     Number       Type             X           Y           Z
 ---------------------------------------------------------------------
      1          6           0        0.061942    1.468881   -1.282449
      2          6           0        0.000004    0.680754    0.000008
      3          6           0       -0.061853    1.468698    1.282582
      4          7           0       -1.175126   -0.475567   -0.279326
      5          8           0       -2.015469   -0.180153    0.534120
      6          8           0       -0.940674   -1.396507   -0.937165
      7          7           0        1.175026   -0.475718    0.279171
      8          8           0        2.015508   -0.180182   -0.534086
      9          8           0        0.940609   -1.396601    0.937098
     10          1           0       -0.897322    2.011135   -1.361508
     11          1           0        0.214073    0.844876   -2.177644
     12          1           0        0.852664    2.232603   -1.192288
     13          1           0       -0.852495    2.232518    1.192540
     14          1           0        0.897469    2.010841    1.361722
     15          1           0       -0.214048    0.844573    2.177682
 ---------------------------------------------------------------------
 Rotational constants (GHZ):           2.0968337           1.7117635           1.4598681
   138 basis functions,   249 primitive gaussians,   147 cartesian basis functions
    35 alpha electrons       34 beta electrons
       nuclear repulsion energy       506.1137191256 Hartrees.
 NAtoms=   15 NActive=   15 NUniq=   15 SFac= 1.00D+00 NAtFMM=   60 NAOKFM=F Big=F
 Nuclear repulsion after empirical dispersion term =      506.1053415805 Hartrees.
   1 Symmetry operations used in ECPInt.
 ECPInt:  NShTT=    2211 NPrTT=    8913 LenC2=    2192 LenP2D=    6916.
 LDataN:  DoStor=T MaxTD1= 4 Len=   56
 Initial guess from the checkpoint file:  "42.chk"
 B after Tr=     0.000000   -0.000000   -0.000000
         Rot=    0.999372   -0.000058    0.035432    0.000038 Ang=  -4.06 deg.
 Initial guess <Sx>= 0.0000 <Sy>= 0.0000 <Sz>= 0.5000 <S**2>= 0.7629 S= 0.5064
 ExpMin= 1.22D-01 ExpMax= 2.27D+03 ExpMxC= 3.41D+02 IAcc=3 IRadAn=         5 AccDes= 0.00D+00
 Harris functional with IExCor= 4639 and IRadAn=       5 diagonalized for initial guess.
 HarFok:  IExCor= 4639 AccDes= 0.00D+00 IRadAn=         5 IDoV= 1 UseB2=F ITyADJ=14
 ICtDFT=  3500011 ScaDFX=  1.000000  1.000000  1.000000  1.000000
 FoFCou: FMM=F IPFlag=           0 FMFlag=      100000 FMFlg1=           0
         NFxFlg=           0 DoJE=T BraDBF=F KetDBF=T FulRan=T
         wScrn=  0.000000 ICntrl=       500 IOpCl=  0 I1Cent=   200000004 NGrid=           0
         NMat0=    1 NMatS0=      1 NMatT0=    0 NMatD0=    1 NMtDS0=    0 NMtDT0=    0
 Petite list used in FoFCou.
     Minimum is close to point  4 DX=  8.32D-02 DF= -4.30D-04 DXR=  7.03D-02 DFR=  4.97D-03 which will be used.
     Accept linear search using points  2 and  3.
     Accept linear search using points  1 and  2.
     Minimum is close to point  2 DX= -4.44D-02 DF= -2.35D-05 DXR=  4.65D-02 DFR=  2.17D-03 which will be used.
     Accept linear search using points  1 and  2.
     Accept linear search using points  1 and  2.
     Accept linear search using points  1 and  2.
     Accept linear search using points  1 and  2.
     Accept linear search using points  1 and  2.
     Accept linear search using points  1 and  2.
     Accept linear search using points  1 and  2.
     Accept linear search using points  1 and  2.
     Accept linear search using points  1 and  2.
     Accept linear search using points  1 and  2.
     Accept linear search using points  1 and  2.
     Minimum is close to point  2 DX=  2.84D-03 DF= -2.82D-09 DXR=  2.83D-03 DFR=  8.00D-06 which will be used.
     Minimum is close to point  2 DX=  3.33D-04 DF=  0.00D+00 DXR=  3.33D-04 DFR=  0.00D+00 which will be used.
 SCF Done:  E(UwB97XD) =  -527.136860970     a.u. after   27 cycles
            Convg  =    0.6769D-07                   103 Fock formations.
              S**2 =  0.7634                  -V/T =  2.0067
 <Sx>= 0.0000 <Sy>= 0.0000 <Sz>= 0.5000 <S**2>= 0.7634 S= 0.5067
 <L.S>=  0.00000000000    
 Annihilation of the first spin contaminant:
 S**2 before annihilation     0.7634,   after     0.7501
   1 Symmetry operations used in ECPInt.
 ECPInt:  NShTT=    2211 NPrTT=    8913 LenC2=    2192 LenP2D=    6916.
 LDataN:  DoStor=T MaxTD1= 5 Len=  102
 Calling FoFJK, ICntrl=      2127 FMM=F ISym2X=0 I1Cent= 0 IOpClX= 1 NMat=1 NMatS=1 NMatT=0.

 GradGradGradGradGradGradGradGradGradGradGradGradGradGradGradGradGradGrad
 Using GEDIIS/GDIIS optimizer.
 FormGI is forming the generalized inverse of G from B-inverse, IUseBI=4.
 Internal  Forces:  Max     0.031035935 RMS     0.010402232
 Step number   4 out of a maximum of   78
 All quantities printed in internal units (Hartrees-Bohrs-Radians)
 Mixed Optimization -- RFO/linear search
 Trust test=-1.56D+00 RLast= 7.80D-01 DXMaxT set to 2.52D-01
 ITU= -1  0  1  0
 Use linear search instead of GDIIS.
     Eigenvalues ---    0.00230   0.00232   0.00570   0.00572   0.00635
     Eigenvalues ---    0.03344   0.05189   0.05442   0.05446   0.06206
     Eigenvalues ---    0.06307   0.07762   0.09059   0.11219   0.15842
     Eigenvalues ---    0.16000   0.16000   0.16000   0.16012   0.16148
     Eigenvalues ---    0.16889   0.18376   0.24271   0.25000   0.25000
     Eigenvalues ---    0.28071   0.29458   0.30890   0.33380   0.33413
     Eigenvalues ---    0.33618   0.33732   0.33736   0.33739   0.37069
     Eigenvalues ---    0.95923   1.01688   1.02535   1.02704
 Quartic linear search produced a step of -0.77518.
 Iteration  1 RMS(Cart)=  0.08009508 RMS(Int)=  0.00780262
 Iteration  2 RMS(Cart)=  0.00841622 RMS(Int)=  0.00310596
 Iteration  3 RMS(Cart)=  0.00004635 RMS(Int)=  0.00310568
 Iteration  4 RMS(Cart)=  0.00000015 RMS(Int)=  0.00310568
 Variable       Old X    -DE/DX   Delta X   Delta X   Delta X     New X
                                 (Linear)    (Quad)   (Total)
    R1        2.84696  -0.00430   0.01282  -0.00928   0.00354   2.85050
    R2        2.08768   0.00071  -0.00221   0.00136  -0.00085   2.08682
    R3        2.08205  -0.00129  -0.00023  -0.00188  -0.00211   2.07993
    R4        2.08440  -0.00042  -0.00194  -0.00193  -0.00387   2.08052
    R5        2.84696  -0.00430   0.01282  -0.00928   0.00354   2.85050
    R6        3.15988   0.00809  -0.09942   0.02159  -0.07783   3.08205
    R7        3.15988   0.00807  -0.09943   0.02158  -0.07785   3.08203
    R8        2.08440  -0.00042  -0.00194  -0.00193  -0.00388   2.08052
    R9        2.08768   0.00071  -0.00221   0.00136  -0.00086   2.08683
   R10        2.08205  -0.00129  -0.00023  -0.00188  -0.00211   2.07993
   R11        2.27956  -0.00750   0.00163  -0.00830  -0.00667   2.27289
   R12        2.18413   0.03104   0.03115   0.01510   0.04624   2.23037
   R13        2.27956  -0.00751   0.00163  -0.00831  -0.00668   2.27288
   R14        2.18412   0.03103   0.03115   0.01509   0.04624   2.23036
    A1        1.85667   0.00005   0.01453   0.00727   0.02168   1.87835
    A2        1.98345  -0.00188  -0.01389  -0.00515  -0.01899   1.96446
    A3        1.89875   0.00342   0.00377   0.01028   0.01395   1.91270
    A4        1.91744   0.00040  -0.00317  -0.00312  -0.00624   1.91120
    A5        1.86342  -0.00022   0.01057   0.00150   0.01179   1.87520
    A6        1.93861  -0.00160  -0.00965  -0.00962  -0.01922   1.91939
    A7        2.04068   0.00506  -0.01483   0.01614   0.00126   2.04194
    A8        1.82187  -0.00020   0.01823   0.00595   0.02477   1.84665
    A9        2.06580  -0.00640  -0.03279  -0.02383  -0.05673   2.00907
   A10        2.06580  -0.00640  -0.03279  -0.02383  -0.05673   2.00908
   A11        1.82187  -0.00020   0.01824   0.00595   0.02477   1.84664
   A12        1.61428   0.00750   0.05204   0.01506   0.06779   1.68207
   A13        1.89876   0.00342   0.00376   0.01029   0.01396   1.91271
   A14        1.85667   0.00005   0.01453   0.00727   0.02168   1.87835
   A15        1.98345  -0.00188  -0.01388  -0.00516  -0.01899   1.96446
   A16        1.86341  -0.00022   0.01057   0.00150   0.01179   1.87520
   A17        1.93861  -0.00160  -0.00965  -0.00962  -0.01922   1.91939
   A18        1.91744   0.00040  -0.00317  -0.00312  -0.00625   1.91119
   A19        1.77989   0.03083   0.07963   0.06523   0.15532   1.93521
   A20        2.09848  -0.00211  -0.01802  -0.01657  -0.02413   2.07435
   A21        2.37497  -0.02081  -0.05285  -0.05994  -0.10231   2.27266
   A22        1.77993   0.03082   0.07961   0.06527   0.15527   1.93520
   A23        2.09851  -0.00213  -0.01802  -0.01657  -0.02420   2.07431
   A24        2.37502  -0.02081  -0.05287  -0.05987  -0.10233   2.27269
    D1       -1.13755   0.00041   0.01340  -0.01394  -0.00059  -1.13814
    D2        1.18139  -0.00451  -0.02698  -0.02826  -0.05530   1.12609
    D3        2.94279   0.00199   0.03281  -0.01542   0.01724   2.96003
    D4        3.03355   0.00101   0.01595  -0.01192   0.00406   3.03761
    D5       -0.93069  -0.00390  -0.02443  -0.02624  -0.05065  -0.98134
    D6        0.83071   0.00260   0.03536  -0.01340   0.02189   0.85260
    D7        0.86404   0.00183   0.03527  -0.00356   0.03185   0.89589
    D8       -3.10020  -0.00309  -0.00510  -0.01788  -0.02286  -3.12306
    D9       -1.33880   0.00341   0.05469  -0.00504   0.04968  -1.28912
   D10        0.86404   0.00183   0.03527  -0.00355   0.03185   0.89589
   D11       -1.13755   0.00041   0.01340  -0.01393  -0.00059  -1.13815
   D12        3.03355   0.00101   0.01594  -0.01191   0.00407   3.03762
   D13       -1.33881   0.00341   0.05469  -0.00505   0.04968  -1.28913
   D14        2.94278   0.00199   0.03282  -0.01543   0.01723   2.96002
   D15        0.83070   0.00260   0.03536  -0.01341   0.02189   0.85259
   D16       -3.10021  -0.00309  -0.00510  -0.01788  -0.02286  -3.12307
   D17        1.18138  -0.00451  -0.02697  -0.02827  -0.05530   1.12608
   D18       -0.93070  -0.00390  -0.02443  -0.02624  -0.05064  -0.98135
   D19       -2.03354   0.01034   0.13579   0.00942   0.14553  -1.88801
   D20        1.32811  -0.01541  -0.17516   0.05808  -0.11709   1.21102
   D21        0.27102   0.01196   0.10568   0.01804   0.12416   0.39519
   D22       -2.65052  -0.01378  -0.20527   0.06669  -0.13845  -2.78896
   D23        2.15290   0.01469   0.14786   0.02845   0.17603   2.32893
   D24       -0.76864  -0.01106  -0.16309   0.07711  -0.08658  -0.85522
   D25        0.27118   0.01194   0.10540   0.01823   0.12407   0.39525
   D26       -2.65080  -0.01376  -0.20497   0.06650  -0.13834  -2.78915
   D27       -2.03337   0.01032   0.13550   0.00962   0.14543  -1.88794
   D28        1.32783  -0.01539  -0.17487   0.05789  -0.11698   1.21085
   D29        2.15306   0.01467   0.14758   0.02864   0.17594   2.32900
   D30       -0.76892  -0.01104  -0.16279   0.07691  -0.08648  -0.85540
         Item               Value     Threshold  Converged?
 Maximum Force            0.031036     0.000015     NO 
 RMS     Force            0.010402     0.000010     NO 
 Maximum Displacement     0.260737     0.000060     NO 
 RMS     Displacement     0.078665     0.000040     NO 
 GradGradGradGradGradGradGradGradGradGradGradGradGradGradGradGradGradGrad

[...]
 ! D24   D(7,2,4,6)             -0.0001         -DE/DX =    0.0                 !
 ! D25   D(1,2,7,8)            -26.5562         -DE/DX =    0.0                 !
 ! D26   D(1,2,7,9)            154.3305         -DE/DX =    0.0                 !
 ! D27   D(3,2,7,8)           -154.3305         -DE/DX =    0.0                 !
 ! D28   D(3,2,7,9)             26.5561         -DE/DX =    0.0                 !
 ! D29   D(4,2,7,8)             89.5566         -DE/DX =    0.0                 !
 ! D30   D(4,2,7,9)            -89.5567         -DE/DX =    0.0                 !
 --------------------------------------------------------------------------------
 GradGradGradGradGradGradGradGradGradGradGradGradGradGradGradGradGradGrad


 ----------------------------------------------------------------------

 Electric dipole moment (input orientation):
 (Debye = 10**-18 statcoulomb cm , SI units = C m)
                  (au)            (Debye)         (10**-30 SI)
   Tot        0.217443D+01      0.552686D+01      0.184356D+02
   x         -0.334244D+00     -0.849563D+00     -0.283384D+01
   y          0.214202D+01      0.544447D+01      0.181608D+02
   z         -0.167905D+00     -0.426773D+00     -0.142356D+01

 Dipole polarizability, Alpha (input orientation).
 (esu units = cm**3 , SI units = C**2 m**2 J**-1)
 Alpha(0;0):
               (au)            (10**-24 esu)      (10**-40 SI)
   iso        0.711681D+02      0.105460D+02      0.117340D+02
   aniso      0.381843D+02      0.565833D+01      0.629574D+01
   xx         0.827137D+02      0.122569D+02      0.136376D+02
   yx         0.192747D+02      0.285622D+01      0.317797D+01
   yy         0.681621D+02      0.101006D+02      0.112384D+02
   zx         0.147981D+01      0.219286D+00      0.243988D+00
   zy         0.216333D+01      0.320573D+00      0.356686D+00
   zz         0.626286D+02      0.928060D+01      0.103261D+02

 ----------------------------------------------------------------------

 Dipole orientation:
     6          0.64584373         -2.51167427          2.57851535
     6          0.92810845         -0.03036803          1.40780327
     6          0.46274345          2.42317064          2.57857373
     7          2.45528540          0.02632864         -0.91904669
     8          4.66741833          0.10830190         -0.38998711
     8          1.44021213         -0.01121080         -2.93551847
     7         -3.28331444         -0.18663653         -0.80870773
     8         -3.88059959         -2.28838887         -1.18182226
     8         -4.03479749          1.86504555         -1.18179697
     1          2.50338987         -2.92406416          3.48821919
     1          0.33258333         -4.01942358          1.17067837
     1         -0.80825198         -2.51032748          4.06425703
     1          2.28471867          2.97224891          3.48797743
     1         -0.98704740          2.31399728          4.06450890
     1          0.03831267          3.90350776          1.17076545

 Electric dipole moment (dipole orientation):
 (Debye = 10**-18 statcoulomb cm , SI units = C m)
                  (au)            (Debye)         (10**-30 SI)
   Tot        0.217443D+01      0.552686D+01      0.184356D+02
   x          0.000000D+00      0.000000D+00      0.000000D+00
   y          0.000000D+00      0.000000D+00      0.000000D+00
   z          0.217443D+01      0.552686D+01      0.184356D+02

 Dipole polarizability, Alpha (dipole orientation).
 (esu units = cm**3 , SI units = C**2 m**2 J**-1)
 Alpha(0;0):
               (au)            (10**-24 esu)      (10**-40 SI)
   iso        0.711681D+02      0.105460D+02      0.117340D+02
   aniso      0.381843D+02      0.565833D+01      0.629574D+01
   xx         0.885635D+02      0.131238D+02      0.146021D+02
   yx         0.964321D+00      0.142898D+00      0.158995D+00
   yy         0.625992D+02      0.927625D+01      0.103212D+02
   zx         0.160550D+02      0.237911D+01      0.264712D+01
   zy         0.595321D+00      0.882174D-01      0.981551D-01
   zz         0.623416D+02      0.923807D+01      0.102787D+02

 ----------------------------------------------------------------------
 1\1\GINC-C304\Freq\UwB97XD\def2SVPP\C3H6N2O4(1+,2)\PETERCHAO1\11-Jul-2
 023\0\\#T Geom=AllCheck Guess=TCheck SCRF=Check GenChk UwB97XD/def2SVP
 P Freq\\Comment gs min\\1,2\C,-0.0948310794,1.4688327873,1.2564793858\
 C,0.3614064855,0.8152944087,0.0337996818\C,0.239272025,1.3181826675,-1
 .3308970414\N,1.343056142,-0.2666022362,0.223548846\O,2.447775277,0.19
 90433226,0.3391395284\O,0.9804221968,-1.4048857439,0.2429460563\N,-1.6
 433906837,-0.7015809791,-0.1367366914\O,-2.1035236089,-0.8905437082,0.
 9255450215\O,-1.8223690711,-1.0173593695,-1.2521383911\H,0.7531625654,
 2.1156153921,1.5853791724\H,-0.2727654646,0.7489206064,2.074498072\H,-
 0.9653398011,2.117029718,1.076786819\H,1.1524382387,1.9354602926,-1.50
 60811581\H,-0.6386297983,1.9698728196,-1.45263441\H,0.2634845765,0.507
 021022,-2.0795788912\\Version=ES64L-G16RevB.01\State=2-A\HF=-527.17429
 72\S2=0.752907\S2-1=0.\S2A=0.750006\RMSD=7.061e-11\RMSF=2.646e-07\Zero
 Point=0.1043065\Thermal=0.1152423\Dipole=-0.3342438,2.1420187,-0.16790
 54\DipoleDeriv=-0.2719119,-0.2491024,-0.1881842,-0.1228503,-0.440555,-
 0.2410912,-0.0633096,-0.3152251,-0.5459255,1.3352547,0.277538,0.001479
 6,0.4550667,1.0782431,0.0657657,-0.0088523,0.0428581,1.1948917,-0.3585
 042,-0.2922784,0.2773506,-0.1664368,-0.3837115,0.1889362,0.1377924,0.2
 30629,-0.5161604,0.9880934,0.4462402,0.0827777,-0.1264275,1.0810502,-0
 .0707027,0.1161081,0.0032423,0.1609768,-0.9428983,-0.2939848,-0.082470
 5,0.1058552,-0.4674552,0.0308644,-0.1057528,-0.0207721,-0.1843079,-0.4
 353682,-0.1200108,-0.0310444,0.0159989,-0.7362803,0.0366976,-0.038957,
 0.019142,-0.1470752,1.2717317,0.6591213,-0.090943,0.8379414,0.7644456,
 0.1614505,-0.1013666,0.1383536,1.6577975,-0.8053152,-0.4798458,0.23352
 42,-0.5259371,-0.3631685,0.0653188,0.5829157,0.2712288,-0.6998748,-0.6
 116461,-0.413305,-0.1637843,-0.5495932,-0.421936,-0.2489864,-0.5025523
 ,-0.4313458,-0.8348049,0.1424276,0.1256077,0.1357096,0.002801,0.217763
 8,0.0453688,-0.0033258,-0.014864,0.2005838,0.1350374,0.0880865,0.08364
 46,0.0144155,0.0676804,0.0119258,-0.0077142,0.0174116,0.2082823,0.1094
 232,0.0364158,0.0093695,0.0048301,0.1645237,0.0608274,-0.0282163,0.007
 5727,0.0714828,0.1805348,0.1013165,-0.1546784,0.0144445,0.2156824,-0.0
 469338,-0.003437,0.0403063,0.1645418,0.1032336,0.0375606,-0.0064707,0.
 0249892,0.1561486,-0.0664913,0.0336844,-0.0075702,0.0860233,0.1599075,
 0.0766407,-0.1062803,0.0149022,0.0675687,0.0070502,-0.0070167,0.019032
 6,0.1835687\Polar=82.7136766,19.2747015,68.1620712,1.4798129,2.1633346
 ,62.6285685\Quadrupole=-3.0997435,2.0605157,1.0392278,1.8345505,-0.653
 7104,0.1828769\PG=C01 [X(C3H6N2O4)]\NImag=0\\0.56031080,-0.06189421,0.
 54392634,-0.01087779,-0.05760692,0.53154473,-0.10330950,0.03708161,0.0
 4675298,0.29961250,0.03963156,-0.11049841,-0.04916295,-0.12778165,0.38
 137642,0.06361609,-0.04970298,-0.20691762,-0.03105774,-0.00390172,0.59
 397087,0.01280777,0.00715699,0.00469336,-0.08219806,0.02185008,-0.0330
 2516,0.55093832,0.01016221,0.02808945,-0.01376490,0.02118549,-0.099610
 99,0.04326325,-0.07212936,0.55507349,0.00410842,0.00979454,-0.02449980
 ,-0.01597167,0.04312447,-0.23891491,0.02552451,0.03791690,0.52976782,-
 0.00314676,0.01403349,0.00973874,-0.05902492,0.07323221,0.00353216,0.0
 0603623,0.00595690,-0.01274180,0.84382398,0.02131478,-0.01284738,0.002
 26656,0.09073668,-0.08593074,0.00977299,0.01810991,-0.00963267,0.00512
 970,0.18286361,0.92794528,0.02145424,-0.02339283,0.01435296,0.00251265
 ,0.00751150,-0.11948452,-0.02558839,0.02828157,0.00195144,0.06375549,-
 0.01478834,0.27695535,0.00497999,0.00230016,0.00359725,-0.06389051,-0.
 00430988,-0.01121160,0.00537938,0.00228643,-0.00189334,-0.62950624,-0.
 18919602,-0.06031275,0.71027486,0.00027998,-0.00214549,-0.00407485,-0.
 01473617,-0.00054060,-0.00042525,-0.00062085,-0.00181371,0.00397637,-0
 .12794581,-0.15182531,-0.01219070,0.24207179,0.19514377,-0.00024375,0.
 00147822,-0.00197195,-0.01060418,0.00092111,0.02343081,0.00223554,-0.0
 0094108,-0.00270411,-0.06387799,-0.02010178,-0.08439153,0.07388578,0.0
 2160905,0.03745762,-0.00191164,0.00007645,-0.00214528,0.00051135,0.005
 07579,-0.00333983,-0.00298734,0.00078532,0.00194291,-0.15073806,-0.106
 32736,-0.00348350,-0.01721523,-0.10843538,0.00069478,0.17618080,0.0042
 7638,-0.00230499,0.00157555,-0.01725776,-0.06264594,0.00281762,0.00476
 851,-0.00262802,-0.00033591,-0.14891291,-0.67694653,0.01574230,-0.0595
 6965,-0.04029172,-0.00382136,0.20650238,0.78254531,-0.00237230,0.00187
 029,-0.00260790,-0.00203995,0.00570289,0.02348780,0.00169331,-0.001688
 74,-0.00120843,-0.00100547,0.02124155,-0.07723921,-0.00214877,-0.01013
 266,0.02657207,0.00722275,-0.01727915,0.02916711,0.00410379,0.00359578
 ,0.00208778,-0.02204378,-0.01690683,-0.00327428,0.00446781,0.00313690,
 -0.00109937,0.00060250,0.01875237,-0.00108272,0.00455234,-0.00627148,0
 .00083134,-0.00883327,-0.00377556,-0.00044283,0.28352610,0.00121113,0.
 00031908,0.00039245,-0.01731479,-0.02320446,-0.00024815,0.00131298,0.0
 0040366,-0.00023272,-0.00004259,0.01535903,-0.00086843,0.00630023,-0.0
 0513097,0.00116728,0.00391069,-0.00911853,0.00081995,0.15180466,0.1923
 4475,0.00040231,-0.00068662,-0.00077640,-0.00324965,-0.00019418,0.0105
 2627,0.00083136,0.00138595,-0.00122921,0.00001148,0.00155799,0.0004451
 4,0.00009865,-0.00045620,0.00098223,-0.00089041,-0.00017213,-0.0038072
 6,-0.14607746,0.08681288,1.32259732,-0.00514274,-0.00436621,-0.0032120
 7,0.01903499,0.01441317,0.00634300,-0.00733062,-0.00540678,0.00305005,
 -0.00353117,-0.01472057,0.00079403,-0.00308515,0.00491622,-0.00083042,
 0.00191097,0.00622138,-0.00015560,-0.17927885,-0.07771434,0.26806799,0
 .15323835,-0.00327307,-0.00230575,-0.00161057,0.01088032,0.01177968,0.
 00235062,-0.00431804,-0.00311301,0.00208918,-0.00085617,-0.00836383,0.
 00056636,-0.00302775,0.00278246,-0.00043971,0.00003871,0.00440411,-0.0
 0085102,-0.08440532,-0.06862344,0.11475483,0.06749170,0.04743804,0.002
 14270,0.00263990,0.00274326,-0.01537594,-0.01496439,-0.00887613,0.0063
 4830,0.00438913,-0.00229987,0.00315160,0.01252702,-0.00086656,0.002662
 13,-0.00417023,0.00033759,-0.00212512,-0.00565280,0.00184525,0.2499890
 8,0.09432108,-0.62955780,-0.27799742,-0.09599271,0.76885784,-0.0048202
 7,-0.00449458,-0.00323281,0.01534704,0.01002798,-0.00123025,-0.0050055
 8,-0.00335324,0.00161668,-0.00256873,-0.01122014,0.00007587,-0.0024063
 7,0.00376421,-0.00032749,0.00141375,0.00460585,-0.00049099,-0.08278688
 ,-0.06520923,-0.11986124,0.02109499,0.01576413,0.03548376,0.05772698,-
 0.00440567,-0.00399775,-0.00316582,0.01349685,0.01332863,-0.00160888,-
 0.00399221,-0.00246711,0.00128344,-0.00119752,-0.00998523,0.00016970,-
 0.00332192,0.00329691,-0.00075977,0.00010670,0.00520349,0.00051180,-0.
 06440062,-0.10292046,-0.20233726,0.01031804,0.01768429,0.00662749,0.05
 121228,0.08155087,-0.00659962,-0.00561915,-0.00392664,0.02049098,0.015
 71276,-0.00673388,-0.00376543,-0.00302235,0.00276851,-0.00367200,-0.01
 487472,-0.00020943,-0.00294447,0.00491164,-0.00085546,0.00210040,0.006
 69231,0.00154376,-0.10143866,-0.18114199,-0.69176341,0.00396080,-0.021
 33818,-0.13456762,0.08792596,0.19870972,0.83025997,-0.18261959,-0.1078
 8449,-0.05071707,0.00727632,0.00208170,-0.00501644,-0.00154796,-0.0021
 4442,0.00080711,-0.00194979,-0.00296588,-0.00008351,-0.00376202,0.0024
 6503,0.00028901,0.00084451,0.00030577,0.00020248,-0.00201857,-0.001716
 29,0.00087154,0.00185666,0.00111335,-0.00190770,0.00142107,0.00142645,
 0.00134561,0.19619590,-0.11499832,-0.12111501,-0.04611977,-0.01012872,
 -0.01467293,-0.00749128,-0.00124789,-0.00131889,0.00157943,0.00072992,
 0.00109926,-0.00117396,0.00241187,0.00034561,0.00078057,-0.00033249,0.
 00116219,-0.00022226,-0.00019301,0.00034500,0.00035804,0.00007918,-0.0
 0008367,-0.00013964,-0.00019193,-0.00036505,-0.00067214,0.12262829,0.1
 3272861,-0.06306785,-0.05058760,-0.05629112,-0.01972668,-0.01707010,-0
 .01420288,0.00394509,0.00378083,0.00143334,0.00060435,-0.00069821,-0.0
 0038370,0.00026761,0.00094268,0.00027974,-0.00037271,0.00121903,0.0000
 4367,0.00262546,0.00151340,-0.00106281,-0.00144185,-0.00056654,0.00182
 937,-0.00127196,-0.00112967,-0.00126749,0.06360920,0.05240483,0.064710
 81,-0.05505869,-0.01936653,0.03873454,-0.00257175,-0.00923133,0.000671
 73,0.00096387,0.00114709,0.00130039,0.00017651,-0.00178396,0.00086485,
 -0.00143204,0.00070415,-0.00025387,0.00004599,0.00067000,-0.00008456,-
 0.00071832,-0.00064123,-0.00154426,-0.00063249,-0.00055906,-0.00034852
 ,0.00048009,0.00049106,0.00134712,-0.00300055,-0.01317343,0.01652433,0
 .05243050,-0.02186371,-0.16806682,0.13689753,0.00257029,0.01486582,-0.
 01390233,-0.00069301,-0.00391283,-0.00314487,0.00090490,0.00272584,0.0
 0004158,-0.00025598,-0.00038448,-0.00022581,-0.00049938,-0.00096940,0.
 00029585,0.00002103,-0.00018741,-0.00088023,-0.00113840,-0.00120251,-0
 .00012256,-0.00032520,-0.00001580,0.00011540,-0.00150375,-0.01020044,0
 .01404959,0.02861896,0.17399452,0.03606247,0.13648381,-0.19034277,0.00
 558300,0.01575217,-0.02609749,0.00109191,-0.00394846,-0.00073324,-0.00
 150227,-0.00034153,0.00097150,-0.00142252,0.00056710,-0.00050501,-0.00
 012761,-0.00089872,0.00018223,0.00071896,0.00017408,-0.00267701,-0.000
 46361,-0.00007364,0.00144360,0.00017108,0.00027343,0.00097150,-0.00284
 983,-0.00654177,0.00770976,-0.03844925,-0.14160915,0.20987129,-0.22720
 576,0.13587447,-0.03396319,-0.00609614,0.00096396,-0.00420205,-0.00012
 549,-0.00089366,-0.00036408,0.00114964,-0.00017260,0.00016117,0.000469
 31,0.00022269,0.00041552,-0.00009774,0.00081638,0.00002004,0.00028568,
 -0.00016086,-0.00024946,-0.00019120,-0.00005117,0.00013366,-0.00006037
 ,-0.00010836,0.00001982,-0.01377233,0.01355040,-0.00203845,0.00819264,
 -0.00565591,0.00025356,0.23666446,0.13452905,-0.14213188,0.03462976,0.
 01286775,-0.01455261,-0.00267738,-0.00245204,-0.00169744,0.00141467,0.
 00020668,0.00192657,-0.00376400,0.00092584,0.00045052,0.00109310,-0.00
 010130,0.00063736,0.00037064,-0.00017826,0.00017488,-0.00143144,-0.000
 16131,-0.00011331,0.00069055,0.00036993,-0.00003345,0.00063647,-0.0146
 8756,0.01153398,-0.00207159,0.01313625,-0.00741590,-0.00068407,-0.1443
 9344,0.14989652,-0.03995722,0.03511651,-0.06041836,0.02670190,-0.01806
 089,0.00676138,0.00022983,0.00023989,0.00014407,-0.00126774,-0.0021467
 8,-0.00633395,0.00036373,0.00032064,0.00083007,0.00055435,-0.00169648,
 0.00100082,0.00042554,0.00025616,0.00027758,-0.00010626,-0.00029285,0.
 00013450,-0.00015424,-0.00022252,-0.00037995,-0.00675657,0.00673993,-0
 .00135614,-0.01875364,0.00879558,-0.00035334,0.03931983,-0.02879274,0.
 06036615,-0.00022249,-0.00127148,-0.00112200,-0.00037032,-0.00150385,0
 .00899149,-0.20595222,-0.11369984,0.02587450,-0.00175969,-0.00301147,0
 .00009744,-0.00328898,0.00251718,-0.00154318,0.00075474,0.00060504,-0.
 00008491,-0.00112102,-0.00134871,-0.00073797,0.00127749,0.00098595,-0.
 00079139,0.00104883,0.00110539,0.00158607,0.00072024,0.00038219,-0.000
 02387,0.00017501,0.00004447,0.00044847,0.00017447,0.00001481,-0.000030
 75,0.22283781,-0.00132373,-0.00194892,-0.00159162,-0.00912912,-0.01194
 946,0.00514588,-0.11799208,-0.11235093,0.02404162,0.00033939,0.0012586
 2,0.00110883,0.00242815,0.00021850,-0.00016395,-0.00030782,0.00103398,
 0.00002813,-0.00037756,0.00008040,-0.00061816,-0.00015489,-0.00015460,
 0.00050179,0.00016599,0.00004416,0.00042860,0.00055063,0.00041081,-0.0
 0057683,0.00031930,-0.00005622,0.00027742,0.00011793,0.00033210,-0.000
 21180,0.12701315,0.12330445,-0.00430814,-0.00390145,0.00073668,0.02485
 813,0.01728622,-0.00927947,0.03889013,0.02997705,-0.04172733,-0.001000
 18,-0.00027547,-0.00073115,-0.00151319,-0.00030856,-0.00006595,0.00058
 043,-0.00121330,0.00026076,-0.00263692,-0.00209608,-0.00169433,0.00198
 652,0.00131474,-0.00133453,0.00123447,0.00111064,0.00250761,0.00061348
 ,0.00044254,-0.00173290,-0.00062553,0.00066234,-0.00001103,0.00023696,
 0.00060001,0.00016271,-0.03830618,-0.02865828,0.04749640,-0.00018354,-
 0.00079187,0.00035279,0.00035547,-0.00354125,0.00300504,-0.23045089,0.
 13940032,-0.02770889,0.00037834,-0.00049310,0.00172298,0.00070553,0.00
 023759,-0.00049637,0.00011852,0.00033639,-0.00029823,0.00031889,-0.000
 05964,0.00029115,-0.00010838,-0.00015417,0.00006003,-0.00016503,-0.000
 14733,-0.00020667,0.00022764,0.00003553,-0.00023522,0.00015501,0.00002
 102,0.00015604,0.00028576,-0.00012066,-0.00006600,-0.01512237,0.014930
 57,-0.00331775,0.24023461,-0.00205780,-0.00190911,-0.00175520,0.008259
 73,-0.01175560,0.00720773,0.13866896,-0.14495249,0.01129767,-0.0003760
 2,0.00249219,0.00274085,0.00111536,0.00031034,-0.00078083,-0.00008339,
 0.00080188,-0.00038160,-0.00058074,0.00030443,0.00132682,0.00054232,-0
 .00008094,-0.00055064,0.00002303,-0.00015834,-0.00067482,0.00017220,0.
 00028728,-0.00059339,0.00011331,-0.00000952,-0.00001422,-0.00007944,0.
 00098275,-0.00018115,-0.01388804,0.01082948,-0.00293494,-0.14635320,0.
 15095938,-0.00007703,-0.00021686,0.00041411,-0.02927754,0.01953851,-0.
 00248685,-0.02159363,0.01107622,-0.05435975,0.00312315,0.00105982,-0.0
 0612714,-0.00053696,-0.00021271,0.00073434,-0.00075474,0.00185789,0.00
 062012,-0.00035229,-0.00029045,0.00011474,0.00016568,0.00015622,-0.000
 28430,0.00002973,0.00030035,0.00015349,0.00003078,0.00021396,0.0001539
 4,0.00049643,-0.00011078,0.00032422,0.00040921,-0.00007508,-0.00096823
 ,0.00472295,-0.00438188,0.00069962,0.02564414,-0.02015720,0.05573756,0
 .00141862,-0.00004960,-0.00068722,-0.00263270,-0.00400165,0.00619784,-
 0.04499520,0.01356665,-0.00444541,0.00005816,-0.00188625,-0.00088784,-
 0.00177486,0.00083084,-0.00017473,0.00000266,0.00040780,-0.00001498,-0
 .00105642,-0.00033202,0.00203596,0.00088715,0.00037059,-0.00142516,-0.
 00071952,-0.00058315,-0.00014991,0.00012846,0.00044840,0.00060255,0.00
 079422,-0.00024535,0.00032960,0.00032707,0.00004425,-0.00050276,0.0008
 4850,-0.01657992,-0.01669224,0.00325044,0.01452371,0.01797013,0.043463
 41,-0.00158859,-0.00306336,0.00309075,-0.00073052,0.01401119,0.0093998
 9,0.01157803,-0.20006851,-0.13793449,0.00106391,0.00272490,0.00001556,
 -0.00015864,-0.00041583,0.00018497,-0.00040892,-0.00088320,-0.00028567
 ,-0.00022136,-0.00014595,0.00057972,-0.00031951,-0.00004750,-0.0001040
 1,-0.00113908,-0.00116516,0.00013645,0.00015896,-0.00015676,-0.0006164
 4,-0.00044458,0.00083515,0.00058355,-0.00003038,0.00000992,0.00013649,
 0.00205519,-0.01105237,-0.01200547,-0.00330020,-0.00810173,-0.00875802
 ,-0.00651430,0.20751919,-0.00028253,0.00433114,-0.00203918,0.00040371,
 -0.02219539,-0.02518339,-0.00151073,-0.13694526,-0.16838854,0.00115049
 ,-0.00032882,0.00109079,0.00110844,-0.00035632,-0.00013047,0.00014359,
 0.00116515,0.00013920,-0.00027363,-0.00057948,-0.00237506,-0.00016086,
 -0.00006673,0.00059537,0.00003144,0.00023735,0.00149903,-0.00043808,-0
 .00015848,0.00013642,0.00012025,-0.00086215,-0.00075423,-0.00015254,0.
 00006111,0.00013270,0.00091934,0.00467026,0.00471293,0.00109697,0.0054
 5092,0.00527412,-0.00215584,0.14557671,0.18529031\\0.00000026,-0.00000
 009,0.00000011,0.00000010,-0.00000010,0.00000023,0.00000034,0.00000016
 ,0.00000009,-0.00000062,-0.00000064,-0.00000004,0.00000004,-0.00000038
 ,0.00000006,-0.00000044,-0.00000019,-0.00000015,-0.00000025,0.00000044
 ,-0.00000014,-0.00000031,0.00000052,-0.00000003,-0.00000041,0.00000037
 ,-0.00000016,0.00000023,-0.00000001,-0.00000008,0.00000015,0.00000003,
 0.00000007,0.00000024,0.00000009,0.00000007,0.00000036,-0.00000041,-0.
 00000005,0.00000039,0.00000023,0.00000004,-0.00000008,-0.00000002,-0.0
 0000002\\\@


 EXPERIENCE IS THE FRUIT OF THE TREE OF ERRORS.
 Job cpu time:       0 days  0 hours  7 minutes 51.5 seconds.
 Elapsed time:       0 days  0 hours  1 minutes 58.8 seconds.
 File lengths (MBytes):  RWF=     78 Int=      0 D2E=      0 Chk=      3 Scr=      1
 Normal termination of Gaussian 16 at Tue Jul 11 00:22:37 2023.
real 3782.27
user 13983.08
sys 50.08
