 Entering Gaussian System, Link 0=g16
 Input=gaussian_test.inp
 Output=gaussian_test.log
 Initial command:
 /sw/restricted/lms/sw/Gaussian/g16_B01/g16/l1.exe "/scratch/user/peterchao1/peterchao1/9993849_1712002038000000040651458/Gau-32642.inp" -scrdir="/scratch/user/peterchao1/peterchao1/9993849_1712002038000000040651458/"
 Entering Link 1 = /sw/restricted/lms/sw/Gaussian/g16_B01/g16/l1.exe PID=     32643.
  
 Copyright (c) 1988-2017, Gaussian, Inc.  All Rights Reserved.
  
 This is part of the Gaussian(R) 16 program.  It is based on
 the Gaussian(R) 09 system (copyright 2009, Gaussian, Inc.),
 the Gaussian(R) 03 system (copyright 2003, Gaussian, Inc.),
 the Gaussian(R) 98 system (copyright 1998, Gaussian, Inc.),
 the Gaussian(R) 94 system (copyright 1995, Gaussian, Inc.),
 the Gaussian 92(TM) system (copyright 1992, Gaussian, Inc.),
 the Gaussian 90(TM) system (copyright 1990, Gaussian, Inc.),
 the Gaussian 88(TM) system (copyright 1988, Gaussian, Inc.),
 the Gaussian 86(TM) system (copyright 1986, Carnegie Mellon
 University), and the Gaussian 82(TM) system (copyright 1983,
 Carnegie Mellon University). Gaussian is a federally registered
 trademark of Gaussian, Inc.
  
 This software contains proprietary and confidential information,
 including trade secrets, belonging to Gaussian, Inc.
  
 This software is provided under written license and may be
 used, copied, transmitted, or stored only in accord with that
 written license.
  
 The following legend is applicable only to US Government
 contracts under FAR:
  
                    RESTRICTED RIGHTS LEGEND
  
 Use, reproduction and disclosure by the US Government is
 subject to restrictions as set forth in subparagraphs (a)
 and (c) of the Commercial Computer Software - Restricted
 Rights clause in FAR 52.227-19.
  
 Gaussian, Inc.
 340 Quinnipiac St., Bldg. 40, Wallingford CT 06492
  
  
 ---------------------------------------------------------------
 Warning -- This program may not be used in any manner that
 competes with the business of Gaussian, Inc. or will provide
 assistance to any competitor of Gaussian, Inc.  The licensee
 of this program is prohibited from giving any competitor of
 Gaussian, Inc. access to this program.  By using this program,
 the user acknowledges that Gaussian, Inc. is engaged in the
 business of creating and licensing software in the field of
 computational chemistry and represents and warrants to the
 licensee that it is not a competitor of Gaussian, Inc. and that
 it will not use this program in any manner prohibited above.
 ---------------------------------------------------------------
  

 Cite this work as:
 Gaussian 16, Revision B.01,
 M. J. Frisch, G. W. Trucks, H. B. Schlegel, G. E. Scuseria, 
 M. A. Robb, J. R. Cheeseman, G. Scalmani, V. Barone, 
 G. A. Petersson, H. Nakatsuji, X. Li, M. Caricato, A. V. Marenich, 
 J. Bloino, B. G. Janesko, R. Gomperts, B. Mennucci, H. P. Hratchian, 
 J. V. Ortiz, A. F. Izmaylov, J. L. Sonnenberg, D. Williams-Young, 
 F. Ding, F. Lipparini, F. Egidi, J. Goings, B. Peng, A. Petrone, 
 T. Henderson, D. Ranasinghe, V. G. Zakrzewski, J. Gao, N. Rega, 
 G. Zheng, W. Liang, M. Hada, M. Ehara, K. Toyota, R. Fukuda, 
 J. Hasegawa, M. Ishida, T. Nakajima, Y. Honda, O. Kitao, H. Nakai, 
 T. Vreven, K. Throssell, J. A. Montgomery, Jr., J. E. Peralta, 
 F. Ogliaro, M. J. Bearpark, J. J. Heyd, E. N. Brothers, K. N. Kudin, 
 V. N. Staroverov, T. A. Keith, R. Kobayashi, J. Normand, 
 K. Raghavachari, A. P. Rendell, J. C. Burant, S. S. Iyengar, 
 J. Tomasi, M. Cossi, J. M. Millam, M. Klene, C. Adamo, R. Cammi, 
 J. W. Ochterski, R. L. Martin, K. Morokuma, O. Farkas, 
 J. B. Foresman, and D. J. Fox, Gaussian, Inc., Wallingford CT, 2016.
 
 ******************************************
 Gaussian 16:  ES64L-G16RevB.01 20-Dec-2017
                 1-Apr-2024 
 ******************************************
 %nprocshared=4
 Will use up to    4 processors via shared memory.
 %mem=8000mb
 %chk=dimer.chk
 %nprocshared=4
 Will use up to    4 processors via shared memory.
 %mem=8000mb
 ----------------------------------------------------------------------
 #T wB97XD/def2svpp opt=tight freq int(grid=ultrafine) scf=(verytight,q
 c) Volume=tight
 ----------------------------------------------------------------------
 -----
 Dimer
 -----
 Symbolic Z-matrix:
 Charge =  0 Multiplicity = 1
 C                    -3.39839  -1.04746   0.83725 
 C                    -2.10883  -0.34766   0.39678 
 N                    -1.25885  -1.19476  -0.43638 
 C                    -2.43163   0.9497   -0.37131 
 N                    -1.29977   1.79812  -0.67296 
 H                    -3.97343  -0.4056    1.49914 
 H                    -3.17075  -1.97156   1.36746 
 H                    -4.01202  -1.28736  -0.03013 
 H                    -1.51901  -0.09031   1.28684 
 H                    -1.74793  -1.42286  -1.29782 
 H                    -1.06469  -2.06872   0.04341 
 H                    -3.14299   1.53543   0.21755 
 H                    -2.91324   0.68683  -1.31914 
 H                    -0.61083   1.28242  -1.21178 
 H                    -0.84855   2.09382   0.18721 
 C                     2.58648  -1.87765   0.09888 
 C                     2.44096  -0.38813  -0.23406 
 N                     1.46926  -0.11672  -1.28348 
 C                     2.01697   0.4091    1.01316 
 N                     1.95725   1.84428   0.80727 
 H                     3.34651  -2.02875   0.86151 
 H                     2.87162  -2.43995  -0.78914 
 H                     1.64021  -2.26911   0.46814 
 H                     3.41104  -0.00509  -0.58174 
 H                     0.56288  -0.50145  -1.00728 
 H                     1.74669  -0.57351  -2.14588 
 H                     2.70751   0.20571   1.83549 
 H                     1.01836   0.07701   1.31297 
 H                     1.40649   2.02283  -0.02824 
 H                     2.88997   2.20141   0.62206 
 
 Add virtual bond connecting atoms H25        and N3         Dist= 3.84D+00.
 Add virtual bond connecting atoms H25        and H14        Dist= 4.05D+00.

 GradGradGradGradGradGradGradGradGradGradGradGradGradGradGradGradGradGrad
 Initialization pass.
                           ----------------------------
                           !    Initial Parameters    !
                           ! (Angstroms and Degrees)  !
 --------------------------                            --------------------------
 ! Name  Definition              Value          Derivative Info.                !
 --------------------------------------------------------------------------------
 ! R1    R(1,2)                  1.5319         estimate D2E/DX2                !
 ! R2    R(1,6)                  1.0866         estimate D2E/DX2                !
 ! R3    R(1,7)                  1.0895         estimate D2E/DX2                !
 ! R4    R(1,8)                  1.0892         estimate D2E/DX2                !
 ! R5    R(2,3)                  1.4609         estimate D2E/DX2                !
 ! R6    R(2,4)                  1.5419         estimate D2E/DX2                !
 ! R7    R(2,9)                  1.0983         estimate D2E/DX2                !
 ! R8    R(3,10)                 1.0165         estimate D2E/DX2                !
 ! R9    R(3,11)                 1.0157         estimate D2E/DX2                !
 ! R10   R(3,25)                 2.0311         estimate D2E/DX2                !
 ! R11   R(4,5)                  1.4463         estimate D2E/DX2                !
 ! R12   R(4,12)                 1.0936         estimate D2E/DX2                !
 ! R13   R(4,13)                 1.0952         estimate D2E/DX2                !
 ! R14   R(5,14)                 1.0153         estimate D2E/DX2                !
 ! R15   R(5,15)                 1.0153         estimate D2E/DX2                !
 ! R16   R(14,25)                2.1451         estimate D2E/DX2                !
 ! R17   R(16,17)                1.5332         estimate D2E/DX2                !
 ! R18   R(16,21)                1.0872         estimate D2E/DX2                !
 ! R19   R(16,22)                1.0891         estimate D2E/DX2                !
 ! R20   R(16,23)                1.0886         estimate D2E/DX2                !
 ! R21   R(17,18)                1.4557         estimate D2E/DX2                !
 ! R22   R(17,19)                1.5398         estimate D2E/DX2                !
 ! R23   R(17,24)                1.0994         estimate D2E/DX2                !
 ! R24   R(18,25)                1.0227         estimate D2E/DX2                !
 ! R25   R(18,26)                1.0146         estimate D2E/DX2                !
 ! R26   R(19,20)                1.4511         estimate D2E/DX2                !
 ! R27   R(19,27)                1.0929         estimate D2E/DX2                !
 ! R28   R(19,28)                1.0943         estimate D2E/DX2                !
 ! R29   R(20,29)                1.0165         estimate D2E/DX2                !
 ! R30   R(20,30)                1.0158         estimate D2E/DX2                !
 ! A1    A(2,1,6)              110.5355         estimate D2E/DX2                !
 ! A2    A(2,1,7)              110.5804         estimate D2E/DX2                !
 ! A3    A(2,1,8)              110.236          estimate D2E/DX2                !
 ! A4    A(6,1,7)              108.3706         estimate D2E/DX2                !
 ! A5    A(6,1,8)              108.4833         estimate D2E/DX2                !
 ! A6    A(7,1,8)              108.5691         estimate D2E/DX2                !
 ! A7    A(1,2,3)              112.8845         estimate D2E/DX2                !
 ! A8    A(1,2,4)              110.5715         estimate D2E/DX2                !
 ! A9    A(1,2,9)              109.0323         estimate D2E/DX2                !
 ! A10   A(3,2,4)              109.0022         estimate D2E/DX2                !
 ! A11   A(3,2,9)              106.5939         estimate D2E/DX2                !
 ! A12   A(4,2,9)              108.6006         estimate D2E/DX2                !
 ! A13   A(2,3,10)             109.4808         estimate D2E/DX2                !
 ! A14   A(2,3,11)             109.922          estimate D2E/DX2                !
 ! A15   A(2,3,25)             118.9614         estimate D2E/DX2                !
 ! A16   A(10,3,11)            107.4094         estimate D2E/DX2                !
 ! A17   A(10,3,25)            105.6604         estimate D2E/DX2                !
 ! A18   A(11,3,25)            104.7753         estimate D2E/DX2                !
 ! A19   A(2,4,5)              115.6988         estimate D2E/DX2                !
 ! A20   A(2,4,12)             108.5796         estimate D2E/DX2                !
 ! A21   A(2,4,13)             108.7376         estimate D2E/DX2                !
 ! A22   A(5,4,12)             107.8893         estimate D2E/DX2                !
 ! A23   A(5,4,13)             107.7244         estimate D2E/DX2                !
 ! A24   A(12,4,13)            107.9702         estimate D2E/DX2                !
 ! A25   A(4,5,14)             110.1048         estimate D2E/DX2                !
 ! A26   A(4,5,15)             109.9941         estimate D2E/DX2                !
 ! A27   A(14,5,15)            107.2142         estimate D2E/DX2                !
 ! A28   A(5,14,25)            137.9913         estimate D2E/DX2                !
 ! A29   A(17,16,21)           110.7133         estimate D2E/DX2                !
 ! A30   A(17,16,22)           110.4495         estimate D2E/DX2                !
 ! A31   A(17,16,23)           109.908          estimate D2E/DX2                !
 ! A32   A(21,16,22)           108.4924         estimate D2E/DX2                !
 ! A33   A(21,16,23)           108.6477         estimate D2E/DX2                !
 ! A34   A(22,16,23)           108.5727         estimate D2E/DX2                !
 ! A35   A(16,17,18)           113.6429         estimate D2E/DX2                !
 ! A36   A(16,17,19)           110.6858         estimate D2E/DX2                !
 ! A37   A(16,17,24)           108.8691         estimate D2E/DX2                !
 ! A38   A(18,17,19)           107.6735         estimate D2E/DX2                !
 ! A39   A(18,17,24)           107.2207         estimate D2E/DX2                !
 ! A40   A(19,17,24)           108.5866         estimate D2E/DX2                !
 ! A41   A(17,18,25)           109.0723         estimate D2E/DX2                !
 ! A42   A(17,18,26)           110.2608         estimate D2E/DX2                !
 ! A43   A(25,18,26)           107.6109         estimate D2E/DX2                !
 ! A44   A(17,19,20)           114.1092         estimate D2E/DX2                !
 ! A45   A(17,19,27)           109.8241         estimate D2E/DX2                !
 ! A46   A(17,19,28)           108.4264         estimate D2E/DX2                !
 ! A47   A(20,19,27)           108.4708         estimate D2E/DX2                !
 ! A48   A(20,19,28)           107.5459         estimate D2E/DX2                !
 ! A49   A(27,19,28)           108.2996         estimate D2E/DX2                !
 ! A50   A(19,20,29)           108.2192         estimate D2E/DX2                !
 ! A51   A(19,20,30)           109.6218         estimate D2E/DX2                !
 ! A52   A(29,20,30)           106.6122         estimate D2E/DX2                !
 ! A53   A(3,25,14)             79.6246         estimate D2E/DX2                !
 ! A54   A(14,25,18)            98.4148         estimate D2E/DX2                !
 ! A55   L(3,25,18,14,-1)      178.0394         estimate D2E/DX2                !
 ! A56   L(3,25,18,14,-2)      179.0308         estimate D2E/DX2                !
 ! D1    D(6,1,2,3)            176.787          estimate D2E/DX2                !
 ! D2    D(6,1,2,4)            -60.8072         estimate D2E/DX2                !
 ! D3    D(6,1,2,9)             58.5242         estimate D2E/DX2                !
 ! D4    D(7,1,2,3)             56.7775         estimate D2E/DX2                !
 ! D5    D(7,1,2,4)            179.1833         estimate D2E/DX2                !
 ! D6    D(7,1,2,9)            -61.4853         estimate D2E/DX2                !
 ! D7    D(8,1,2,3)            -63.2855         estimate D2E/DX2                !
 ! D8    D(8,1,2,4)             59.1202         estimate D2E/DX2                !
 ! D9    D(8,1,2,9)            178.4517         estimate D2E/DX2                !
 ! D10   D(1,2,3,10)            63.0564         estimate D2E/DX2                !
 ! D11   D(1,2,3,11)           -54.7038         estimate D2E/DX2                !
 ! D12   D(1,2,3,25)          -175.4084         estimate D2E/DX2                !
 ! D13   D(4,2,3,10)           -60.2239         estimate D2E/DX2                !
 ! D14   D(4,2,3,11)          -177.9842         estimate D2E/DX2                !
 ! D15   D(4,2,3,25)            61.3112         estimate D2E/DX2                !
 ! D16   D(9,2,3,10)          -177.2654         estimate D2E/DX2                !
 ! D17   D(9,2,3,11)            64.9743         estimate D2E/DX2                !
 ! D18   D(9,2,3,25)           -55.7302         estimate D2E/DX2                !
 ! D19   D(1,2,4,5)            171.4881         estimate D2E/DX2                !
 ! D20   D(1,2,4,12)            50.0613         estimate D2E/DX2                !
 ! D21   D(1,2,4,13)           -67.1791         estimate D2E/DX2                !
 ! D22   D(3,2,4,5)            -63.863          estimate D2E/DX2                !
 ! D23   D(3,2,4,12)           174.7102         estimate D2E/DX2                !
 ! D24   D(3,2,4,13)            57.4698         estimate D2E/DX2                !
 ! D25   D(9,2,4,5)             51.8962         estimate D2E/DX2                !
 ! D26   D(9,2,4,12)           -69.5305         estimate D2E/DX2                !
 ! D27   D(9,2,4,13)           173.2291         estimate D2E/DX2                !
 ! D28   D(2,3,25,14)          -40.0334         estimate D2E/DX2                !
 ! D29   D(10,3,25,14)          83.4023         estimate D2E/DX2                !
 ! D30   D(11,3,25,14)        -163.313          estimate D2E/DX2                !
 ! D31   D(2,4,5,14)            57.5424         estimate D2E/DX2                !
 ! D32   D(2,4,5,15)           -60.3976         estimate D2E/DX2                !
 ! D33   D(12,4,5,14)          179.3386         estimate D2E/DX2                !
 ! D34   D(12,4,5,15)           61.3986         estimate D2E/DX2                !
 ! D35   D(13,4,5,14)          -64.3329         estimate D2E/DX2                !
 ! D36   D(13,4,5,15)          177.7271         estimate D2E/DX2                !
 ! D37   D(4,5,14,25)          -57.7972         estimate D2E/DX2                !
 ! D38   D(15,5,14,25)          61.8458         estimate D2E/DX2                !
 ! D39   D(5,14,25,3)           46.8089         estimate D2E/DX2                !
 ! D40   D(5,14,25,18)        -132.2219         estimate D2E/DX2                !
 ! D41   D(21,16,17,18)        178.0301         estimate D2E/DX2                !
 ! D42   D(21,16,17,19)        -60.6679         estimate D2E/DX2                !
 ! D43   D(21,16,17,24)         58.6135         estimate D2E/DX2                !
 ! D44   D(22,16,17,18)         57.8378         estimate D2E/DX2                !
 ! D45   D(22,16,17,19)        179.1397         estimate D2E/DX2                !
 ! D46   D(22,16,17,24)        -61.5788         estimate D2E/DX2                !
 ! D47   D(23,16,17,18)        -61.9359         estimate D2E/DX2                !
 ! D48   D(23,16,17,19)         59.3661         estimate D2E/DX2                !
 ! D49   D(23,16,17,24)        178.6476         estimate D2E/DX2                !
 ! D50   D(16,17,18,25)         57.0374         estimate D2E/DX2                !
 ! D51   D(16,17,18,26)        -60.923          estimate D2E/DX2                !
 ! D52   D(19,17,18,25)        -65.9328         estimate D2E/DX2                !
 ! D53   D(19,17,18,26)        176.1068         estimate D2E/DX2                !
 ! D54   D(24,17,18,25)        177.3886         estimate D2E/DX2                !
 ! D55   D(24,17,18,26)         59.4282         estimate D2E/DX2                !
 ! D56   D(16,17,19,20)        175.4875         estimate D2E/DX2                !
 ! D57   D(16,17,19,27)         53.4624         estimate D2E/DX2                !
 ! D58   D(16,17,19,28)        -64.6959         estimate D2E/DX2                !
 ! D59   D(18,17,19,20)        -59.7472         estimate D2E/DX2                !
 ! D60   D(18,17,19,27)        178.2277         estimate D2E/DX2                !
 ! D61   D(18,17,19,28)         60.0694         estimate D2E/DX2                !
 ! D62   D(24,17,19,20)         56.0359         estimate D2E/DX2                !
 ! D63   D(24,17,19,27)        -65.9893         estimate D2E/DX2                !
 ! D64   D(24,17,19,28)        175.8525         estimate D2E/DX2                !
 ! D65   D(17,18,25,14)        125.3687         estimate D2E/DX2                !
 ! D66   D(26,18,25,14)       -115.0162         estimate D2E/DX2                !
 ! D67   D(17,19,20,29)         50.341          estimate D2E/DX2                !
 ! D68   D(17,19,20,30)        -65.5643         estimate D2E/DX2                !
 ! D69   D(27,19,20,29)        173.1067         estimate D2E/DX2                !
 ! D70   D(27,19,20,30)         57.2014         estimate D2E/DX2                !
 ! D71   D(28,19,20,29)        -69.9695         estimate D2E/DX2                !
 ! D72   D(28,19,20,30)        174.1252         estimate D2E/DX2                !
 --------------------------------------------------------------------------------
 Number of steps in this run=    168 maximum allowed number of steps=    180.
 GradGradGradGradGradGradGradGradGradGradGradGradGradGradGradGradGradGrad

                    Distance matrix (angstroms):
                    1          2          3          4          5
     1  C    0.000000
     2  C    1.531895   0.000000
     3  N    2.494285   1.460891   0.000000
     4  C    2.526637   1.541855   2.445068   0.000000
     5  N    3.844763   2.530469   3.002492   1.446334   0.000000
     6  H    1.086627   2.166865   3.426073   2.777156   4.089355
     7  H    1.089453   2.169547   2.740916   3.478992   4.676997
     8  H    1.089235   2.165047   2.784518   2.760161   4.158082
     9  H    2.156468   1.098323   2.063245   2.159619   2.730389
    10  H    2.724606   2.039117   1.016518   2.637219   3.311493
    11  H    2.668200   2.043803   1.015727   3.339366   3.939653
    12  H    2.668438   2.155840   3.381057   1.093557   2.063843
    13  H    2.809467   2.159081   2.656434   1.095186   2.062954
    14  H    4.171007   2.736532   2.675363   2.032826   1.015342
    15  H    4.097785   2.755544   3.372233   2.031519   1.015349
    16  C    6.087128   4.947278   3.942011   5.778965   5.404630
    17  C    5.973307   4.593488   3.792119   5.054768   4.354924
    18  N    5.390526   3.959711   3.053249   4.145624   3.421531
    19  C    5.610586   4.239672   3.924864   4.690313   3.971547
    20  N    6.086539   4.637466   4.596274   4.631583   3.577909
    21  H    6.815949   5.727363   4.856889   6.616481   6.211878
    22  H    6.625492   5.530723   4.328474   6.307828   5.947706
    23  H    5.197705   4.213349   3.221324   5.257877   5.146646
    24  H    7.033375   5.616383   4.821235   5.923902   5.044960
    25  H    4.403646   3.022098   2.031088   3.387830   2.978134
    26  H    5.966203   4.623981   3.513068   4.788282   4.132202
    27  H    6.312604   5.056995   4.780663   5.642180   4.988627
    28  H    4.582401   3.286185   3.140590   3.937099   3.504260
    29  H    5.767379   4.261144   4.198042   4.000056   2.791064
    30  H    7.081303   5.615729   5.465065   5.556336   4.403821
                    6          7          8          9         10
     6  H    0.000000
     7  H    1.764613   0.000000
     8  H    1.765689   1.768934   0.000000
     9  H    2.483685   2.504765   3.063078   0.000000
    10  H    3.716274   3.070706   2.598365   2.916946   0.000000
    11  H    3.653201   2.489582   3.050025   2.380465   1.637943
    12  H    2.469759   3.690802   2.963897   2.534509   3.604721
    13  H    3.203137   3.788289   2.601204   3.055968   2.410227
    14  H    4.637409   4.877908   4.423585   2.992029   2.935797
    15  H    4.211074   4.828339   4.635420   2.535567   3.921889
    16  C    6.867326   5.896087   6.626109   4.632588   4.576546
    17  C    6.644448   6.046765   6.518519   4.252427   4.443987
    18  N    6.119584   5.656641   5.743315   3.941695   3.472247
    19  C    6.065053   5.718873   6.349422   3.581544   4.782385
    20  N    6.380728   6.416449   6.792686   4.007118   5.369726
    21  H    7.524806   6.537116   7.449333   5.254681   5.566246
    22  H    7.498632   6.432767   7.020610   5.395188   4.757460
    23  H    6.004046   4.903325   5.758451   3.924036   3.913343
    24  H    7.682504   7.140469   7.553161   5.272966   5.397943
    25  H    5.183579   4.662683   4.743647   3.125104   2.504648
    26  H    6.784853   6.203174   6.176467   4.762546   3.694995
    27  H    6.717280   6.285976   7.131751   4.272247   5.685141
    28  H    5.018519   4.663497   5.382387   2.543007   4.088788
    29  H    6.097029   6.233319   6.349616   3.841008   4.840974
    30  H    7.394051   7.396046   7.761070   5.013274   6.191230
                   11         12         13         14         15
    11  H    0.000000
    12  H    4.164076   0.000000
    13  H    3.587019   1.770396   0.000000
    14  H    3.607157   2.918703   2.380619   0.000000
    15  H    4.170623   2.361605   2.917472   1.634640   0.000000
    16  C    3.656595   6.670088   6.231719   4.682592   5.251648
    17  C    3.897559   5.923216   5.567796   3.613867   4.142265
    18  N    3.462926   5.124013   4.455699   2.507883   3.524432
    19  C    4.071445   5.341052   5.461112   3.552234   3.425154
    20  N    5.002716   5.143506   5.439025   3.314705   2.884315
    21  H    4.486599   7.431798   7.163380   5.560829   5.920196
    22  H    4.040481   7.279597   6.597136   5.114884   5.945411
    23  H    2.745367   6.116887   5.715404   4.527984   5.030703
    24  H    4.968053   6.779921   6.404608   4.269662   4.810484
    25  H    2.491843   4.402566   3.686829   2.145134   3.186591
    26  H    3.864266   5.826014   4.897649   3.142439   4.392406
    27  H    4.755429   6.214037   6.463434   4.632115   4.350554
    28  H    3.248851   4.543537   4.770462   3.237526   2.969876
    29  H    4.780450   4.582113   4.702278   2.453277   2.266421
    30  H    5.848773   6.083068   6.303919   4.057471   3.765257
                   16         17         18         19         20
    16  C    0.000000
    17  C    1.533204   0.000000
    18  N    2.502002   1.455727   0.000000
    19  C    2.527740   1.539771   2.418891   0.000000
    20  N    3.840634   2.510369   2.907723   1.451099   0.000000
    21  H    1.087224   2.170699   3.432332   2.780965   4.115008
    22  H    1.089068   2.168768   2.758330   3.477899   4.662526
    23  H    1.088595   2.161574   2.780327   2.758952   4.139503
    24  H    2.156300   1.099389   2.067706   2.158396   2.731843
    25  H    2.685607   2.034174   1.022654   2.650595   3.277084
    26  H    2.728554   2.042405   1.014576   3.319354   3.822446
    27  H    2.714927   2.169499   3.371229   1.092900   2.074854
    28  H    2.784552   2.152544   2.642421   1.094258   2.064094
    29  H    4.077050   2.631581   2.481383   2.015276   1.016508
    30  H    4.123655   2.764099   3.320121   2.031610   1.015772
                   21         22         23         24         25
    21  H    0.000000
    22  H    1.766138   0.000000
    23  H    1.767476   1.768141   0.000000
    24  H    2.486430   2.502507   3.060051   0.000000
    25  H    3.684231   3.022515   2.542071   2.922232   0.000000
    26  H    3.704255   2.567058   3.117618   2.353652   1.644085
    27  H    2.519874   3.730297   3.022171   2.526334   3.630541
    28  H    3.171488   3.766766   2.569966   3.053126   2.434260
    29  H    4.579372   4.758362   4.326874   2.904658   2.835881
    30  H    4.261454   4.851187   4.644474   2.566958   3.921161
                   26         27         28         29         30
    26  H    0.000000
    27  H    4.169129   0.000000
    28  H    3.594063   1.772804   0.000000
    29  H    3.367664   2.909993   2.394934   0.000000
    30  H    4.082736   2.342753   2.914331   1.629562   0.000000
 Framework group  C1[X(C6H20N4)]
 Deg. of freedom    84
                         Standard orientation:                         
 ---------------------------------------------------------------------
 Center     Atomic      Atomic             Coordinates (Angstroms)
 Number     Number       Type             X           Y           Z
 ---------------------------------------------------------------------
      1          6           0        3.392550   -1.024750   -0.811579
      2          6           0        2.101847   -0.321961   -0.379290
      3          7           0        1.247680   -1.164839    0.453871
      4          6           0        2.422710    0.978264    0.384766
      5          7           0        1.290427    1.828951    0.678278
      6          1           0        3.970894   -0.386155   -1.473751
      7          1           0        3.166218   -1.950819   -1.338909
      8          1           0        4.002398   -1.261633    0.059286
      9          1           0        1.515914   -0.067744   -1.272806
     10          1           0        1.733016   -1.389830    1.318242
     11          1           0        1.054672   -2.040590   -0.023107
     12          1           0        3.137025    1.560904   -0.203581
     13          1           0        2.900198    0.718861    1.335632
     14          1           0        0.598801    1.316107    1.216390
     15          1           0        0.843001    2.121512   -0.184944
     16          6           0       -2.596068   -1.846409   -0.094323
     17          6           0       -2.450515   -0.355658    0.233076
     18          7           0       -1.482866   -0.080813    1.285339
     19          6           0       -2.020688    0.436028   -1.015674
     20          7           0       -1.960473    1.871986   -0.815452
     21          1           0       -3.353104   -1.999956   -0.859423
     22          1           0       -2.885356   -2.404778    0.794837
     23          1           0       -1.648652   -2.240257   -0.458088
     24          1           0       -3.421652    0.029700    0.575196
     25          1           0       -0.575728   -0.467513    1.014440
     26          1           0       -1.764256   -0.533789    2.148470
     27          1           0       -2.708045    0.229882   -1.839976
     28          1           0       -1.021163    0.101793   -1.310018
     29          1           0       -1.412968    2.053486    0.021556
     30          1           0       -2.893601    2.230733   -0.635544
 ---------------------------------------------------------------------
 Rotational constants (GHZ):           1.5749925           0.6253676           0.5327690
   180 basis functions,   330 primitive gaussians,   190 cartesian basis functions
    42 alpha electrons       42 beta electrons
       nuclear repulsion energy       598.6624662981 Hartrees.
 NAtoms=   30 NActive=   30 NUniq=   30 SFac= 1.00D+00 NAtFMM=   60 NAOKFM=F Big=F
 Nuclear repulsion after empirical dispersion term =      598.6398015783 Hartrees.
   1 Symmetry operations used in ECPInt.
 ECPInt:  NShTT=    5050 NPrTT=   20290 LenC2=    4971 LenP2D=   14958.
 LDataN:  DoStor=T MaxTD1= 4 Len=   56
 ExpMin= 1.22D-01 ExpMax= 1.71D+03 ExpMxC= 2.58D+02 IAcc=3 IRadAn=         5 AccDes= 0.00D+00
 Harris functional with IExCor= 4639 and IRadAn=       5 diagonalized for initial guess.
 HarFok:  IExCor= 4639 AccDes= 0.00D+00 IRadAn=         5 IDoV= 1 UseB2=F ITyADJ=14
 ICtDFT=  3500011 ScaDFX=  1.000000  1.000000  1.000000  1.000000
 FoFCou: FMM=F IPFlag=           0 FMFlag=      100000 FMFlg1=           0
         NFxFlg=           0 DoJE=T BraDBF=F KetDBF=T FulRan=T
         wScrn=  0.000000 ICntrl=       500 IOpCl=  0 I1Cent=   200000004 NGrid=           0
         NMat0=    1 NMatS0=      1 NMatT0=    0 NMatD0=    1 NMtDS0=    0 NMtDT0=    0
 Petite list used in FoFCou.
     Accept linear search using points  2 and  3.
     Minimum is close to point  2 DX=  2.07D-02 DF= -6.22D-07 DXR=  2.87D-02 DFR=  8.22D-04 which will be used.
     Minimum is close to point  2 DX=  3.37D-02 DF= -2.60D-07 DXR=  4.59D-02 DFR=  2.11D-03 which will be used.
     Minimum is close to point  2 DX=  3.99D-04 DF= -4.83D-12 DXR=  3.99D-04 DFR=  1.61D-07 which will be used.
 SCF Done:  E(RwB97XD) =  -459.152944818     a.u. after    7 cycles
            Convg  =    0.6785D-09                    33 Fock formations.
              S**2 =  0.0000                  -V/T =  2.0093

 **********************************************************************

            Population analysis using the SCF Density.

 **********************************************************************

 Orbital symmetries:
       Occupied  (A) (A) (A) (A) (A) (A) (A) (A) (A) (A) (A) (A)
                 (A) (A) (A) (A) (A) (A) (A) (A) (A) (A) (A) (A)
                 (A) (A) (A) (A) (A) (A) (A) (A) (A) (A) (A) (A)
                 (A) (A) (A) (A) (A) (A)
       Virtual   (A) (A) (A) (A) (A) (A) (A) (A) (A) (A) (A) (A)
                 (A) (A) (A) (A) (A) (A) (A) (A) (A) (A) (A) (A)
                 (A) (A) (A) (A) (A) (A) (A) (A) (A) (A) (A) (A)
                 (A) (A) (A) (A) (A) (A) (A) (A) (A) (A) (A) (A)
                 (A) (A) (A) (A) (A) (A) (A) (A) (A) (A) (A) (A)
                 (A) (A) (A) (A) (A) (A) (A) (A) (A) (A) (A) (A)
                 (A) (A) (A) (A) (A) (A) (A) (A) (A) (A) (A) (A)
                 (A) (A) (A) (A) (A) (A) (A) (A) (A) (A) (A) (A)
                 (A) (A) (A) (A) (A) (A) (A) (A) (A) (A) (A) (A)
                 (A) (A) (A) (A) (A) (A) (A) (A) (A) (A) (A) (A)
                 (A) (A) (A) (A) (A) (A) (A) (A) (A) (A) (A) (A)
                 (A) (A) (A) (A) (A) (A)
 The electronic state is 1-A.
 Alpha  occ. eigenvalues --  -14.43489 -14.39571 -14.39501 -14.39380 -10.32320
 Alpha  occ. eigenvalues --  -10.30717 -10.30671 -10.29776 -10.28437 -10.27290
 Alpha  occ. eigenvalues --   -1.00367  -0.98127  -0.95216  -0.93847  -0.83884
 Alpha  occ. eigenvalues --   -0.82131  -0.75165  -0.74143  -0.68170  -0.66399
 Alpha  occ. eigenvalues --   -0.60924  -0.59288  -0.57300  -0.55730  -0.53585
 Alpha  occ. eigenvalues --   -0.52804  -0.52171  -0.50955  -0.50581  -0.49160
 Alpha  occ. eigenvalues --   -0.47295  -0.46227  -0.46058  -0.45147  -0.44332
 Alpha  occ. eigenvalues --   -0.43124  -0.42858  -0.41398  -0.34053  -0.30622
 Alpha  occ. eigenvalues --   -0.30109  -0.29818
 Alpha virt. eigenvalues --    0.11414   0.14069   0.14763   0.15697   0.17160
 Alpha virt. eigenvalues --    0.18141   0.18879   0.19507   0.20666   0.21193
 Alpha virt. eigenvalues --    0.21844   0.23091   0.23393   0.24105   0.25623
 Alpha virt. eigenvalues --    0.26359   0.27150   0.28136   0.28877   0.30290
 Alpha virt. eigenvalues --    0.31747   0.32048   0.32795   0.34056   0.34373
 Alpha virt. eigenvalues --    0.34922   0.35426   0.36746   0.51865   0.53116
 Alpha virt. eigenvalues --    0.53980   0.55465   0.55555   0.57457   0.59198
 Alpha virt. eigenvalues --    0.59686   0.60443   0.61521   0.63461   0.64684
 Alpha virt. eigenvalues --    0.65167   0.69409   0.70827   0.73136   0.73706
 Alpha virt. eigenvalues --    0.74428   0.74552   0.76370   0.77190   0.77846
 Alpha virt. eigenvalues --    0.78583   0.79846   0.80422   0.80545   0.80726
 Alpha virt. eigenvalues --    0.81214   0.81658   0.82167   0.82449   0.83251
 Alpha virt. eigenvalues --    0.84102   0.84774   0.86440   0.86582   0.87282
 Alpha virt. eigenvalues --    0.89754   0.90400   0.93543   0.94805   0.94985
 Alpha virt. eigenvalues --    0.98999   1.02195   1.03425   1.04575   1.05175
 Alpha virt. eigenvalues --    1.06686   1.12418   1.14575   1.16757   1.18557
 Alpha virt. eigenvalues --    1.23522   1.26187   1.29001   1.30387   1.33583
 Alpha virt. eigenvalues --    1.37580   1.45707   1.50437   1.55618   1.57783
 Alpha virt. eigenvalues --    1.58560   1.62947   1.76640   1.78518   1.87921
 Alpha virt. eigenvalues --    1.88872   1.92702   1.93812   1.98752   2.00159
 Alpha virt. eigenvalues --    2.02919   2.04140   2.04728   2.05877   2.17143
 Alpha virt. eigenvalues --    2.18075   2.20802   2.22520   2.22992   2.24338
 Alpha virt. eigenvalues --    2.24939   2.27502   2.29589   2.31259   2.34678
 Alpha virt. eigenvalues --    2.38101   2.40445   2.41632   2.51017   2.52673
 Alpha virt. eigenvalues --    2.53933   2.55074   2.57869   2.58657   2.62309
 Alpha virt. eigenvalues --    2.64361   2.73474   2.75333   2.77602   2.78287
 Alpha virt. eigenvalues --    2.80123   2.83329   2.86639   2.87686   3.06268
 Alpha virt. eigenvalues --    3.08821   3.10841   3.11683
          Condensed to atoms (all electrons):
 Mulliken charges:
               1
     1  C   -0.280831
     2  C   -0.116639
     3  N   -0.505846
     4  C   -0.071611
     5  N   -0.521937
     6  H    0.117539
     7  H    0.111649
     8  H    0.104273
     9  H    0.104132
    10  H    0.223041
    11  H    0.234353
    12  H    0.103796
    13  H    0.087369
    14  H    0.231558
    15  H    0.229842
    16  C   -0.277782
    17  C   -0.102849
    18  N   -0.543676
    19  C   -0.073532
    20  N   -0.512639
    21  H    0.106335
    22  H    0.105566
    23  H    0.095125
    24  H    0.073366
    25  H    0.244239
    26  H    0.207828
    27  H    0.096797
    28  H    0.089854
    29  H    0.231040
    30  H    0.209641
 Sum of Mulliken charges =   0.00000
 Mulliken charges with hydrogens summed into heavy atoms:
               1
     1  C    0.052631
     2  C   -0.012507
     3  N   -0.048453
     4  C    0.119553
     5  N   -0.060537
    16  C    0.029244
    17  C   -0.029483
    18  N   -0.091609
    19  C    0.113119
    20  N   -0.071958
 Electronic spatial extent (au):  <R**2>=           2343.3692
 Charge=              0.0000 electrons
 Dipole moment (field-independent basis, Debye):
    X=              0.5224    Y=             -3.8451    Z=              0.2116  Tot=              3.8862
 Evaluate density.
 Using the total density.
 Monte-Carlo method of calculating molar volume:
 based on  0.001 e/bohr**3 density envelope.
 Number of points per bohr**3 =  100 CutOff= 1.00D-04
 Using the SCF density.
 There are      1963 points.  Will hold      1963 in memory.
 LenV=  1048160743 MDV=  1048576000.
 Box volume = 7568.343 fraction occupied=0.206
 Integrated density= 1.7095152077308902D+02 error= 8.6951520773089015D+01
 Molar volume = 1557.621 bohr**3/mol (139.000 cm**3/mol)
 Recommended a0 for SCRF calculation =  4.69 angstrom (  8.86 bohr)
   1 Symmetry operations used in ECPInt.
 ECPInt:  NShTT=    5050 NPrTT=   20290 LenC2=    4971 LenP2D=   14958.
 LDataN:  DoStor=T MaxTD1= 5 Len=  102
 Calling FoFJK, ICntrl=      2127 FMM=F ISym2X=0 I1Cent= 0 IOpClX= 0 NMat=1 NMatS=1 NMatT=0.

 GradGradGradGradGradGradGradGradGradGradGradGradGradGradGradGradGradGrad
 FormGI is forming the generalized inverse of G from B-inverse, IUseBI=4.
 Internal  Forces:  Max     0.012015018 RMS     0.003066036
 Step number   1 out of a maximum of  168
 All quantities printed in internal units (Hartrees-Bohrs-Radians)
 Mixed Optimization -- RFO/linear search
 Second derivative matrix not updated -- first step.
 ITU=  0
     Eigenvalues ---    0.00240   0.00327   0.00344   0.00433   0.00555
     Eigenvalues ---    0.00729   0.00929   0.00955   0.01016   0.01149
     Eigenvalues ---    0.02730   0.02942   0.03533   0.03901   0.04006
     Eigenvalues ---    0.04059   0.04091   0.04127   0.04585   0.04632
     Eigenvalues ---    0.04737   0.05097   0.05348   0.05411   0.05577
     Eigenvalues ---    0.05594   0.05624   0.05653   0.05653   0.05988
     Eigenvalues ---    0.06483   0.07885   0.08128   0.09690   0.09923
     Eigenvalues ---    0.10483   0.11862   0.12220   0.12658   0.13003
     Eigenvalues ---    0.13576   0.15294   0.16000   0.16000   0.16000
     Eigenvalues ---    0.16000   0.16000   0.16000   0.16000   0.16000
     Eigenvalues ---    0.16000   0.16090   0.16446   0.17761   0.18189
     Eigenvalues ---    0.22042   0.27475   0.28539   0.29130   0.29249
     Eigenvalues ---    0.33750   0.33868   0.34220   0.34325   0.34405
     Eigenvalues ---    0.34480   0.34876   0.34901   0.34921   0.34976
     Eigenvalues ---    0.35135   0.35205   0.35223   0.37453   0.37504
     Eigenvalues ---    0.38101   0.43648   0.43917   0.44898   0.44900
     Eigenvalues ---    0.45020   0.45027   0.45088   0.45215
 Linear search not attempted -- first point.
 Iteration  1 RMS(Cart)=  0.15790514 RMS(Int)=  0.00665239
 Iteration  2 RMS(Cart)=  0.02645343 RMS(Int)=  0.00015457
 Iteration  3 RMS(Cart)=  0.00032851 RMS(Int)=  0.00009543
 Iteration  4 RMS(Cart)=  0.00000006 RMS(Int)=  0.00009543
 Variable       Old X    -DE/DX   Delta X   Delta X   Delta X     New X
                                 (Linear)    (Quad)   (Total)
    R1        2.89486   0.00139   0.00000   0.00464   0.00464   2.89951
    R2        2.05343   0.01178   0.00000   0.03281   0.03281   2.08623
    R3        2.05877   0.01012   0.00000   0.02845   0.02845   2.08721
    R4        2.05836   0.01090   0.00000   0.03060   0.03060   2.08896
    R5        2.76068   0.00493   0.00000   0.01258   0.01262   2.77330
    R6        2.91368  -0.00109   0.00000  -0.00418  -0.00419   2.90949
    R7        2.07553   0.00471   0.00000   0.01363   0.01363   2.08916
    R8        1.92094   0.00527   0.00000   0.01154   0.01154   1.93249
    R9        1.91945   0.00447   0.00000   0.00977   0.00977   1.92922
   R10        3.83820   0.00255   0.00000   0.04397   0.04395   3.88215
   R11        2.73318   0.00328   0.00000   0.00931   0.00933   2.74251
   R12        2.06652   0.00711   0.00000   0.02023   0.02023   2.08676
   R13        2.06960   0.00798   0.00000   0.02284   0.02284   2.09245
   R14        1.91872   0.00420   0.00000   0.00974   0.00971   1.92843
   R15        1.91873   0.00457   0.00000   0.00998   0.00998   1.92871
   R16        4.05372  -0.00093   0.00000  -0.02350  -0.02350   4.03021
   R17        2.89733   0.00153   0.00000   0.00512   0.00512   2.90246
   R18        2.05456   0.01202   0.00000   0.03352   0.03352   2.08807
   R19        2.05804   0.01033   0.00000   0.02898   0.02898   2.08702
   R20        2.05715   0.01107   0.00000   0.03101   0.03101   2.08816
   R21        2.75093   0.00294   0.00000   0.00770   0.00770   2.75862
   R22        2.90975  -0.00069   0.00000  -0.00237  -0.00237   2.90737
   R23        2.07754   0.00491   0.00000   0.01425   0.01425   2.09180
   R24        1.93254   0.00725   0.00000   0.01625   0.01625   1.94879
   R25        1.91727   0.00492   0.00000   0.01071   0.01071   1.92798
   R26        2.74218   0.00285   0.00000   0.00733   0.00733   2.74951
   R27        2.06528   0.00752   0.00000   0.02137   0.02137   2.08665
   R28        2.06785   0.00836   0.00000   0.02385   0.02385   2.09170
   R29        1.92092   0.00378   0.00000   0.00829   0.00829   1.92921
   R30        1.91953   0.00374   0.00000   0.00817   0.00817   1.92770
    A1        1.92921   0.00208   0.00000   0.01317   0.01312   1.94233
    A2        1.92999   0.00137   0.00000   0.00821   0.00817   1.93816
    A3        1.92398   0.00040   0.00000   0.00169   0.00168   1.92566
    A4        1.89142  -0.00161   0.00000  -0.00827  -0.00834   1.88308
    A5        1.89339  -0.00128   0.00000  -0.00765  -0.00766   1.88573
    A6        1.89489  -0.00110   0.00000  -0.00797  -0.00797   1.88692
    A7        1.97021   0.00009   0.00000   0.00910   0.00894   1.97915
    A8        1.92984   0.00134   0.00000   0.01316   0.01310   1.94293
    A9        1.90297  -0.00029   0.00000  -0.00608  -0.00603   1.89694
   A10        1.90245   0.00003   0.00000   0.00393   0.00370   1.90614
   A11        1.86041   0.00022   0.00000   0.00091   0.00095   1.86137
   A12        1.89544  -0.00152   0.00000  -0.02296  -0.02292   1.87252
   A13        1.91080   0.00150   0.00000   0.01017   0.01015   1.92095
   A14        1.91850   0.00180   0.00000   0.01350   0.01347   1.93197
   A15        2.07627  -0.00128   0.00000  -0.00647  -0.00644   2.06982
   A16        1.87465  -0.00151   0.00000  -0.01259  -0.01266   1.86198
   A17        1.84412  -0.00005   0.00000   0.00009   0.00009   1.84421
   A18        1.82867  -0.00071   0.00000  -0.00694  -0.00691   1.82177
   A19        2.01933   0.00179   0.00000   0.01983   0.01971   2.03903
   A20        1.89507  -0.00073   0.00000  -0.00212  -0.00245   1.89262
   A21        1.89783  -0.00156   0.00000  -0.01798  -0.01819   1.87964
   A22        1.88302   0.00075   0.00000   0.01348   0.01332   1.89635
   A23        1.88014   0.00082   0.00000   0.01082   0.01099   1.89113
   A24        1.88444  -0.00126   0.00000  -0.02727  -0.02746   1.85697
   A25        1.92169   0.00040   0.00000   0.01463   0.01452   1.93622
   A26        1.91976   0.00104   0.00000   0.01288   0.01293   1.93269
   A27        1.87124  -0.00083   0.00000  -0.00940  -0.00959   1.86165
   A28        2.40840  -0.00184   0.00000  -0.01034  -0.01053   2.39787
   A29        1.93231   0.00248   0.00000   0.01622   0.01616   1.94847
   A30        1.92771   0.00110   0.00000   0.00613   0.00609   1.93380
   A31        1.91826   0.00048   0.00000   0.00199   0.00197   1.92023
   A32        1.89355  -0.00165   0.00000  -0.00816  -0.00824   1.88531
   A33        1.89626  -0.00140   0.00000  -0.00741  -0.00745   1.88881
   A34        1.89495  -0.00115   0.00000  -0.00959  -0.00958   1.88537
   A35        1.98344   0.00038   0.00000   0.00783   0.00783   1.99127
   A36        1.93183   0.00254   0.00000   0.01301   0.01305   1.94488
   A37        1.90012  -0.00091   0.00000  -0.00472  -0.00472   1.89540
   A38        1.87926  -0.00220   0.00000  -0.01003  -0.01012   1.86914
   A39        1.87135   0.00137   0.00000   0.01239   0.01228   1.88364
   A40        1.89519  -0.00131   0.00000  -0.01992  -0.01988   1.87531
   A41        1.90367  -0.00160   0.00000  -0.00101  -0.00124   1.90244
   A42        1.92441   0.00350   0.00000   0.03460   0.03438   1.95879
   A43        1.87816   0.00021   0.00000   0.01408   0.01366   1.89183
   A44        1.99158   0.00287   0.00000   0.01846   0.01831   2.00989
   A45        1.91679   0.00036   0.00000   0.00764   0.00732   1.92411
   A46        1.89240  -0.00267   0.00000  -0.02254  -0.02260   1.86980
   A47        1.89317  -0.00068   0.00000   0.00799   0.00773   1.90090
   A48        1.87703   0.00093   0.00000   0.01036   0.01052   1.88755
   A49        1.89019  -0.00098   0.00000  -0.02432  -0.02439   1.86579
   A50        1.88878  -0.00062   0.00000  -0.00743  -0.00742   1.88136
   A51        1.91326   0.00223   0.00000   0.00969   0.00970   1.92296
   A52        1.86073  -0.00164   0.00000  -0.01782  -0.01781   1.84292
   A53        1.38971   0.00177   0.00000   0.00966   0.00960   1.39932
   A54        1.71766  -0.00262   0.00000  -0.01986  -0.01984   1.69783
   A55        3.10737  -0.00085   0.00000  -0.01020  -0.01023   3.09714
   A56        3.12468  -0.00114   0.00000  -0.11242  -0.11248   3.01220
    D1        3.08552  -0.00023   0.00000  -0.00418  -0.00419   3.08132
    D2       -1.06129   0.00085   0.00000   0.01712   0.01716  -1.04413
    D3        1.02144  -0.00037   0.00000  -0.00690  -0.00688   1.01456
    D4        0.99095  -0.00045   0.00000  -0.00773  -0.00778   0.98317
    D5        3.12734   0.00063   0.00000   0.01356   0.01357   3.14091
    D6       -1.07312  -0.00060   0.00000  -0.01045  -0.01047  -1.08359
    D7       -1.10454  -0.00023   0.00000  -0.00417  -0.00419  -1.10873
    D8        1.03184   0.00085   0.00000   0.01713   0.01716   1.04900
    D9        3.11457  -0.00037   0.00000  -0.00689  -0.00688   3.10769
   D10        1.10054   0.00037   0.00000  -0.00437  -0.00435   1.09619
   D11       -0.95476   0.00025   0.00000  -0.00308  -0.00311  -0.95787
   D12       -3.06145   0.00064   0.00000  -0.00032  -0.00034  -3.06179
   D13       -1.05111  -0.00143   0.00000  -0.03043  -0.03043  -1.08153
   D14       -3.10641  -0.00155   0.00000  -0.02914  -0.02918  -3.13559
   D15        1.07008  -0.00116   0.00000  -0.02638  -0.02641   1.04367
   D16       -3.09387   0.00022   0.00000  -0.00596  -0.00593  -3.09979
   D17        1.13402   0.00009   0.00000  -0.00466  -0.00468   1.12934
   D18       -0.97268   0.00048   0.00000  -0.00190  -0.00191  -0.97459
   D19        2.99303  -0.00001   0.00000   0.00852   0.00853   3.00156
   D20        0.87374  -0.00166   0.00000  -0.02110  -0.02106   0.85267
   D21       -1.17250   0.00111   0.00000   0.02251   0.02234  -1.15016
   D22       -1.11462   0.00103   0.00000   0.03168   0.03170  -1.08292
   D23        3.04927  -0.00062   0.00000   0.00206   0.00211   3.05138
   D24        1.00304   0.00214   0.00000   0.04567   0.04551   1.04855
   D25        0.90576   0.00048   0.00000   0.02237   0.02243   0.92819
   D26       -1.21354  -0.00117   0.00000  -0.00725  -0.00717  -1.22070
   D27        3.02342   0.00160   0.00000   0.03636   0.03623   3.05965
   D28       -0.69871  -0.00042   0.00000   0.00031   0.00032  -0.69839
   D29        1.45564   0.00065   0.00000   0.00949   0.00947   1.46511
   D30       -2.85035  -0.00135   0.00000  -0.00743  -0.00745  -2.85780
   D31        1.00430  -0.00030   0.00000  -0.01842  -0.01851   0.98579
   D32       -1.05414  -0.00016   0.00000  -0.02359  -0.02373  -1.07787
   D33        3.13005   0.00054   0.00000   0.00260   0.00271   3.13276
   D34        1.07161   0.00068   0.00000  -0.00257  -0.00250   1.06911
   D35       -1.12282  -0.00012   0.00000  -0.01675  -0.01686  -1.13968
   D36        3.10192   0.00002   0.00000  -0.02192  -0.02207   3.07985
   D37       -1.00875   0.00104   0.00000   0.00751   0.00744  -1.00131
   D38        1.07941   0.00202   0.00000   0.02568   0.02551   1.10493
   D39        0.81697   0.00043   0.00000   0.00367   0.00354   0.82051
   D40       -2.30771   0.00157   0.00000   0.11609   0.11602  -2.19168
   D41        3.10721   0.00073   0.00000   0.00612   0.00608   3.11330
   D42       -1.05886   0.00002   0.00000   0.00827   0.00830  -1.05055
   D43        1.02300  -0.00062   0.00000  -0.01128  -0.01124   1.01176
   D44        1.00946   0.00045   0.00000   0.00176   0.00169   1.01115
   D45        3.12658  -0.00025   0.00000   0.00391   0.00391   3.13049
   D46       -1.07475  -0.00089   0.00000  -0.01564  -0.01564  -1.09039
   D47       -1.08098   0.00088   0.00000   0.00852   0.00848  -1.07250
   D48        1.03613   0.00018   0.00000   0.01066   0.01070   1.04683
   D49        3.11799  -0.00047   0.00000  -0.00888  -0.00885   3.10914
   D50        0.99549   0.00115   0.00000   0.01160   0.01165   1.00714
   D51       -1.06331  -0.00021   0.00000  -0.02526  -0.02542  -1.08873
   D52       -1.15074  -0.00075   0.00000  -0.00292  -0.00283  -1.15358
   D53        3.07364  -0.00211   0.00000  -0.03977  -0.03990   3.03374
   D54        3.09602   0.00118   0.00000   0.01904   0.01923   3.11524
   D55        1.03722  -0.00017   0.00000  -0.01782  -0.01784   1.01938
   D56        3.06284  -0.00023   0.00000   0.00240   0.00250   3.06533
   D57        0.93309  -0.00163   0.00000  -0.02678  -0.02680   0.90630
   D58       -1.12916   0.00090   0.00000   0.01144   0.01135  -1.11781
   D59       -1.04278   0.00040   0.00000   0.01382   0.01386  -1.02892
   D60        3.11066  -0.00100   0.00000  -0.01535  -0.01543   3.09523
   D61        1.04841   0.00154   0.00000   0.02286   0.02271   1.07112
   D62        0.97801   0.00018   0.00000   0.01281   0.01298   0.99099
   D63       -1.15173  -0.00122   0.00000  -0.01637  -0.01632  -1.16805
   D64        3.06920   0.00132   0.00000   0.02185   0.02183   3.09103
   D65        2.18810  -0.00443   0.00000  -0.21285  -0.21286   1.97523
   D66       -2.00741  -0.00100   0.00000  -0.16383  -0.16382  -2.17123
   D67        0.87862  -0.00230   0.00000  -0.06954  -0.06955   0.80906
   D68       -1.14431  -0.00121   0.00000  -0.04941  -0.04942  -1.19373
   D69        3.02128  -0.00038   0.00000  -0.04105  -0.04097   2.98031
   D70        0.99835   0.00072   0.00000  -0.02092  -0.02083   0.97752
   D71       -1.22120  -0.00139   0.00000  -0.05995  -0.06002  -1.28122
   D72        3.03906  -0.00029   0.00000  -0.03982  -0.03989   2.99917
         Item               Value     Threshold  Converged?
 Maximum Force            0.012015     0.000015     NO 
 RMS     Force            0.003066     0.000010     NO 
 Maximum Displacement     0.636504     0.000060     NO 
 RMS     Displacement     0.177177     0.000040     NO 
 GradGradGradGradGradGradGradGradGradGradGradGradGradGradGradGradGradGrad

                    Distance matrix (angstroms):
                    1          2          3          4          5
     1  C    0.000000
     2  C    1.534353   0.000000
     3  N    2.509251   1.467567   0.000000
     4  C    2.538238   1.539636   2.451822   0.000000
     5  N    3.868132   2.548241   3.014064   1.451274   0.000000
     6  H    1.103987   2.191566   3.460952   2.803023   4.129769
     7  H    1.104506   2.188949   2.767047   3.504418   4.715327
     8  H    1.105430   2.180574   2.810677   2.791296   4.193804
     9  H    2.159493   1.105538   2.075002   2.145765   2.742113
    10  H    2.750078   2.056495   1.022627   2.670142   3.339600
    11  H    2.699954   2.062732   1.020899   3.354857   3.955525
    12  H    2.675239   2.159955   3.396383   1.104264   2.085834
    13  H    2.801649   2.152418   2.672171   1.107274   2.084291
    14  H    4.206300   2.766571   2.696939   2.050858   1.020481
    15  H    4.147349   2.800905   3.402827   2.048589   1.020630
    16  C    5.913581   4.749668   3.895007   5.575951   5.187248
    17  C    5.821059   4.418085   3.737253   4.835814   4.110469
    18  N    5.402426   3.956081   3.079306   4.128273   3.381201
    19  C    5.321718   3.928956   3.787032   4.247936   3.504518
    20  N    5.829658   4.378488   4.473915   4.177154   3.064758
    21  H    6.560839   5.464002   4.788635   6.335153   5.927465
    22  H    6.558051   5.434998   4.354145   6.239642   5.850819
    23  H    4.998365   3.993542   3.143697   5.043974   4.939566
    24  H    6.897610   5.463033   4.794996   5.730927   4.818682
    25  H    4.434466   3.042989   2.054347   3.387514   2.965336
    26  H    6.065875   4.699648   3.607922   4.888350   4.195319
    27  H    5.921069   4.664161   4.616038   5.123418   4.471758
    28  H    4.240986   2.905694   2.941074   3.431543   3.019702
    29  H    5.668328   4.161019   4.143546   3.728120   2.443885
    30  H    6.842507   5.384404   5.384347   5.156937   3.960060
                    6          7          8          9         10
     6  H    0.000000
     7  H    1.785490   0.000000
     8  H    1.787958   1.789149   0.000000
     9  H    2.501696   2.524066   3.083181   0.000000
    10  H    3.762780   3.100454   2.630560   2.938770   0.000000
    11  H    3.703161   2.528922   3.091611   2.402264   1.639343
    12  H    2.481860   3.711488   2.988723   2.523920   3.643855
    13  H    3.204119   3.799234   2.601395   3.050814   2.448290
    14  H    4.690471   4.927763   4.470284   3.018251   2.969221
    15  H    4.277394   4.892777   4.696722   2.574098   3.966058
    16  C    6.638791   5.739507   6.552986   4.312511   4.635163
    17  C    6.454391   5.933216   6.429567   4.003658   4.452606
    18  N    6.134028   5.681889   5.790510   3.906561   3.532140
    19  C    5.719544   5.527206   6.093308   3.234571   4.662388
    20  N    6.078676   6.270583   6.526834   3.787339   5.221251
    21  H    7.186332   6.305461   7.307334   4.849863   5.606399
    22  H    7.384814   6.352537   7.069483   5.164568   4.913365
    23  H    5.760800   4.719807   5.650863   3.597376   3.931317
    24  H    7.498616   7.036051   7.492549   5.031503   5.447090
    25  H    5.229817   4.709752   4.788371   3.144651   2.529951
    26  H    6.888010   6.291824   6.334109   4.774999   3.856937
    27  H    6.230143   5.994330   6.797418   3.800362   5.556514
    28  H    4.637377   4.439258   5.059565   2.143507   3.891557
    29  H    5.997328   6.219372   6.215954   3.821929   4.735259
    30  H    7.093178   7.254635   7.533855   4.784792   6.106964
                   11         12         13         14         15
    11  H    0.000000
    12  H    4.188784   0.000000
    13  H    3.610104   1.770810   0.000000
    14  H    3.628067   2.949986   2.420995   0.000000
    15  H    4.205593   2.394978   2.947754   1.637201   0.000000
    16  C    3.616818   6.413976   6.154744   4.551450   4.931459
    17  C    3.870385   5.668697   5.448146   3.440251   3.812986
    18  N    3.477831   5.105763   4.498859   2.483778   3.444924
    19  C    4.033333   4.846939   5.101458   3.200782   2.876869
    20  N    4.982704   4.640528   5.026515   2.922756   2.307627
    21  H    4.439892   7.069770   7.020689   5.392930   5.514392
    22  H    4.029874   7.165449   6.669733   5.086874   5.731727
    23  H    2.678925   5.858162   5.607427   4.401065   4.753659
    24  H    4.955791   6.538420   6.325689   4.124142   4.472207
    25  H    2.510830   4.413758   3.715456   2.132698   3.175325
    26  H    3.911428   5.922282   5.084478   3.219057   4.384725
    27  H    4.692137   5.598475   6.048111   4.272038   3.724905
    28  H    3.180331   4.007598   4.335111   2.869892   2.459985
    29  H    4.802690   4.315167   4.422344   2.136168   1.962542
    30  H    5.851550   5.612159   5.961966   3.741549   3.242980
                   16         17         18         19         20
    16  C    0.000000
    17  C    1.535914   0.000000
    18  N    2.514063   1.459801   0.000000
    19  C    2.540286   1.538516   2.412131   0.000000
    20  N    3.862942   2.527300   2.911012   1.454978   0.000000
    21  H    1.104961   2.198096   3.466281   2.814506   4.158633
    22  H    1.104405   2.187093   2.784126   3.503612   4.699028
    23  H    1.105004   2.177655   2.798576   2.788149   4.173685
    24  H    2.160742   1.106931   2.085892   2.147923   2.742358
    25  H    2.706370   2.043237   1.031254   2.646468   3.275995
    26  H    2.782903   2.073369   1.020241   3.331184   3.827175
    27  H    2.729482   2.182187   3.380704   1.104208   2.092310
    28  H    2.779169   2.143706   2.629124   1.106878   2.084569
    29  H    4.080525   2.622382   2.461228   2.016689   1.020895
    30  H    4.173282   2.816046   3.365369   2.044858   1.020094
                   21         22         23         24         25
    21  H    0.000000
    22  H    1.787646   0.000000
    23  H    1.790403   1.787718   0.000000
    24  H    2.507210   2.523669   3.081620   0.000000
    25  H    3.722514   3.059892   2.561493   2.945620   0.000000
    26  H    3.779380   2.634207   3.173650   2.395744   1.663840
    27  H    2.548020   3.761707   3.046434   2.530711   3.635995
    28  H    3.186012   3.775662   2.570530   3.047885   2.411949
    29  H    4.605059   4.767680   4.354773   2.877706   2.831622
    30  H    4.324910   4.920554   4.703547   2.614587   3.958274
                   26         27         28         29         30
    26  H    0.000000
    27  H    4.205021   0.000000
    28  H    3.597839   1.776274   0.000000
    29  H    3.328626   2.924997   2.434488   0.000000
    30  H    4.132580   2.361302   2.940467   1.625621   0.000000
 Framework group  C1[X(C6H20N4)]
 Deg. of freedom    84
                         Standard orientation:                         
 ---------------------------------------------------------------------
 Center     Atomic      Atomic             Coordinates (Angstroms)
 Number     Number       Type             X           Y           Z
 ---------------------------------------------------------------------
      1          6           0        3.337985   -0.990549   -0.759718
      2          6           0        2.012512   -0.351547   -0.324937
      3          7           0        1.236507   -1.189163    0.597000
      4          6           0        2.240518    1.029879    0.315496
      5          7           0        1.058457    1.819619    0.607451
      6          1           0        3.863433   -0.360419   -1.498384
      7          1           0        3.169287   -1.981341   -1.217764
      8          1           0        4.004288   -1.123980    0.112183
      9          1           0        1.382501   -0.198562   -1.220424
     10          1           0        1.757894   -1.331257    1.465177
     11          1           0        1.076831   -2.114429    0.196225
     12          1           0        2.902674    1.616343   -0.345570
     13          1           0        2.798454    0.875322    1.259358
     14          1           0        0.416464    1.305503    1.211530
     15          1           0        0.546325    2.033742   -0.249028
     16          6           0       -2.495349   -1.847565   -0.303462
     17          6           0       -2.381913   -0.378717    0.130875
     18          7           0       -1.576079   -0.172591    1.330526
     19          6           0       -1.768718    0.490480   -0.980665
     20          7           0       -1.715156    1.915686   -0.692775
     21          1           0       -3.136103   -1.960044   -1.196614
     22          1           0       -2.925938   -2.463642    0.505707
     23          1           0       -1.494404   -2.249482   -0.543474
     24          1           0       -3.398775    0.009291    0.332707
     25          1           0       -0.630766   -0.551894    1.169292
     26          1           0       -1.974135   -0.636569    2.147329
     27          1           0       -2.312513    0.337163   -1.929378
     28          1           0       -0.733876    0.132066   -1.141349
     29          1           0       -1.350638    2.029227    0.254042
     30          1           0       -2.657319    2.306211   -0.672515
 ---------------------------------------------------------------------
 Rotational constants (GHZ):           1.5589582           0.6826280           0.5692227
   180 basis functions,   330 primitive gaussians,   190 cartesian basis functions
    42 alpha electrons       42 beta electrons
       nuclear repulsion energy       606.1064312995 Hartrees.
 NAtoms=   30 NActive=   30 NUniq=   30 SFac= 1.00D+00 NAtFMM=   60 NAOKFM=F Big=F
 Nuclear repulsion after empirical dispersion term =      606.0826992909 Hartrees.
   1 Symmetry operations used in ECPInt.
 ECPInt:  NShTT=    5050 NPrTT=   20290 LenC2=    4985 LenP2D=   15115.
 LDataN:  DoStor=T MaxTD1= 4 Len=   56
 Initial guess from the checkpoint file:  "dimer.chk"
 B after Tr=     0.000000    0.000000    0.000000
         Rot=    0.999846   -0.009156    0.014587   -0.003230 Ang=  -2.01 deg.
 ExpMin= 1.22D-01 ExpMax= 1.71D+03 ExpMxC= 2.58D+02 IAcc=3 IRadAn=         5 AccDes= 0.00D+00
 Harris functional with IExCor= 4639 and IRadAn=       5 diagonalized for initial guess.
 HarFok:  IExCor= 4639 AccDes= 0.00D+00 IRadAn=         5 IDoV= 1 UseB2=F ITyADJ=14
 ICtDFT=  3500011 ScaDFX=  1.000000  1.000000  1.000000  1.000000
 FoFCou: FMM=F IPFlag=           0 FMFlag=      100000 FMFlg1=           0
         NFxFlg=           0 DoJE=T BraDBF=F KetDBF=T FulRan=T
         wScrn=  0.000000 ICntrl=       500 IOpCl=  0 I1Cent=   200000004 NGrid=           0
         NMat0=    1 NMatS0=      1 NMatT0=    0 NMatD0=    1 NMtDS0=    0 NMtDT0=    0
 Petite list used in FoFCou.
     Accept linear search using points  1 and  2.
     Minimum is close to point  2 DX= -1.71D-02 DF= -6.57D-07 DXR=  1.58D-02 DFR=  2.97D-04 which will be used.
     Accept linear search using points  1 and  2.
     Accept linear search using points  1 and  2.
     Accept linear search using points  1 and  2.
     Accept linear search using points  1 and  2.
     Minimum is close to point  2 DX= -4.71D-05 DF= -1.71D-13 DXR=  4.71D-05 DFR=  2.00D-09 which will be used.
 SCF Done:  E(RwB97XD) =  -459.155812719     a.u. after   11 cycles
            Convg  =    0.2446D-08                    41 Fock formations.
              S**2 =  0.0000                  -V/T =  2.0101
   1 Symmetry operations used in ECPInt.
 ECPInt:  NShTT=    5050 NPrTT=   20290 LenC2=    4985 LenP2D=   15115.
 LDataN:  DoStor=T MaxTD1= 5 Len=  102
 Calling FoFJK, ICntrl=      2127 FMM=F ISym2X=0 I1Cent= 0 IOpClX= 0 NMat=1 NMatS=1 NMatT=0.

 GradGradGradGradGradGradGradGradGradGradGradGradGradGradGradGradGradGrad
 Using GEDIIS/GDIIS optimizer.
 FormGI is forming the generalized inverse of G from B-inverse, IUseBI=4.
 Internal  Forces:  Max     0.009974296 RMS     0.002103805
 Step number   2 out of a maximum of  168
 All quantities printed in internal units (Hartrees-Bohrs-Radians)
 Mixed Optimization -- RFO/linear search
 Trust test= 6.98D-01 RLast= 3.91D-01 DXMaxT set to 5.05D-01
 ITU=  1  0
 Use linear search instead of GDIIS.
     Eigenvalues ---    0.00233   0.00327   0.00344   0.00468   0.00555
     Eigenvalues ---    0.00800   0.00916   0.00967   0.01130   0.01366
     Eigenvalues ---    0.02722   0.02873   0.03432   0.03709   0.03832
     Eigenvalues ---    0.03961   0.04012   0.04240   0.04583   0.04632
     Eigenvalues ---    0.04749   0.05083   0.05310   0.05386   0.05449
     Eigenvalues ---    0.05484   0.05572   0.05605   0.05656   0.06073
     Eigenvalues ---    0.06448   0.07865   0.08684   0.09843   0.10044
     Eigenvalues ---    0.10881   0.11929   0.12121   0.12845   0.13029
     Eigenvalues ---    0.13691   0.15253   0.15575   0.16000   0.16000
     Eigenvalues ---    0.16000   0.16000   0.16000   0.16000   0.16000
     Eigenvalues ---    0.16113   0.16336   0.17461   0.17867   0.19473
     Eigenvalues ---    0.22371   0.27276   0.28223   0.29028   0.29206
     Eigenvalues ---    0.31225   0.33783   0.33892   0.34312   0.34366
     Eigenvalues ---    0.34437   0.34557   0.34885   0.34914   0.34954
     Eigenvalues ---    0.35081   0.35181   0.35364   0.37460   0.37932
     Eigenvalues ---    0.38832   0.43295   0.43779   0.44897   0.44925
     Eigenvalues ---    0.45001   0.45035   0.45105   0.45411
 Quartic linear search produced a step of -0.21615.
 Iteration  1 RMS(Cart)=  0.25954501 RMS(Int)=  0.01019423
 Iteration  2 RMS(Cart)=  0.02595526 RMS(Int)=  0.00018523
 Iteration  3 RMS(Cart)=  0.00029668 RMS(Int)=  0.00011511
 Iteration  4 RMS(Cart)=  0.00000006 RMS(Int)=  0.00011511
 Variable       Old X    -DE/DX   Delta X   Delta X   Delta X     New X
                                 (Linear)    (Quad)   (Total)
    R1        2.89951  -0.00213  -0.00100   0.00163   0.00062   2.90013
    R2        2.08623   0.00000  -0.00709   0.04826   0.04117   2.12740
    R3        2.08721   0.00006  -0.00615   0.04197   0.03582   2.12304
    R4        2.08896   0.00040  -0.00661   0.04583   0.03921   2.12817
    R5        2.77330  -0.00145  -0.00273   0.01619   0.01342   2.78672
    R6        2.90949  -0.00094   0.00091  -0.00660  -0.00564   2.90385
    R7        2.08916  -0.00007  -0.00295   0.01990   0.01696   2.10612
    R8        1.93249   0.00019  -0.00250   0.01732   0.01483   1.94731
    R9        1.92922   0.00007  -0.00211   0.01451   0.01240   1.94162
   R10        3.88215   0.00253  -0.00950   0.09384   0.08430   3.96645
   R11        2.74251  -0.00429  -0.00202   0.00666   0.00469   2.74720
   R12        2.08676   0.00006  -0.00437   0.02989   0.02551   2.11227
   R13        2.09245   0.00101  -0.00494   0.03572   0.03078   2.12322
   R14        1.92843   0.00251  -0.00210   0.01802   0.01597   1.94440
   R15        1.92871  -0.00012  -0.00216   0.01451   0.01235   1.94106
   R16        4.03021   0.00235   0.00508   0.01048   0.01555   4.04576
   R17        2.90246  -0.00220  -0.00111   0.00212   0.00101   2.90347
   R18        2.08807   0.00007  -0.00724   0.04945   0.04221   2.13028
   R19        2.08702  -0.00001  -0.00626   0.04261   0.03634   2.12337
   R20        2.08816   0.00028  -0.00670   0.04618   0.03948   2.12763
   R21        2.75862   0.00209  -0.00166   0.01533   0.01367   2.77230
   R22        2.90737  -0.00216   0.00051  -0.00889  -0.00838   2.89900
   R23        2.09180   0.00040  -0.00308   0.02180   0.01872   2.11052
   R24        1.94879   0.00529  -0.00351   0.03263   0.02912   1.97790
   R25        1.92798  -0.00082  -0.00231   0.01447   0.01216   1.94014
   R26        2.74951  -0.00211  -0.00158   0.00682   0.00523   2.75474
   R27        2.08665   0.00002  -0.00462   0.03146   0.02684   2.11349
   R28        2.09170  -0.00076  -0.00515   0.03348   0.02832   2.12002
   R29        1.92921  -0.00004  -0.00179   0.01215   0.01036   1.93957
   R30        1.92770   0.00047  -0.00177   0.01279   0.01102   1.93872
    A1        1.94233   0.00018  -0.00284   0.01978   0.01687   1.95920
    A2        1.93816   0.00016  -0.00177   0.01250   0.01067   1.94883
    A3        1.92566   0.00062  -0.00036   0.00519   0.00480   1.93046
    A4        1.88308  -0.00019   0.00180  -0.01319  -0.01149   1.87159
    A5        1.88573  -0.00041   0.00166  -0.01292  -0.01130   1.87443
    A6        1.88692  -0.00040   0.00172  -0.01330  -0.01158   1.87533
    A7        1.97915  -0.00030  -0.00193   0.00850   0.00644   1.98559
    A8        1.94293   0.00034  -0.00283   0.01896   0.01604   1.95897
    A9        1.89694  -0.00025   0.00130  -0.01028  -0.00892   1.88802
   A10        1.90614  -0.00036  -0.00080   0.00705   0.00598   1.91213
   A11        1.86137   0.00034  -0.00021   0.00302   0.00287   1.86424
   A12        1.87252   0.00027   0.00495  -0.03060  -0.02553   1.84699
   A13        1.92095  -0.00135  -0.00219   0.00791   0.00566   1.92661
   A14        1.93197  -0.00016  -0.00291   0.02004   0.01722   1.94920
   A15        2.06982   0.00274   0.00139   0.00170   0.00295   2.07278
   A16        1.86198   0.00029   0.00274  -0.01969  -0.01700   1.84498
   A17        1.84421  -0.00060  -0.00002  -0.00355  -0.00352   1.84069
   A18        1.82177  -0.00108   0.00149  -0.01066  -0.00923   1.81253
   A19        2.03903   0.00009  -0.00426   0.02997   0.02565   2.06468
   A20        1.89262   0.00040   0.00053  -0.00544  -0.00530   1.88733
   A21        1.87964  -0.00004   0.00393  -0.02245  -0.01892   1.86072
   A22        1.89635  -0.00037  -0.00288   0.01400   0.01101   1.90735
   A23        1.89113   0.00034  -0.00238   0.02042   0.01808   1.90921
   A24        1.85697  -0.00048   0.00594  -0.04414  -0.03841   1.81856
   A25        1.93622  -0.00128  -0.00314   0.01839   0.01515   1.95137
   A26        1.93269   0.00089  -0.00280   0.02314   0.02019   1.95288
   A27        1.86165   0.00100   0.00207  -0.00233  -0.00064   1.86101
   A28        2.39787   0.00285   0.00228  -0.00472  -0.00260   2.39527
   A29        1.94847   0.00043  -0.00349   0.02553   0.02194   1.97040
   A30        1.93380  -0.00005  -0.00132   0.00840   0.00703   1.94083
   A31        1.92023   0.00041  -0.00043   0.00463   0.00417   1.92440
   A32        1.88531  -0.00019   0.00178  -0.01292  -0.01125   1.87406
   A33        1.88881  -0.00036   0.00161  -0.01212  -0.01059   1.87823
   A34        1.88537  -0.00028   0.00207  -0.01555  -0.01347   1.87190
   A35        1.99127  -0.00466  -0.00169  -0.00307  -0.00516   1.98611
   A36        1.94488  -0.00023  -0.00282   0.02158   0.01862   1.96350
   A37        1.89540   0.00141   0.00102  -0.01175  -0.01068   1.88473
   A38        1.86914   0.00596   0.00219   0.01657   0.01868   1.88782
   A39        1.88364   0.00038  -0.00266   0.02083   0.01843   1.90207
   A40        1.87531  -0.00282   0.00430  -0.04700  -0.04265   1.83267
   A41        1.90244   0.00481   0.00027   0.00294   0.00322   1.90565
   A42        1.95879  -0.00574  -0.00743   0.00341  -0.00404   1.95476
   A43        1.89183  -0.00285  -0.00295  -0.01796  -0.02087   1.87096
   A44        2.00989  -0.00258  -0.00396   0.01814   0.01408   2.02397
   A45        1.92411   0.00182  -0.00158   0.01154   0.00995   1.93406
   A46        1.86980   0.00020   0.00488  -0.02588  -0.02131   1.84849
   A47        1.90090  -0.00124  -0.00167  -0.00606  -0.00771   1.89319
   A48        1.88755   0.00283  -0.00227   0.03667   0.03445   1.92200
   A49        1.86579  -0.00087   0.00527  -0.03864  -0.03333   1.83246
   A50        1.88136   0.00051   0.00160  -0.01069  -0.00911   1.87225
   A51        1.92296  -0.00066  -0.00210   0.00930   0.00718   1.93013
   A52        1.84292  -0.00078   0.00385  -0.03383  -0.03004   1.81288
   A53        1.39932  -0.00341  -0.00208   0.00593   0.00373   1.40305
   A54        1.69783   0.00997   0.00429   0.03791   0.04226   1.74009
   A55        3.09714   0.00656   0.00221   0.04384   0.04599   3.14314
   A56        3.01220   0.00461   0.02431   0.12436   0.14868   3.16088
    D1        3.08132   0.00015   0.00091  -0.00710  -0.00618   3.07514
    D2       -1.04413  -0.00028  -0.00371   0.02346   0.01976  -1.02437
    D3        1.01456   0.00009   0.00149  -0.00921  -0.00770   1.00686
    D4        0.98317   0.00017   0.00168  -0.01213  -0.01048   0.97270
    D5        3.14091  -0.00027  -0.00293   0.01843   0.01546  -3.12681
    D6       -1.08359   0.00011   0.00226  -0.01424  -0.01199  -1.09558
    D7       -1.10873   0.00017   0.00091  -0.00699  -0.00607  -1.11481
    D8        1.04900  -0.00027  -0.00371   0.02358   0.01987   1.06887
    D9        3.10769   0.00010   0.00149  -0.00910  -0.00759   3.10010
   D10        1.09619  -0.00028   0.00094  -0.01562  -0.01465   1.08154
   D11       -0.95787   0.00030   0.00067  -0.00850  -0.00780  -0.96567
   D12       -3.06179  -0.00018   0.00007  -0.01234  -0.01228  -3.07407
   D13       -1.08153  -0.00023   0.00658  -0.05201  -0.04538  -1.12692
   D14       -3.13559   0.00034   0.00631  -0.04490  -0.03853   3.10906
   D15        1.04367  -0.00013   0.00571  -0.04873  -0.04301   1.00067
   D16       -3.09979  -0.00054   0.00128  -0.02132  -0.01999  -3.11978
   D17        1.12934   0.00003   0.00101  -0.01420  -0.01314   1.11619
   D18       -0.97459  -0.00044   0.00041  -0.01804  -0.01762  -0.99220
   D19        3.00156  -0.00002  -0.00184   0.00136  -0.00046   3.00110
   D20        0.85267   0.00007   0.00455  -0.03470  -0.03010   0.82257
   D21       -1.15016   0.00046  -0.00483   0.03118   0.02614  -1.12402
   D22       -1.08292  -0.00043  -0.00685   0.03104   0.02430  -1.05862
   D23        3.05138  -0.00033  -0.00046  -0.00502  -0.00534   3.04604
   D24        1.04855   0.00005  -0.00984   0.06086   0.05090   1.09945
   D25        0.92819  -0.00008  -0.00485   0.02190   0.01715   0.94533
   D26       -1.22070   0.00002   0.00155  -0.01416  -0.01250  -1.23320
   D27        3.05965   0.00040  -0.00783   0.05172   0.04375   3.10340
   D28       -0.69839   0.00102  -0.00007   0.02527   0.02539  -0.67300
   D29        1.46511   0.00063  -0.00205   0.03405   0.03208   1.49720
   D30       -2.85780   0.00027   0.00161   0.00644   0.00825  -2.84954
   D31        0.98579   0.00007   0.00400  -0.01568  -0.01159   0.97420
   D32       -1.07787  -0.00093   0.00513  -0.03922  -0.03418  -1.11205
   D33        3.13276   0.00037  -0.00059   0.01047   0.01011  -3.14031
   D34        1.06911  -0.00063   0.00054  -0.01307  -0.01248   1.05663
   D35       -1.13968  -0.00021   0.00364  -0.02341  -0.01988  -1.15956
   D36        3.07985  -0.00121   0.00477  -0.04695  -0.04247   3.03738
   D37       -1.00131  -0.00104  -0.00161   0.02704   0.02539  -0.97592
   D38        1.10493  -0.00007  -0.00551   0.06429   0.05872   1.16365
   D39        0.82051  -0.00045  -0.00077  -0.02783  -0.02857   0.79194
   D40       -2.19168  -0.00505  -0.02508  -0.15219  -0.17725  -2.36894
   D41        3.11330  -0.00198  -0.00132  -0.00634  -0.00760   3.10570
   D42       -1.05055   0.00229  -0.00179   0.02974   0.02794  -1.02261
   D43        1.01176  -0.00043   0.00243  -0.02248  -0.02008   0.99168
   D44        1.01115  -0.00200  -0.00037  -0.01287  -0.01322   0.99793
   D45        3.13049   0.00227  -0.00085   0.02320   0.02232  -3.13038
   D46       -1.09039  -0.00044   0.00338  -0.02902  -0.02570  -1.11609
   D47       -1.07250  -0.00188  -0.00183  -0.00183  -0.00360  -1.07610
   D48        1.04683   0.00238  -0.00231   0.03425   0.03194   1.07878
   D49        3.10914  -0.00033   0.00191  -0.01798  -0.01607   3.09307
   D50        1.00714  -0.00410  -0.00252  -0.11931  -0.12183   0.88531
   D51       -1.08873  -0.00011   0.00550  -0.10093  -0.09540  -1.18413
   D52       -1.15358  -0.00512   0.00061  -0.15728  -0.15661  -1.31019
   D53        3.03374  -0.00114   0.00863  -0.13891  -0.13018   2.90356
   D54        3.11524  -0.00504  -0.00416  -0.12135  -0.12563   2.98962
   D55        1.01938  -0.00105   0.00386  -0.10298  -0.09920   0.92018
   D56        3.06533  -0.00242  -0.00054  -0.12760  -0.12818   2.93715
   D57        0.90630  -0.00028   0.00579  -0.14257  -0.13689   0.76940
   D58       -1.11781  -0.00031  -0.00245  -0.08823  -0.09089  -1.20870
   D59       -1.02892  -0.00426  -0.00300  -0.10570  -0.10839  -1.13731
   D60        3.09523  -0.00212   0.00334  -0.12067  -0.11710   2.97813
   D61        1.07112  -0.00216  -0.00491  -0.06632  -0.07110   1.00002
   D62        0.99099  -0.00225  -0.00281  -0.09649  -0.09932   0.89167
   D63       -1.16805  -0.00011   0.00353  -0.11146  -0.10803  -1.27608
   D64        3.09103  -0.00014  -0.00472  -0.05712  -0.06203   3.02901
   D65        1.97523   0.00778   0.04601   0.00234   0.04831   2.02354
   D66       -2.17123   0.00194   0.03541  -0.00282   0.03263  -2.13860
   D67        0.80906  -0.00172   0.01503  -0.14782  -0.13259   0.67648
   D68       -1.19373  -0.00073   0.01068  -0.10662  -0.09577  -1.28950
   D69        2.98031  -0.00220   0.00886  -0.12400  -0.11510   2.86521
   D70        0.97752  -0.00121   0.00450  -0.08279  -0.07828   0.89924
   D71       -1.28122  -0.00236   0.01297  -0.15313  -0.14035  -1.42157
   D72        2.99917  -0.00137   0.00862  -0.11193  -0.10354   2.89564
         Item               Value     Threshold  Converged?
 Maximum Force            0.009974     0.000015     NO 
 RMS     Force            0.002104     0.000010     NO 
 Maximum Displacement     1.354460     0.000060     NO 
 RMS     Displacement     0.265664     0.000040     NO 
 GradGradGradGradGradGradGradGradGradGradGradGradGradGradGradGradGradGrad

                    Distance matrix (angstroms):
                    1          2          3          4          5
     1  C    0.000000
     2  C    1.534683   0.000000
     3  N    2.520715   1.474669   0.000000
     4  C    2.549852   1.536649   2.460289   0.000000
     5  N    3.890308   2.567621   3.036670   1.453754   0.000000
     6  H    1.125772   2.220637   3.498986   2.834348   4.171165
     7  H    1.123463   2.211378   2.791930   3.533967   4.757694
     8  H    1.126180   2.200034   2.838500   2.829317   4.236201
     9  H    2.159735   1.114511   2.089872   2.130133   2.753287
    10  H    2.764675   2.072498   1.030473   2.709540   3.388927
    11  H    2.733676   2.085625   1.027462   3.373762   3.980938
    12  H    2.677962   2.163325   3.413779   1.117765   2.106192
    13  H    2.793356   2.147285   2.694610   1.123562   2.111950
    14  H    4.248188   2.804825   2.736535   2.069624   1.028931
    15  H    4.203526   2.859575   3.457834   2.069300   1.027166
    16  C    6.006253   4.826887   3.919799   5.605326   5.207623
    17  C    6.077129   4.667710   3.895467   5.023763   4.275150
    18  N    5.508766   4.070364   3.145490   4.204807   3.467865
    19  C    5.935078   4.501559   4.217278   4.689726   3.808270
    20  N    6.705335   5.215014   5.087693   4.970339   3.762521
    21  H    6.770409   5.648110   4.891488   6.463719   6.031390
    22  H    6.463604   5.366051   4.220742   6.173253   5.841669
    23  H    5.027108   3.980570   3.155241   4.975191   4.842463
    24  H    7.177547   5.749241   4.943110   5.989097   5.092893
    25  H    4.488261   3.091749   2.098956   3.405901   2.979413
    26  H    6.062143   4.720276   3.576086   4.889540   4.247403
    27  H    6.510949   5.188469   4.979049   5.536613   4.758855
    28  H    4.883714   3.485166   3.429566   3.762286   3.090383
    29  H    6.607816   5.080108   4.840956   4.656763   3.344189
    30  H    7.690912   6.199347   5.973185   5.982400   4.748928
                    6          7          8          9         10
     6  H    0.000000
     7  H    1.810795   0.000000
     8  H    1.814873   1.813617   0.000000
     9  H    2.521392   2.544797   3.107322   0.000000
    10  H    3.805637   3.119246   2.653895   2.963132   0.000000
    11  H    3.759951   2.570502   3.140682   2.427533   1.640398
    12  H    2.492830   3.732650   3.013904   2.512590   3.685956
    13  H    3.207381   3.814728   2.605078   3.047873   2.497097
    14  H    4.752831   4.989929   4.530847   3.051195   3.033013
    15  H    4.349358   4.970514   4.771340   2.624737   4.041074
    16  C    6.772437   5.857471   6.638188   4.430981   4.630280
    17  C    6.767556   6.210717   6.658669   4.322078   4.554638
    18  N    6.283371   5.809060   5.880801   4.069466   3.556017
    19  C    6.393164   6.171577   6.673018   3.890851   5.035499
    20  N    7.054026   7.133983   7.369245   4.693263   5.787034
    21  H    7.449244   6.538455   7.500599   5.085624   5.670408
    22  H    7.344536   6.258349   6.955206   5.158761   4.734666
    23  H    5.792929   4.790531   5.712306   3.561180   3.962450
    24  H    7.864612   7.321457   7.725535   5.414441   5.518414
    25  H    5.308430   4.783842   4.854472   3.202499   2.573109
    26  H    6.934475   6.308341   6.297623   4.867208   3.758858
    27  H    6.899990   6.614825   7.353543   4.410309   5.874797
[...]
 -0.08061310,0.02282831,0.00591304,0.00304201,-0.00184768,0.01769665,0.
 00437614,-0.00582731,-0.00043547,0.00243157,0.00084985,0.00039283,0.00
 098032,0.00017992,-0.00006961,0.00106351,-0.00081526,0.00056522,-0.006
 20425,0.00189559,0.08327912,0.08863992,-0.00003450,0.00007182,0.000162
 81,-0.00011067,-0.00029074,-0.00038452,-0.00072024,-0.00011876,0.00070
 357,0.00002628,0.00008162,-0.00000390,-0.00003992,-0.00010530,0.000086
 04,-0.00004735,-0.00000585,0.00001796,0.00000083,-0.00000578,-0.000010
 82,0.00004454,0.00001315,-0.00000148,-0.00001419,0.00003128,0.00017675
 ,0.00014670,0.00006815,-0.00004520,-0.00010369,-0.00005804,-0.00003737
 ,-0.00002374,0.00000537,0.00000979,0.00002126,-0.00002660,0.00003076,0
 .00011073,-0.00012663,-0.00007111,0.00004860,0.00012432,-0.00001541,0.
 00701110,0.00218991,-0.00150200,0.06310312,0.02319610,-0.06702376,-0.0
 3369235,-0.00873396,0.00325721,0.02581285,0.00895853,-0.00796919,-0.00
 256833,0.00163123,0.00158660,0.00019789,-0.00007623,-0.00001043,-0.000
 64128,0.00000106,0.00046797,-0.00009128,0.00171474,0.00020571,-0.05757
 315,-0.02519431,0.07709197,0.00060849,-0.00114412,-0.00090100,-0.00112
 051,0.00340115,0.00295099,-0.00016914,0.00010572,-0.00343545,-0.000109
 98,0.00082480,-0.00047429,-0.00066428,-0.00138147,0.00006539,0.0006096
 2,0.00004422,-0.00030904,-0.00013903,0.00003144,0.00009918,-0.00006173
 ,0.00005416,0.00012096,0.00018827,-0.00027270,-0.00051326,-0.00080826,
 -0.00061402,-0.00020028,0.00146837,-0.00018233,-0.00037245,0.00005045,
 -0.00035738,-0.00001889,-0.00013868,0.00000899,-0.00000267,0.00008482,
 0.00279445,-0.00002976,0.00051115,0.00020306,-0.00010374,0.00190092,0.
 00005019,0.00241072,-0.02281824,-0.01010927,-0.00199247,-0.30810807,-0
 .12449802,0.05037042,0.00194754,-0.00030941,-0.00020008,-0.00098552,0.
 00083747,0.00073562,0.00073187,-0.00083188,0.00069886,-0.00028691,0.00
 037137,-0.00011250,-0.00005008,0.00044126,-0.00024557,0.00015939,0.000
 52365,-0.00245978,0.33345159,0.00042101,-0.00086630,-0.00051207,0.0009
 0005,0.00242816,0.00093671,0.00129124,-0.00608603,-0.00099270,0.001653
 33,0.00129846,-0.00019607,-0.00153009,0.00045482,-0.00001547,0.0002858
 8,0.00007018,-0.00015479,-0.00013139,-0.00010891,0.00009298,-0.0000624
 9,0.00002798,0.00003840,0.00002501,0.00000933,-0.00022617,-0.00003926,
 0.00007470,-0.00017896,-0.00249578,-0.00116778,0.00083174,-0.00034082,
 -0.00030997,0.00024733,-0.00013999,-0.00018268,-0.00008388,0.00314233,
 -0.00392369,0.00015704,-0.00023833,-0.00038107,-0.00013263,0.00188479,
 0.00143092,-0.00108113,0.01036703,0.00024949,0.00207289,-0.16986843,-0
 .09724370,0.02345611,-0.00123017,-0.00015329,0.00028178,0.00072799,-0.
 00075798,-0.00063103,-0.00052643,-0.00018888,-0.00012337,0.00019942,-0
 .00018767,-0.00005318,-0.00030431,-0.00009742,0.00070304,0.00068602,0.
 00060586,0.00076919,0.13631090,0.10015016,-0.00012116,0.00019885,0.000
 14184,0.00130925,-0.00035027,-0.00104073,-0.00247343,-0.00014741,-0.00
 448638,0.00011065,-0.00040144,0.00033062,-0.00017378,0.00075142,-0.000
 62021,-0.00014063,-0.00000177,0.00010946,0.00003243,-0.00001010,-0.000
 02401,-0.00000455,-0.00002586,-0.00004417,0.00000455,0.00007030,-0.000
 09784,-0.00233004,-0.00098212,0.00128473,0.00098933,0.00061084,-0.0002
 2488,0.00000750,0.00015281,-0.00005429,-0.00009477,0.00000611,-0.00007
 659,-0.00010803,-0.00014058,0.00129438,0.00008085,-0.00031427,-0.00008
 784,-0.00071675,-0.00073560,0.00080871,-0.03144196,-0.01426092,0.00657
 744,0.05717333,0.01821421,-0.08027853,-0.00218744,-0.00061896,0.002079
 66,0.00053768,-0.00000028,-0.00039842,0.00028292,-0.00003850,-0.000110
 88,0.00029455,0.00000095,-0.00003124,0.00048150,0.00081312,-0.00040265
 ,-0.00449616,0.00070151,-0.00486292,-0.04651436,-0.02144595,0.08495313
 ,-0.00000876,0.00002396,0.00007289,0.00024335,-0.00006423,-0.00028941,
 -0.00142205,-0.00102735,-0.00030061,0.00026604,0.00010285,0.00007525,-
 0.00047417,0.00038129,-0.00031365,-0.00003862,-0.00000615,0.00002040,-
 0.00000023,-0.00001207,0.00000082,-0.00000296,0.00000139,-0.00001057,0
 .00002591,0.00002090,-0.00002376,-0.00046530,-0.00010971,0.00022666,-0
 .00010703,-0.00001393,0.00009906,-0.00008781,-0.00001669,0.00001305,-0
 .00006182,-0.00003752,-0.00003032,0.00036330,-0.00047266,0.00063220,0.
 00001910,-0.00017977,-0.00008283,-0.00012929,-0.00068985,-0.00040097,0
 .01072783,-0.00988916,-0.02365716,-0.12323788,0.05142819,0.12659082,-0
 .00309637,0.00139085,-0.00378355,0.00018951,-0.00001995,0.00024074,-0.
 00010080,-0.00002260,0.00000935,0.00011671,0.00031926,0.00033817,-0.00
 007783,0.00002715,0.00018658,0.00050449,-0.00072171,0.00002564,-0.0068
 2697,0.01958246,0.02812524,0.12304849,-0.00000380,0.00000777,0.0000112
 7,0.00001790,-0.00000764,-0.00004808,-0.00062978,-0.00043385,-0.000232
 88,-0.00014578,-0.00018822,-0.00006639,0.00084141,-0.00044234,0.000379
 46,-0.00000031,-0.00000380,-0.00000092,0.00000259,0.00000405,0.0000009
 9,0.00001987,0.00000921,0.00001089,0.00001653,-0.00000140,0.00005433,-
 0.00010909,0.00002644,0.00003230,-0.00011059,0.00000187,0.00010283,0.0
 0007953,0.00002854,-0.00002917,0.00007990,0.00004811,0.00003445,-0.000
 53632,0.00021809,-0.00098475,-0.00024337,0.00023296,0.00013485,-0.0009
 6328,0.00160408,0.00128533,0.00015697,-0.00282631,0.01016333,0.0662842
 8,-0.08400145,-0.16120356,-0.00064923,-0.00060692,-0.00104243,-0.00045
 747,0.00026314,-0.00093586,0.00015835,-0.00016289,-0.00039828,0.000538
 63,-0.00039999,-0.00015306,-0.00003288,-0.00013363,0.00008024,-0.00015
 219,0.00001890,-0.00032582,-0.00529019,0.00477595,0.01717881,-0.059351
 17,0.08074918,-0.00000967,0.00001990,0.00003483,0.00005682,-0.00012166
 ,-0.00016897,-0.00026794,0.00012452,0.00019648,0.00006887,0.00006298,0
 .00004640,-0.00043747,0.00031948,-0.00009693,-0.00002121,0.00000586,0.
 00001296,0.00000240,0.00000056,-0.00000629,0.00000054,-0.00000216,-0.0
 0000615,0.00000096,0.00000223,0.00001675,0.00005616,0.00000542,0.00001
 022,0.00016547,0.00005446,-0.00009174,-0.00003587,0.00000346,0.0000156
 9,-0.00001571,-0.00001591,-0.00001184,0.00048358,-0.00031866,0.0002365
 3,0.00003370,-0.00008794,-0.00005502,0.00130440,-0.00040204,0.00110628
 ,0.01416747,-0.01475227,-0.02393311,0.11561698,-0.11986226,-0.29994824
 ,-0.00535227,0.00224025,-0.00362085,0.00031963,0.00043287,0.00057440,-
 0.00011828,-0.00022593,0.00066753,-0.00036772,0.00114881,-0.00008098,-
 0.00006246,0.00000593,-0.00003950,-0.00017684,-0.00020025,0.00125438,0
 .00071685,-0.00345675,-0.00369010,-0.12650338,0.13620792,0.32814983,-0
 .00000934,-0.00000612,-0.00008406,0.00015830,-0.00002076,0.00008605,-0
 .00020316,-0.00008337,-0.00017084,0.00038359,0.00001989,-0.00001405,-0
 .00049701,0.00050614,-0.00030743,-0.00002649,0.00001522,0.00001341,-0.
 00001533,-0.00004371,0.00000632,-0.00004244,-0.00001953,0.00000956,0.0
 0006322,0.00002986,-0.00021997,-0.00008426,-0.00002952,0.00003501,0.00
 002331,0.00003218,0.00000433,-0.00004697,0.00000932,0.00003482,-0.0000
 6144,-0.00003313,-0.00003642,0.00005278,-0.00009765,0.00034056,0.00018
 860,-0.00043833,-0.00008915,0.00030061,-0.00023279,-0.00007604,0.00674
 124,-0.00105891,0.01064354,0.00020597,0.00084266,0.00193880,-0.1369990
 0,0.01958679,-0.12363275,0.00069323,-0.00110957,0.00099828,0.00021558,
 0.00006560,0.00007200,0.00001203,-0.00029397,0.00014561,-0.00009340,0.
 00004352,-0.00013638,0.00073335,-0.00058841,-0.00043078,-0.00001312,0.
 00041978,0.00054952,0.00059422,0.00017981,0.00055005,0.13894897,-0.000
 03240,0.00004965,-0.00001128,0.00012353,-0.00007033,-0.00003177,-0.000
 22306,0.00000541,-0.00001226,-0.00007487,-0.00008430,0.00006327,0.0001
 9808,0.00032172,-0.00012195,-0.00001582,-0.00000208,0.00001162,0.00000
 709,0.00000219,-0.00000569,-0.00000894,-0.00000942,0.00000105,0.000004
 53,0.00000667,-0.00003828,-0.00001338,-0.00001965,0.00001158,0.0000291
 9,0.00003276,-0.00000695,0.00000539,0.00001325,-0.00001115,0.00002696,
 0.00003078,-0.00000296,-0.00001279,-0.00024219,0.00002847,-0.00029666,
 -0.00020966,0.00008910,-0.00041175,0.00014026,-0.00062781,-0.01191720,
 0.00307533,-0.01110211,0.00210251,-0.00116660,-0.00430987,0.01456483,-
 0.05425002,0.02218058,0.02040658,-0.00986056,0.03217039,0.00043386,-0.
 00064969,-0.00021696,-0.00004123,0.00019045,0.00022478,-0.00007833,-0.
 00000340,0.00004027,0.00033985,0.00046359,0.00048862,0.00027193,0.0001
 1667,0.00027859,-0.00068826,-0.00018439,-0.00103056,-0.02164324,0.0661
 2131,-0.00000741,0.00001374,0.00004848,-0.00000217,-0.00008803,-0.0000
 9543,-0.00020656,-0.00000855,0.00019020,0.00006075,0.00008485,-0.00001
 504,-0.00012300,-0.00012942,0.00008230,-0.00001727,0.00000248,0.000008
 30,-0.00000288,-0.00001218,-0.00000028,0.00001270,0.00000391,-0.000002
 08,0.00000659,0.00000677,0.00001783,0.00005568,0.00003246,-0.00001685,
 -0.00000424,0.00000165,-0.00002089,-0.00002798,-0.00000483,0.00002026,
 -0.00000286,-0.00002133,0.00000172,0.00017382,-0.00001026,-0.00004459,
 0.00008737,0.00007082,-0.00003276,-0.00057068,0.00073055,0.00038786,-0
 .01667807,0.00493469,-0.01664575,0.00309073,-0.00272382,-0.00466446,-0
 .11954291,0.02684331,-0.22366271,-0.00266954,0.00195431,-0.00476510,0.
 00042945,-0.00065757,0.00049846,0.00033045,0.00014795,0.00029024,0.000
 08982,-0.00008524,-0.00002964,0.00025166,0.00070144,0.00061479,0.00036
 996,0.00009094,0.00004331,-0.00114987,-0.00045900,-0.00107651,0.131414
 38,-0.03146519,0.24077551,0.00005226,0.00003338,0.00002875,-0.00111694
 ,-0.00042234,-0.00065497,-0.00055033,0.00015394,-0.00027480,0.00005803
 ,-0.00029480,0.00015018,-0.00014634,0.00078877,-0.00040923,-0.00000012
 ,0.00000305,0.00001200,0.00002519,0.00001273,-0.00000310,-0.00004839,-
 0.00000772,-0.00000816,-0.00059477,-0.00025963,0.00009001,-0.00010523,
 0.00005951,0.00008918,0.00020649,0.00011366,0.00012971,-0.00000096,0.0
 0001560,-0.00001691,0.00003799,0.00004278,-0.00003346,0.00002760,-0.00
 014844,0.00029658,-0.00016824,0.00000162,-0.00006754,0.00023721,-0.000
 52414,-0.00008070,-0.01444986,-0.00411522,0.00302781,0.00203098,0.0004
 0215,-0.00126515,-0.26996047,-0.06930456,0.04938356,0.00819317,-0.0030
 6012,-0.00110853,0.00004371,-0.00003492,0.00010215,0.00038278,0.000248
 86,-0.00009803,0.00027121,0.00099131,-0.00002077,0.00037924,0.00172972
 ,0.00201504,-0.00006528,0.00008280,0.00103290,0.00022302,-0.00004809,-
 0.00008209,-0.01357164,-0.00425628,0.00451883,0.28761865,0.00004499,-0
 .00001922,-0.00012629,-0.00018339,0.00004809,0.00014076,-0.00005819,-0
 .00006137,0.00000605,0.00040762,0.00003624,0.00012685,-0.00020080,0.00
 071728,-0.00053432,0.00002421,0.00000682,0.00000428,-0.00001872,-0.000
 03423,0.00002692,-0.00006624,-0.00002655,-0.00000855,-0.00001198,0.000
 39466,-0.00016532,0.00004370,0.00000318,-0.00003935,-0.00010029,-0.000
 11002,0.00001896,0.00000007,-0.00002196,0.00002309,-0.00007064,-0.0000
 4568,-0.00007151,-0.00007068,-0.00019581,0.00029364,-0.00009235,-0.001
 21199,0.00028584,0.00093006,0.00145143,-0.00002950,0.01695363,0.004374
 26,-0.00525910,-0.00009643,0.00057810,0.00137031,-0.06589007,-0.065637
 61,0.01556158,-0.03058733,-0.02442292,0.00361408,0.00005580,-0.0000080
 4,-0.00000292,-0.00027494,0.00018226,0.00008967,-0.00036146,-0.0003918
 2,-0.00005327,0.00130362,-0.00169601,-0.00309011,-0.00037817,0.0001973
 1,0.00003389,0.00011603,0.00002941,0.00022572,0.00408380,0.00170845,-0
 .00173136,0.07669845,0.08943888,-0.00003355,-0.00002871,0.00002999,-0.
 00039021,0.00011050,0.00041530,0.00008151,0.00009762,0.00025071,-0.000
 31038,-0.00006935,-0.00008180,0.00037887,-0.00054378,0.00023192,0.0000
 4637,-0.00001145,-0.00003196,0.00001441,0.00003842,-0.00000666,0.00002
 475,0.00001158,-0.00000195,-0.00011056,-0.00010531,0.00027191,0.000183
 34,0.00007733,-0.00008304,-0.00000872,-0.00005982,0.00001355,0.0000739
 3,-0.00002787,-0.00002401,0.00006380,0.00004137,0.00003215,-0.00006462
 ,0.00020450,-0.00037101,-0.00004799,0.00070336,0.00014942,-0.00035535,
 0.00134025,0.00015795,0.02802875,0.00517594,-0.00802781,-0.00008319,0.
 00077250,0.00232548,0.04648558,0.01469364,-0.06321453,0.00474063,0.005
 17851,0.00190491,-0.00007215,-0.00005472,0.00002944,-0.00029829,-0.000
 02997,0.00002835,-0.00038536,-0.00047051,0.00041968,0.00212542,-0.0028
 3112,-0.00373770,-0.00003245,-0.00064778,-0.00118031,-0.00016483,0.000
 20374,0.00040809,-0.02365929,-0.00812882,0.00742949,-0.05741335,-0.016
 45318,0.06339639,-0.00015985,0.00027066,-0.00001401,0.00042294,-0.0001
 8519,-0.00005747,-0.00045901,0.00035862,0.00002934,-0.00129979,-0.0008
 0603,0.00042601,0.00182256,0.00115278,-0.00011895,-0.00002671,-0.00003
 315,0.00002745,0.00007889,0.00011743,-0.00005358,0.00000508,-0.0000221
 1,0.00000979,-0.00002344,-0.00005787,-0.00000667,0.00000204,-0.0000752
 5,0.00001020,0.00022189,0.00012680,-0.00000669,0.00022097,0.00012544,-
 0.00019026,0.00033028,0.00033741,0.00006054,-0.00145646,-0.00182195,-0
 .00114805,-0.00309830,-0.00043038,0.00180621,-0.00031574,-0.00005138,-
 0.00082296,0.00137784,-0.00078305,-0.00084845,-0.00256635,-0.00006256,
 0.00067688,-0.00083837,0.00736975,-0.00388623,-0.05262548,-0.01337371,
 -0.06139502,0.00001704,0.00009778,0.00007934,0.00005886,-0.00033787,0.
 00008173,-0.00008593,-0.00020875,0.00012162,-0.00069971,0.00035913,0.0
 0013592,0.00070687,-0.00125112,-0.00024499,-0.00020290,0.00052427,-0.0
 0016789,0.00083312,0.00085896,-0.00001072,-0.00040114,-0.00076310,0.00
 067447,0.06702828,0.00008163,-0.00013199,-0.00006550,-0.00030595,0.000
 23508,0.00030609,0.00066731,-0.00001561,-0.00032292,0.00028487,-0.0002
 1041,-0.00022059,-0.00040180,-0.00092549,0.00066347,0.00005667,0.00000
 352,-0.00003701,-0.00002543,-0.00001939,0.00002296,-0.00000599,0.00001
 043,0.00000615,0.00000623,-0.00000903,-0.00002164,-0.00006780,-0.00002
 105,0.00000783,-0.00009319,-0.00005371,0.00002774,0.00010307,0.0000240
 7,-0.00002138,-0.00008603,-0.00004786,0.00001074,-0.00131195,0.0006178
 9,-0.00075465,0.00052231,0.00133072,-0.00044907,-0.00031061,0.00039495
 ,0.00008435,0.00199907,-0.00069534,0.00223661,0.00018862,-0.00004212,0
 .00037889,0.01258740,-0.00871542,0.04166962,-0.01398214,-0.05329520,0.
 02545761,-0.00023133,0.00032871,-0.00023557,-0.00001039,0.00013042,-0.
 00011679,0.00009549,0.00012315,0.00003306,0.00020519,-0.00018034,-0.00
 043347,-0.00085249,-0.00019264,0.00028001,-0.00004353,0.00138208,-0.00
 037986,-0.00018110,-0.00721179,0.00140716,-0.00031550,-0.00019029,0.00
 000949,0.00324522,0.06535125,0.00005325,-0.00009159,-0.00005588,-0.000
 06301,0.00020596,0.00017273,0.00034055,-0.00008972,-0.00019342,0.00021
 765,0.00023026,-0.00069720,-0.00116726,-0.00008321,0.00036282,0.000028
 31,0.00000894,-0.00001861,-0.00002274,-0.00003200,0.00002116,-0.000016
 52,0.00000257,-0.00000151,0.00001208,0.00002427,-0.00005490,-0.0000591
 8,-0.00001252,0.00001419,-0.00006972,-0.00004150,0.00001093,0.00002686
 ,0.00001394,0.00003524,-0.00024777,-0.00017897,0.00000554,-0.00090112,
 -0.00042339,0.00074488,0.00181176,0.00005905,-0.00064265,-0.00045685,-
 0.00005169,-0.00075827,0.00045508,-0.00269060,0.00028566,0.00094131,-0
 .00141820,-0.00063855,-0.00026931,0.00193349,-0.00809156,-0.10684696,0
 .05282927,-0.39370518,-0.00003350,0.00029195,-0.00000186,0.00004914,-0
 .00017308,0.00009816,0.00004052,-0.00002131,-0.00001102,-0.00009648,0.
 00012159,0.00009846,-0.00057776,0.00008402,0.00016591,0.00011395,0.000
 36521,0.00002591,0.00143085,0.00068269,0.00048874,-0.00022660,0.000506
 67,-0.00041042,0.10096084,-0.05138171,0.40477577,0.00001749,-0.0000457
 6,-0.00002146,0.00001904,0.00004627,0.00002538,-0.00006218,-0.00006613
 ,-0.00000485,0.00028987,0.00018658,-0.00036001,-0.00096207,0.00015898,
 0.00018553,-0.00000803,0.00001131,0.00000686,-0.00001293,-0.00002592,0
 .00001182,-0.00001638,-0.00000424,-0.00000324,0.00004743,0.00001287,-0
 .00004344,-0.00001668,0.00001261,-0.00000015,0.00000609,0.00000641,0.0
 0000991,-0.00005357,-0.00001075,0.00005645,-0.00015294,-0.00012199,-0.
 00000388,0.00015546,0.00004523,0.00035221,0.00069189,-0.00043764,-0.00
 045645,-0.00016607,0.00024783,0.00021853,0.00103058,0.00163621,-0.0008
 8889,0.00007389,-0.00009771,-0.00010377,0.00046933,0.00860326,0.003868
 99,-0.35218045,-0.16523421,-0.07266502,0.00001009,-0.00001348,-0.00000
 844,-0.00004980,0.00009964,-0.00003610,-0.00004286,0.00002984,0.000042
 90,-0.00014772,-0.00027234,-0.00014926,-0.00005354,0.00017860,0.000035
 83,0.00001881,-0.00017651,0.00007491,0.00151546,0.00034096,0.00012395,
 0.00139221,-0.00143719,0.00050845,-0.00886746,-0.00181786,0.00457261,0
 .35705504,-0.00002911,0.00004604,-0.00003722,0.00008060,0.00001453,0.0
 0010452,0.00008328,0.00006155,-0.00013023,-0.00026823,-0.00024437,0.00
 031115,0.00114745,0.00005020,-0.00001053,0.00000923,-0.00001041,-0.000
 00353,0.00001639,0.00002696,-0.00000856,-0.00000610,-0.00000604,0.0000
 0503,-0.00001993,-0.00003397,-0.00004814,-0.00002958,-0.00003638,0.000
 01325,0.00001484,0.00002744,0.00001638,0.00005666,0.00001651,-0.000060
 63,0.00014031,0.00013153,-0.00000006,-0.00015547,-0.00011470,-0.000218
 85,-0.00108156,0.00015840,0.00021338,0.00054521,0.00009835,-0.00016052
 ,-0.00174293,-0.00054572,0.00059205,0.00048495,0.00039223,0.00014128,-
 0.03670594,-0.01901502,-0.00490096,-0.12853587,-0.10437284,-0.00279907
 ,-0.00001559,-0.00006606,0.00004672,0.00016099,0.00001006,0.00005327,0
 .00011516,0.00031446,-0.00006201,0.00089320,-0.00020824,-0.00075347,-0
 .00005329,-0.00004198,0.00018261,-0.00002803,-0.00000697,-0.00000415,0
 .00004556,0.00168562,0.00036973,0.00141344,-0.00509283,0.00080364,0.00
 531922,0.00202540,-0.00067040,0.15814514,0.12473623,0.00002974,-0.0000
 1734,0.00005593,-0.00013112,0.00001952,-0.00005606,0.00021477,-0.00002
 449,0.00006097,-0.00007085,0.00017280,0.00004299,0.00013196,-0.0003254
 1,0.00027639,0.00002028,-0.00000738,-0.00001758,-0.00000716,0.00000263
 ,0.00000085,0.00002988,0.00001644,-0.00000114,-0.00006876,0.00000513,0
 .00010149,0.00004182,0.00001261,-0.00000700,-0.00009125,-0.00006457,-0
 .00002177,-0.00000798,-0.00003069,-0.00000557,0.00001683,-0.00000702,0
 .00001267,0.00011704,0.00021949,0.00010871,-0.00049301,0.00021544,-0.0
 0051684,0.00046773,0.00003477,0.00000603,-0.00155380,-0.00053658,-0.00
 040630,0.00089437,-0.00079323,-0.00097186,0.01130732,0.00220502,-0.000
 92704,-0.04108348,0.00446829,-0.04668743,-0.00006201,0.00001245,0.0000
 0952,-0.00001793,0.00002734,0.00004361,-0.00002924,0.00005722,-0.00006
 107,0.00045493,-0.00040921,-0.00008893,-0.00004315,0.00016974,-0.00007
 715,-0.00005991,-0.00036574,0.00006993,0.00058403,0.00085259,0.0001746
 0,0.00088668,0.00523649,-0.00032351,-0.03612838,-0.01816165,-0.0020250
 6,0.06465063,0.00701536,0.05123062\\0.00000020,0.00000029,0.00000009,0
 .00000082,-0.00000079,-0.00000097,-0.00000343,-0.00000002,0.00000143,0
 .00000008,-0.00000003,0.00000022,0.00000083,0.00000005,0.00000062,-0.0
 0000006,-0.00000012,0.,-0.00000004,-0.00000008,-0.00000014,-0.00000006
 ,-0.00000005,-0.00000001,0.00000002,0.00000010,0.00000011,0.00000095,0
 .00000063,-0.00000038,0.00000119,0.00000051,-0.00000065,-0.00000014,0.
 ,0.00000002,-0.00000018,0.00000016,0.00000008,-0.00000053,-0.00000003,
 -0.00000054,-0.00000042,0.00000016,0.00000007,0.00000014,0.00000034,-0
 .00000003,0.00000007,-0.00000031,0.00000057,-0.00000056,0.00000075,0.0
 0000003,0.00000058,0.00000145,-0.00000100,0.00000015,-0.00000154,0.000
 00087,-0.00000007,-0.00000021,-0.00000017,-0.00000003,-0.00000003,-0.0
 0000014,-0.00000010,-0.00000013,-0.00000006,0.00000004,0.00000002,-0.0
 0000013,0.00000088,-0.00000078,-0.00000006,0.00000007,0.00000011,-0.00
 000015,-0.00000029,-0.00000020,0.00000029,-0.00000009,-0.00000042,0.00
 000011,-0.00000011,0.00000009,-0.00000002,0.00000010,0.00000007,-0.000
 00007\\\@


 CLIMB THE MOUNTAINS AND GET THEIR GOOD TIDINGS.
 NATURE'S PEACE WILL FLOW INTO YOU AS SUNSHINE FLOWS INTO TREES.
 THE WINDS WILL BLOW THEIR OWN FRESHNESS INTO YOU, 
 AND CARES WILL DROP OFF LIKE AUTUMN LEAVES.

                                         -- JOHN MUIR
 File lengths (MBytes):  RWF=    123 Int=      0 D2E=      0 Chk=      4 Scr=      1
 Normal termination of Gaussian 16 at Mon Apr  1 15:38:09 2024.
real 1849.50
user 6957.75
sys 38.38
