You are running Q-Chem version: 5.3.2

#
# job setting
#
local host:  c281.cluster
current dir: /scratch/user/peterchao1/peterchao1/10001446_1712072071000000995079697
input file:  qchem_test.inp
output file: 
nprocs     : 0
nthreads   : 8
#
# qchem installation setting
#
QC:          /sw/restricted/qchem/sw/5.3.2
QCAUX:       /sw/restricted/qchem/sw/5.3.2/qcaux
QCPROG:      /sw/restricted/qchem/sw/5.3.2/exe/qcprog.exe_s
QCPROG_S:    /sw/restricted/qchem/sw/5.3.2/exe/qcprog.exe_s
PARALLEL:    -DSERIAL
QCMPI:       seq
#
# qchem directory setting
#
qcrun:       qchem1155
QCSCRATCH:   /scratch/user/peterchao1/peterchao1/10001446_1712072071000000995079697
QCLOCALSCR:  
QCTMPDIR:    /scratch/user/peterchao1/peterchao1/10001446_1712072071000000995079697
QCFILEPREF:  /scratch/user/peterchao1/peterchao1/10001446_1712072071000000995079697/qchem1155
QCSAVEDIR:   
workdirs:    /scratch/user/peterchao1/peterchao1/10001446_1712072071000000995079697/qchem1155
workdir0:    /scratch/user/peterchao1/peterchao1/10001446_1712072071000000995079697/qchem1155
partmpdirs =  
#
# parallel setting
#
QCRSH:           ssh
QCMPI:           seq
QCMPIRUN:        
QCMACHINEFILE:   /scratch/user/peterchao1/peterchao1/10001446_1712072071000000995079697/qchem1155/hostfile

#
# env setting
#
exported envs:   QC QCAUX QCSCRATCH QCRUNNAME QCFILEPREF QCPROG QCPROG_S GUIFILE

Running Job 1 of 1 qchem_test.inp
qchem qchem_test.inp_1155.0 /scratch/user/peterchao1/peterchao1/10001446_1712072071000000995079697/qchem1155/ 0
/sw/restricted/qchem/sw/5.3.2/exe/qcprog.exe_s qchem_test.inp_1155.0 /scratch/user/peterchao1/peterchao1/10001446_1712072071000000995079697/qchem1155/
                  Welcome to Q-Chem
     A Quantum Leap Into The Future Of Chemistry


 Q-Chem 5.3, Q-Chem, Inc., Pleasanton, CA (2020)

 License issued to: MRG Daniel Tabor and Mike Hall, Texas A&M University

 Yihan Shao,  Zhengting Gan,  E. Epifanovsky,  A. T. B. Gilbert,  M. Wormit,  
 J. Kussmann,  A. W. Lange,  A. Behn,  Jia Deng,  Xintian Feng,  D. Ghosh,  
 M. Goldey,  P. R. Horn,  L. D. Jacobson,  I. Kaliman,  T. Kus,  A. Landau,  
 Jie Liu,  E. I. Proynov,  R. M. Richard,  R. P. Steele,  E. J. Sundstrom,  
 H. L. Woodcock III,  P. M. Zimmerman,  D. Zuev,  B. Alam,  B. Albrecht,  
 A. Aldossary,  E. Alguire,  S. A. Baeppler,  D. Barton,  Z. Benda,  
 Y. A. Bernard,  E. J. Berquist,  K. B. Bravaya,  H. Burton,  K. Carter-Fenk,  
 D. Casanova,  Chun-Min Chang,  Yunqing Chen,  A. Chien,  K. D. Closser,  
 M. P. Coons,  S. Coriani,  S. Dasgupta,  A. L. Dempwolff,  M. Diedenhofen,  
 Hainam Do,  R. G. Edgar,  Po-Tung Fang,  S. Faraji,  S. Fatehi,  
 Qingguo Feng,  J. Fosso-Tande,  J. Gayvert,  Qinghui Ge,  A. Ghysels,  
 G. Gidofalvi,  J. Gomes,  J. Gonthier,  S. Gulania,  A. Gunina,  D. Hait,  
 M. W. D. Hanson-Heine,  S. Hammes-Schiffer,  P. H. P. Harbach,  
 A. W. Hauser,  M. F. Herbst,  J. E. Herr,  E. G. Hohenstein,  Z. C. Holden,  
 S. Houck,  Kerwin Hui,  B. C. Huynh,  M. Ivanov,  T.-C. Jagau,  Hyunjun Ji,  
 B. Kaduk,  K. Khistyaev,  Jaehoon Kim,  P. Klunzinger,  K. Koh,  
 D. Kosenkov,  L. Koulias,  T. Kowalczyk,  C. M. Krauter,  A. Kunitsa,  
 Ka Un Lao,  A. Laurent,  K. V. Lawler,  Joonho Lee,  D. Lefrancois,  
 S. Lehtola,  D. S. Levine,  Yi-Pei Li,  You-Sheng Lin,  Fenglai Liu,  
 Kuan-Yu Liu,  E. Livshits,  M. Loipersberger,  A. Luenser,  A. Manjanath,  
 P. Manohar,  E. Mansoor,  S. F. Manzer,  Shan-Ping Mao,  Yuezhi Mao,  
 N. Mardirossian,  A. V. Marenich,  T. Markovich,  L. A. Martinez-Martinez,  
 S. A. Maurer,  N. J. Mayhall,  S. C. McKenzie,  J.-M. Mewes,  P. Morgante,  
 A. F. Morrison,  J. W. Mullinax,  K. Nanda,  T. S. Nguyen-Beck,  
 R. Olivares-Amaya,  K. J. Oosterbaan,  J. A. Parkhill,  S. K. Paul,  
 F. Pavosevic,  Zheng Pei,  T. M. Perrine,  F. Plasser,  P. Pokhilko,  
 S. Prager,  A. Prociuk,  E. Ramos,  B. Rana,  D. R. Rehn,  F. Rob,  
 E. Rossomme,  M. Scheurer,  M. Schneider,  N. Sergueev,  S. M. Sharada,  
 S. Sharma,  W. Skomorowski,  D. W. Small,  T. Stauch,  C. J. Stein,  
 T. Stein,  Yu-Chuan Su,  S. P. Veccham,  Zhen Tao,  A. J. W. Thom,  
 A. Tkatchenko,  T. Tsuchimochi,  N. M. Tubman,  L. Vogt,  M. L. Vidal,  
 O. Vydrov,  M. A. Watson,  J. Wenzel,  M. de Wergifosse,  T. A. Wesolowski,  
 A. White,  J. Witte,  A. Yamada,  Jun Yang,  K. Yao,  S. Yeganeh,  
 S. R. Yost,  Zhi-Qiang You,  A. Zech,  Igor Ying Zhang,  Xing Zhang,  
 Yan Zhao,  Ying Zhu,  B. R. Brooks,  G. K. L. Chan,  C. J. Cramer,  
 M. S. Gordon,  W. J. Hehre,  A. Klamt,  M. W. Schmidt,  C. D. Sherrill,  
 D. G. Truhlar,  A. Aspuru-Guzik,  R. Baer,  A. T. Bell,  N. A. Besley,  
 Jeng-Da Chai,  A. E. DePrince, III,  R. A. DiStasio Jr.,  A. Dreuw,  
 B. D. Dunietz,  T. R. Furlani,  Chao-Ping Hsu,  Yousung Jung,  Jing Kong,  
 D. S. Lambrecht,  WanZhen Liang,  C. Ochsenfeld,  V. A. Rassolov,  
 L. V. Slipchenko,  J. E. Subotnik,  T. Van Voorhis,  J. M. Herbert,  
 A. I. Krylov,  P. M. W. Gill,  M. Head-Gordon

 Contributors to earlier versions of Q-Chem not listed above: 
 R. D. Adamson,  B. Austin,  J. Baker,  G. J. O. Beran,  K. Brandhorst,  
 S. T. Brown,  E. F. C. Byrd,  A. K. Chakraborty,  C.-L. Cheng,  
 Siu Hung Chien,  D. M. Chipman,  D. L. Crittenden,  H. Dachsel,  
 R. J. Doerksen,  A. D. Dutoi,  L. Fusti-Molnar,  W. A. Goddard III,  
 A. Golubeva-Zadorozhnaya,  S. R. Gwaltney,  G. Hawkins,  A. Heyden,  
 S. Hirata,  G. Kedziora,  F. J. Keil,  C. Kelley,  Jihan Kim,  R. A. King,  
 R. Z. Khaliullin,  P. P. Korambath,  W. Kurlancheek,  A. M. Lee,  M. S. Lee,  
 S. V. Levchenko,  Ching Yeh Lin,  D. Liotard,  R. C. Lochan,  I. Lotan,  
 P. E. Maslen,  N. Nair,  D. P. O'Neill,  D. Neuhauser,  E. Neuscamman,  
 C. M. Oana,  R. Olson,  B. Peters,  R. Peverati,  P. A. Pieniazek,  
 Y. M. Rhee,  J. Ritchie,  M. A. Rohrdanz,  E. Rosta,  N. J. Russ,  
 H. F. Schaefer III,  N. E. Schultz,  N. Shenvi,  A. C. Simmonett,  A. Sodt,  
 D. Stuck,  K. S. Thanthiriwatte,  V. Vanovschi,  Tao Wang,  A. Warshel,  
 C. F. Williams,  Q. Wu,  X. Xu,  W. Zhang

 Please cite Q-Chem as follows:
 Y. Shao et al., Mol. Phys. 113, 184-215 (2015)
 DOI: 10.1080/00268976.2014.952696

 Q-Chem 5.3.2 for Intel X86 EM64T Linux

 Parts of Q-Chem use Armadillo 9.800.1 (Horizon Scraper).
 http://arma.sourceforge.net/

 Q-Chem begins on Tue Apr  2 10:34:32 2024  

Host: 
0

     Scratch files written to /scratch/user/peterchao1/peterchao1/10001446_1712072071000000995079697/qchem1155//
 Dec820 |scratch|qcdevops|jenkins|workspace|build_RNUM -1
Processing $rem in /sw/restricted/qchem/sw/5.3.2/config/preferences:
Processing $rem in /home/peterchao1/.qchemrc:

 Q-Chem warning in module libgen/rem_setup.C, line 2945:

 Neither GIA nor STOLL is specified by user. Use STOLL as the default


Checking the input file for inconsistencies... 	...done.

--------------------------------------------------------------
User input:
--------------------------------------------------------------
$molecule
0 1
--
0 1
C        4.669970   -1.027658   -0.313549
C        4.022793    0.335278   -0.078622
C        2.478405    0.340608    0.028541
N        1.824992   -0.444071   -1.022451
C        2.061650   -0.223602    1.403972
O        0.716880   -0.585684    1.525244
C        2.009232    1.805132   -0.097030
O        0.685416    2.022004    0.279502
H        5.767829   -0.930825   -0.355675
H        4.342979   -1.472191   -1.269129
H        4.434829   -1.747346    0.489467
H        4.311578    1.010319   -0.907377
H        4.441715    0.789315    0.838758
H        1.963506   -1.447129   -0.897611
H        2.192166   -0.192419   -1.941533
H        2.343930    0.519053    2.176759
H        2.636656   -1.142118    1.614839
H        0.104672    0.162994    1.326741
H        2.199342    2.144712   -1.139706
H        2.640015    2.427496    0.562516
H        0.093575    1.613003   -0.394397
--
0 1
C       -4.669987    1.027640    0.313505
C       -4.022798   -0.335291    0.078580
C       -2.478407   -0.340612   -0.028546
N       -1.825018    0.444079    1.022450
C       -2.009229   -1.805131    0.097050
O       -0.685404   -2.022003   -0.279448
C       -2.061626    0.223587   -1.403977
O       -0.716869    0.585723   -1.525216
H       -4.434807    1.747345   -0.489486
H       -4.343040    1.472152    1.269109
H       -5.767847    0.930806    0.355577
H       -4.441694   -0.789320   -0.838817
H       -4.311602   -1.010342    0.907319
H       -2.192184    0.192411    1.941530
H       -1.963566    1.447134    0.897615
H       -2.639994   -2.427505   -0.562505
H       -2.199365   -2.144702    1.139725
H       -0.093581   -1.612976    0.394450
H       -2.636664    1.142074   -1.614884
H       -2.343851   -0.519096   -2.176757
H       -0.104624   -0.162930   -1.326718
$end

$rem
JOBTYPE           eda
EDA2              2
METHOD            wB97x-D
BASIS             def2-SV(P)
SCF_CONVERGENCE   8
THRESH            14
SYMMETRY          false
DISP_FREE_X       wB97X-D
DISP_FREE_C       none
EDA_BSSE          true
$end
--------------------------------------------------------------
 ----------------------------------------------------------------
             Standard Nuclear Orientation (Angstroms)
    I     Atom           X                Y                Z
 ----------------------------------------------------------------
    1      C       4.6699700069    -1.0276581145    -0.3135492595
    2      C       4.0227930651     0.3352778745    -0.0786220357
    3      C       2.4784050671     0.3406079194     0.0285409903
    4      N       1.8249920187    -0.4440708900    -1.0224511219
    5      C       2.0616500669    -0.2236022793     1.4039719087
    6      O       0.7168800545    -0.5856842446     1.5252438739
    7      C       2.0092321235     1.8051319578    -0.0970297728
    8      O       0.6854161382     2.0220039516     0.2795022826
    9      H       5.7678290101    -0.9308251517    -0.3556752622
   10      H       4.3429789737    -1.4721909519    -1.2691293238
   11      H       4.4348289913    -1.7473462308     0.4894666316
   12      H       4.3115780786     1.0103189928    -0.9073769347
   13      H       4.4417150982     0.7893147142     0.8387580286
   14      H       1.9635059807    -1.4471289151    -0.8976112812
   15      H       2.1921660138    -0.1924187608    -1.9415330885
   16      H       2.3439301091     0.5190525885     2.1767590204
   17      H       2.6366560337    -1.1421183352     1.6148387556
   18      H       0.1046720811     0.1629938109     1.3267410011
   19      H       2.1993421201     2.1447121134    -1.1397057228
   20      H       2.6400151590     2.4274958294     0.5625163143
   21      H       0.0935751110     1.6130030807    -0.3943967718
   22      C      -4.6699869009     1.0276401600     0.3135052141
   23      C      -4.0227979591    -0.3352908291     0.0785799902
   24      C      -2.4784069610    -0.3406118739    -0.0285460357
   25      N      -1.8250179126     0.4440789355     1.0224500765
   26      C      -2.0092290174    -1.8051309123     0.0970497274
   27      O      -0.6854040322    -2.0220029062    -0.2794483281
   28      C      -2.0616259609     0.2235873247    -1.4039769542
   29      O      -0.7168689484     0.5857232901    -1.5252159194
   30      H      -4.4348068852     1.7473452763    -0.4894856771
   31      H      -4.3430398676     1.4721519973     1.2691092783
   32      H      -5.7678469041     0.9308061972     0.3555772168
   33      H      -4.4416939921    -0.7893196688    -0.8388170741
   34      H      -4.3116019725    -1.0103419473     0.9073188892
   35      H      -2.1921839077     0.1924108063     1.9415300430
   36      H      -1.9635658746     1.4471339606     0.8976152357
   37      H      -2.6399940530    -2.4275047839    -0.5625053598
   38      H      -2.1993650140    -2.1447020679     1.1397246773
   39      H      -0.0935810049    -1.6129760353     0.3944497263
   40      H      -2.6366639277     1.1420743807    -1.6148838011
   41      H      -2.3438510031    -0.5190955430    -2.1767570659
   42      H      -0.1046239750    -0.1629297654    -1.3267180465
 ----------------------------------------------------------------
 Molecular Point Group                 C1    NOp =  1
 Largest Abelian Subgroup              C1    NOp =  1
 Nuclear Repulsion Energy =        1355.86374001 hartrees
 There are       66 alpha and       66 beta electrons
 Requested basis set is def2-SV(P)
 There are 148 shells and 276 basis functions

 Total QAlloc Memory Limit   7500 MB
 Mega-Array Size       188 MB
 MEM_STATIC part       192 MB
 A cutoff of  1.0D-14 yielded   9579 shell pairs
 There are     32907 function pairs (     36583 Cartesian)
 Smallest overlap matrix eigenvalue = 1.22E-03

 Scale SEOQF with 1.000000e-02/1.000000e-01/1.000000e-01

 Standard Electronic Orientation quadrupole field applied
 Nucleus-field energy     =     0.0000000038 hartrees

 -----------------------------------------------------------------------
  General SCF calculation program by
  Eric Jon Sundstrom, Paul Horn, Yuezhi Mao, Dmitri Zuev, Alec White,
  David Stuck, Shaama M.S., Shane Yost, Joonho Lee, David Small,
  Daniel Levine, Susi Lehtola, Hugh Burton, Evgeny Epifanovsky,
  Bang C. Huynh
 -----------------------------------------------------------------------
================================================================
                 ALMO-EDA with the EDA2 driver                  
================================================================
 The second-generation ALMO-EDA (for DFT):                      
 P. R. Horn, Y. Mao and M. Head-Gordon, PCCP, 18, 23067 (2016)  
 Decomposition of the frozen energy:                            
 P. R. Horn, Y. Mao and M. Head-Gordon, JCP, 144, 114107 (2016) 
Using eda2 option set 2
Option set summary: Frozen orbital wavefunction, initial wavefunction decomposition, and traditional AO-based POL.
--------------------------------
Printing EDA Options
--------------------------------
eda_child_super_basis      0
fragmo_guess_mode          0
child_mp                   0
child_mp_orders            0
cls_elec                   1
cls_disp                   0
scfmi_mode                 1
scfmi_occs                 0
scfmi_virts                0
frz_relax                  0
frz_relax_method           0
dc_pen_start               0
dc_pen_conv                0
dc_pen_increment           0
dc_pen_steps               0
dc_pen_thresh_factor       0
dc_pen_pre_newton_thresh   0
frz_ortho_decomp           1
frz_ortho_decomp_conv      6
plot_mo_ortho_frz          0
frgm_method                2
scfmi_freeze_ss            0
separate_rehyb             0
plot_diff_den              0
eda_nocv                   0
eda_vct_relax              1
disp_free_x                -110
disp_free_c                0
eda_bsse                   1
eda_pct_a                  0
eda_covp                   0
--------------------------------
Attempting to make child job directory: /scratch/user/peterchao1/peterchao1/10001446_1712072071000000995079697/qchem1155//Frg1/
Attempting to make child job directory: /scratch/user/peterchao1/peterchao1/10001446_1712072071000000995079697/qchem1155//Frg2/
Creating input file /scratch/user/peterchao1/peterchao1/10001446_1712072071000000995079697/qchem1155/Frg1.input
using default PutDataFrgm: nothing
calling putenv with: QCSCRATCH=/scratch/user/peterchao1/peterchao1/10001446_1712072071000000995079697/qchem1155/ 
Spawning Job For Fragment 0
Done Job For Fragment 0
calling putenv with: QCSCRATCH=/scratch/user/peterchao1/peterchao1/10001446_1712072071000000995079697 
calling putenv with: QCTHREADS=8 
Creating input file /scratch/user/peterchao1/peterchao1/10001446_1712072071000000995079697/qchem1155/Frg2.input
using default PutDataFrgm: nothing
calling putenv with: QCSCRATCH=/scratch/user/peterchao1/peterchao1/10001446_1712072071000000995079697/qchem1155/ 
Spawning Job For Fragment 1
Done Job For Fragment 1
calling putenv with: QCSCRATCH=/scratch/user/peterchao1/peterchao1/10001446_1712072071000000995079697 
calling putenv with: QCTHREADS=8 
Doing General SCFMI
 Exchange:     0.2220 Hartree-Fock + 1.0000 wB97X-D + LR-HF
 Correlation:  1.0000 wB97X-D
 Using SG-2 standard quadrature grid
 Dispersion:   Grimme D
performing fock build before subrot guess so that all methods have access
Printing subrot_rss_gen Method Specification:
Occupied Subspace Method is 0
Virtual Subspace Method is 0
Energy of the unrelaxed supersystem initial determinant -806.165940772033
write pseudocanon occs and virts to disk
write pseudocanon orbital energies to disk
Tolerance of ortho_decomp_scf: 1.00e-06
GDM subspace size: 20
Beginning the Orthogonal Decomposition of the Initial Supersystem Wavefunction
    1    -805.9586453116      7.54e-02     ortho_decomp Preconditoned Steepest Descent
    2    -805.9793590757      1.21e-03     ortho_decomp BFGS Step
    3    -805.9793866088      8.17e-05     ortho_decomp BFGS Step
    4    -805.9793866813      3.08e-06     ortho_decomp BFGS Step
    5    -805.9793866814      8.14e-08     ortho_decomp 00000 Convergence criterion met
 Exchange:     0.2220 Hartree-Fock + 1.0000 wB97X-D + LR-HF
 Correlation:  1.0000 wB97X-D
 Using SG-2 standard quadrature grid
 Dispersion:   Grimme D
 Long-range K will be added via erf
 Coulomb attenuation parameter = 0.2 bohr**(-1)
 Exchange:     0.2220 Hartree-Fock + 1.0000 wB97X-D + LR-HF
 Correlation:  1.0000 wB97X-D
 Using SG-2 standard quadrature grid
 Dispersion:   Grimme D
 Long-range K will be added via erf
 Coulomb attenuation parameter = 0.2 bohr**(-1)
 Exchange:     0.2220 Hartree-Fock + 1.0000 wB97X-D + LR-HF
 Correlation:  1.0000 wB97X-D
 Using SG-2 standard quadrature grid
 Dispersion:   Grimme D
 Long-range K will be added via erf
 Coulomb attenuation parameter = 0.2 bohr**(-1)
Doing General SCFMI
 Exchange:     0.2220 Hartree-Fock + 1.0000 wB97X-D + LR-HF
 Correlation:  1.0000 wB97X-D
 Using SG-2 standard quadrature grid
 Dispersion:   Grimme D
performing fock build at end of subrot_r(subrot) constructor so that all methods have access
<S^2> of initial wavefunction before polarization iterations 0.0000000000
Beginning iterations for the determination of the polarized wavefunction
Energy prior to optimization (guess energy) = -806.165940772033
Begin Timing: Total SCF Calculation
begin iterations for algorithm: DIIS         
the SCF tolerance is set to 1.00e-08
    1    -806.1659407720      5.35e-04     00000 
    2    -806.1759855728      1.42e-04     00000 
    3    -806.1768298930      7.44e-05     00000 
    4    -806.1769546886      3.42e-05     00000 
    5    -806.1769825677      1.06e-05     00000 
    6    -806.1769860080      2.87e-06     00000 
    7    -806.1769862010      9.08e-07     00000 
    8    -806.1769862230      2.27e-07     00000 
    9    -806.1769862246      1.03e-07     00000 
   10    -806.1769862248      3.54e-08     00000 
   11    -806.1769862249      7.89e-09     00000 Convergence criterion met
write pseudocanon occs and virts to disk
write pseudocanon orbital energies to disk
Timing for Total SCF: 45.00s (wall), 315.92s (cpu)
<S^2> of polarized wavefunction after polarization iterations 0.0000000000
relaxing scfmi constraint to allow all rotations in the entire AO span
Doing General SCFMI
 Exchange:     0.2220 Hartree-Fock + 1.0000 wB97X-D + LR-HF
 Correlation:  1.0000 wB97X-D
 Using SG-2 standard quadrature grid
 Dispersion:   Grimme D
performing fock build at end of subrot_r(subrot) constructor so that all methods have access
<S^2> of polarized wavefunction before ct-allowed iterations 0.0000000000
Beginning iterations for the determination of the CT-Allowed wavefunction
Energy prior to optimization (guess energy) = -806.176986224889
Begin Timing: Total SCF Calculation
begin iterations for algorithm: DIIS         
the SCF tolerance is set to 1.00e-08
    1    -806.1769862249      7.32e-04     00000 
    2    -806.2128590292      1.52e-04     00000 
    3    -806.2147323423      8.21e-05     00000 
    4    -806.2149481929      3.17e-05     00000 
    5    -806.2149886056      7.29e-06     00000 
    6    -806.2149908908      2.03e-06     00000 
    7    -806.2149910757      7.02e-07     00000 
    8    -806.2149910965      1.76e-07     00000 
    9    -806.2149910978      4.95e-08     00000 
   10    -806.2149910979      1.11e-08     00000 
   11    -806.2149910979      4.90e-09     00000 Convergence criterion met
write pseudocanon occs and virts to disk
write pseudocanon orbital energies to disk
Timing for Total SCF: 46.00s (wall), 321.91s (cpu)
<S^2> of ct_allowed wavefunction after ct-allowed iterations 0.0000000000
Attempting to make child job directory: /scratch/user/peterchao1/peterchao1/10001446_1712072071000000995079697/qchem1155//FrgBSSE1/
Attempting to make child job directory: /scratch/user/peterchao1/peterchao1/10001446_1712072071000000995079697/qchem1155//FrgBSSE2/
Creating input file /scratch/user/peterchao1/peterchao1/10001446_1712072071000000995079697/qchem1155/FrgBSSE1.input
calling putenv with: QCSCRATCH=/scratch/user/peterchao1/peterchao1/10001446_1712072071000000995079697/qchem1155/ 
Spawning Job For Fragment 0
Done Job For Fragment 0
calling putenv with: QCSCRATCH=/scratch/user/peterchao1/peterchao1/10001446_1712072071000000995079697 
calling putenv with: QCTHREADS=8 
Creating input file /scratch/user/peterchao1/peterchao1/10001446_1712072071000000995079697/qchem1155/FrgBSSE2.input
calling putenv with: QCSCRATCH=/scratch/user/peterchao1/peterchao1/10001446_1712072071000000995079697/qchem1155/ 
Spawning Job For Fragment 1
Done Job For Fragment 1
calling putenv with: QCSCRATCH=/scratch/user/peterchao1/peterchao1/10001446_1712072071000000995079697 
calling putenv with: QCTHREADS=8 
====================================================================
   Evaluating the BSSE with fragment SCF in the supersystem basis
   Fragment contributions (kJ/mol) 
   Frgm 1: 21.8445
   Frgm 2: 21.8445
   BSSE (kJ/mol) = 43.6890
====================================================================

================================
        Results of EDA2         
================================
Basic EDA Quantities
--------------------
Fragment Energies (Ha):
1 -403.0786399101
2 -403.0786392110
--------------------
  E_prp (kJ/mol) = 0.0000
  E_frz (kJ/mol) = -22.7414
  E_pol (kJ/mol) = -29.0002
  E_vct (kJ/mol) = -56.0940 (CP-corrected)
  E_int (kJ/mol) = -107.8356 (CP-corrected)
--------------------


Decomposition of frozen interaction energy
--------------------
  --------------------
  Orthogonal Frozen Decomposition:
  --------------------
     E_elec   (ELEC)   (kJ/mol) = -355.1005
     E_pauli  (PAULI)  (kJ/mol) = 359.5796
     E_disp   (DISP)   (kJ/mol) = -27.2205
  --------------------
  Classical Frozen Decomposition:
  --------------------
     E_cls_elec  (CLS ELEC)  (kJ/mol) = -191.9312
     E_mod_pauli (MOD PAULI) (kJ/mol) = 196.4103 (FRZ - CLS ELEC - DISP)
     E_disp      (DISP)      (kJ/mol) = -27.2205
  --------------------
--------------------

Simplified EDA Summary (kJ/mol)
--------------------
 PREPARATION      0.0000
 FROZEN           -22.7414 (ELEC + PAULI + DISP)
[ELEC + PAULI = 4.4791, DISP = -27.2205]
 POLARIZATION    -29.0002
 CHARGE TRANSFER -56.0940     (counterpoise-corrected)
 TOTAL           -107.8356     (PRP + FRZ + POL + CT)
--------------------
 
 --------------------------------------------------------------
 
                    Orbital Energies (a.u.)
 --------------------------------------------------------------
 
 Alpha MOs
 -- Occupied --
-19.2382 -19.2382 -19.2215 -19.2215 -14.4295 -14.4295 -10.3320 -10.3320
-10.3267 -10.3267 -10.3257 -10.3257 -10.2954 -10.2954 -10.2902 -10.2902
 -1.1146  -1.1009  -1.0916  -1.0798  -0.9912  -0.9872  -0.8729  -0.8694
 -0.8177  -0.8116  -0.7623  -0.7586  -0.7111  -0.7099  -0.6613  -0.6599
 -0.6208  -0.6109  -0.5928  -0.5890  -0.5737  -0.5621  -0.5519  -0.5514
 -0.5387  -0.5353  -0.5229  -0.5213  -0.4954  -0.4927  -0.4845  -0.4841
 -0.4794  -0.4760  -0.4556  -0.4503  -0.4470  -0.4443  -0.4370  -0.4361
 -0.4135  -0.4112  -0.3913  -0.3841  -0.3507  -0.3466  -0.3427  -0.3392
 -0.3232  -0.3196
 -- Virtual --
  0.1210   0.1222   0.1592   0.1605   0.1624   0.1640   0.1708   0.1821
  0.1847   0.1906   0.2045   0.2117   0.2131   0.2151   0.2202   0.2238
  0.2292   0.2365   0.2423   0.2532   0.2542   0.2579   0.2644   0.2763
  0.2816   0.2843   0.2985   0.3096   0.3153   0.3180   0.3285   0.3302
  0.3379   0.3468   0.3545   0.3556   0.3782   0.3909   0.3930   0.4180
  0.5074   0.5208   0.5212   0.5392   0.5540   0.5585   0.5620   0.5704
  0.5704   0.5890   0.6098   0.6178   0.6273   0.6367   0.6442   0.6544
  0.6719   0.6816   0.6881   0.6890   0.6970   0.7203   0.7260   0.7320
  0.7393   0.7438   0.7466   0.7523   0.7568   0.7710   0.7724   0.7735
  0.7786   0.7846   0.7894   0.7896   0.7939   0.7948   0.8023   0.8072
  0.8092   0.8117   0.8272   0.8293   0.8342   0.8349   0.8437   0.8473
  0.8547   0.8602   0.8679   0.8781   0.8874   0.8905   0.9156   0.9208
  0.9279   0.9665   1.0249   1.0387   1.0448   1.0458   1.0637   1.0799
  1.1038   1.1155   1.1461   1.1703   1.1822   1.2057   1.2373   1.2489
  1.2617   1.2733   1.2801   1.2873   1.3175   1.3293   1.3678   1.3957
  1.4055   1.4248   1.4566   1.4711   1.4840   1.5008   1.5630   1.5855
  1.5939   1.6187   1.6366   1.6602   1.7261   1.7570   1.7735   1.7935
  1.8072   1.8120   1.8649   1.8839   1.8954   1.9089   1.9190   1.9239
  1.9585   1.9625   1.9758   1.9774   2.0050   2.0186   2.0199   2.0245
  2.0758   2.0816   2.1097   2.1281   2.1560   2.1679   2.1896   2.1931
  2.2193   2.2247   2.2401   2.2437   2.2996   2.3009   2.3313   2.3320
  2.3545   2.3549   2.4126   2.4174   2.4192   2.4207   2.4236   2.4245
  2.5381   2.5496   2.6027   2.6175   2.6936   2.6980   2.7220   2.7270
  2.7743   2.7747   2.7791   2.7829   2.8055   2.8084   2.8497   2.8501
  2.9225   2.9231   2.9521   2.9575   3.0555   3.0654   3.0893   3.0950
  3.1395   3.1436   3.1487   3.1590   3.1862   3.1930   3.5023   3.5067
  3.5404   3.5502
 --------------------------------------------------------------
 
          Ground-State Mulliken Net Atomic Charges

     Atom                 Charge (a.u.)
  ----------------------------------------
      1 C                    -0.320856
      2 C                    -0.190627
      3 C                    -0.197638
      4 N                    -0.514644
      5 C                     0.084402
      6 O                    -0.537697
      7 C                     0.093332
      8 O                    -0.519541
      9 H                     0.127542
     10 H                     0.104619
     11 H                     0.125145
     12 H                     0.100667
     13 H                     0.105108
     14 H                     0.246786
     15 H                     0.234678
     16 H                     0.094746
     17 H                     0.096252
     18 H                     0.358595
     19 H                     0.081919
     20 H                     0.091481
     21 H                     0.335739
     22 C                    -0.320856
     23 C                    -0.190627
     24 C                    -0.197636
     25 N                    -0.514642
     26 C                     0.093330
     27 O                    -0.519541
     28 C                     0.084403
     29 O                    -0.537700
     30 H                     0.125144
     31 H                     0.104619
     32 H                     0.127541
     33 H                     0.105107
     34 H                     0.100666
     35 H                     0.234676
     36 H                     0.246783
     37 H                     0.091480
     38 H                     0.081917
     39 H                     0.335739
     40 H                     0.096251
     41 H                     0.094746
     42 H                     0.358594
  ----------------------------------------
  Sum of atomic charges =     0.000000

 -----------------------------------------------------------------
                    Cartesian Multipole Moments
 -----------------------------------------------------------------
    Charge (ESU x 10^10)
                 0.0000
    Dipole Moment (Debye)
         X       0.0001      Y      -0.0000      Z      -0.0001
       Tot       0.0002
    Quadrupole Moments (Debye-Ang)
        XX     -82.7505     XY      -1.8087     YY    -108.7045
        XZ      -4.2715     YZ       0.7444     ZZ    -100.5522
    Octopole Moments (Debye-Ang^2)
       XXX       0.0015    XXY       0.0002    XYY       0.0002
       YYY       0.0005    XXZ       0.0003    XYZ      -0.0002
       YYZ      -0.0001    XZZ       0.0002    YZZ      -0.0003
       ZZZ      -0.0000
    Hexadecapole Moments (Debye-Ang^3)
      XXXX   -4717.8529   XXXY      14.2603   XXYY    -945.1553
      XYYY     -10.6154   YYYY    -956.2977   XXXZ       0.4121
      XXYZ       3.3362   XYYZ      -1.4346   YYYZ     -12.7161
      XXZZ    -869.2275   XYZZ       3.9667   YYZZ    -249.2075
      XZZZ     -28.6564   YZZZ      17.9776   ZZZZ    -599.1544
 -----------------------------------------------------------------
Archival summary:
1\1\c281.cluster\SP\ProcedureUnspecified\BasisUnspecified\421026\petercha\TueApr210:39:222024TueApr210:39:222024\0\\#,ProcedureUnspecified,BasisUnspecified,\\0,1\O\H,1,0.987282\C,1,1.39793,2,112.499\H,3,1.10398,1,105.603,2,178.166,0\H,3,1.10834,1,110.982,2,-66.2767,0\C,3,1.54397,1,115.569,2,56.9951,0\N,6,1.46535,3,108.838,1,40.9511,0\H,7,1.02024,6,112.22,3,50.8032,0\H,7,1.0212,6,110.684,3,171.119,0\C,6,1.54296,3,109.711,1,-77.4079,0\H,10,1.10464,6,108.212,3,-71.9359,0\H,10,1.11294,6,108.295,3,172.581,0\O,10,1.3933,6,114.498,3,47.3703,0\H,13,0.985746,10,108.731,6,70.4207,0\C,6,1.54811,3,109.249,1,164.963,0\H,15,1.106,6,108.604,3,48.5878,0\H,15,1.10721,6,108.054,3,162.877,0\C,15,1.52697,6,115.883,3,-75.0854,0\H,18,1.10292,15,110.45,6,178.903,0\H,18,1.10348,15,111.544,6,-61.8684,0\H,18,1.10367,15,112.321,6,59.1745,0\O,14,1.72941,13,167.121,10,-49.5576,0\H,22,0.98728,14,91.6269,13,-0.970443,0\C,22,1.39793,14,123.226,13,-119.41,0\H,24,1.10398,22,105.603,14,-70.2221,0\H,24,1.10834,22,110.982,14,174.22,0\C,24,1.54397,22,115.569,14,50.9483,0\N,27,1.46535,24,108.838,22,-40.9535,0\H,28,1.02024,27,112.22,24,-50.801,0\H,28,1.0212,27,110.684,24,-171.117,0\C,27,1.54296,24,109.711,22,77.4056,0\H,31,1.10464,27,108.213,24,71.936,0\H,31,1.11294,27,108.295,24,-172.581,0\O,31,1.3933,27,114.498,24,-47.3701,0\H,34,0.985747,31,108.731,27,-70.422,0\C,27,1.54811,24,109.25,22,-164.965,0\H,36,1.106,27,108.604,24,-48.5891,0\H,36,1.10721,27,108.054,24,-162.878,0\C,36,1.52697,27,115.883,24,75.0842,0\H,39,1.10293,36,110.45,27,-178.904,0\H,39,1.10348,36,111.544,27,61.8669,0\H,39,1.10367,36,112.321,27,-59.176,0\\\@

 Total job time:  289.39s(wall), 1306.42s(cpu) 
 Tue Apr  2 10:39:22 2024

        *************************************************************
        *                                                           *
        *  Thank you very much for using Q-Chem.  Have a nice day.  *
        *                                                           *
        *************************************************************


remove work dirs /scratch/user/peterchao1/peterchao1/10001446_1712072071000000995079697/qchem1155.0 -- /scratch/user/peterchao1/peterchao1/10001446_1712072071000000995079697/qchem1155.-1
rm -rf /scratch/user/peterchao1/peterchao1/10001446_1712072071000000995079697/qchem1155
real 290.32
user 2017.58
sys 87.89
