 Entering Gaussian System, Link 0=g16
 Input=gaussian_test.inp
 Output=gaussian_test.log
 Initial command:
 /sw/restricted/lms/sw/Gaussian/g16_B01/g16/l1.exe "/scratch/user/peterchao1/peterchao1/6326744_1664222962000000785086636/Gau-34253.inp" -scrdir="/scratch/user/peterchao1/peterchao1/6326744_1664222962000000785086636/"
 Entering Link 1 = /sw/restricted/lms/sw/Gaussian/g16_B01/g16/l1.exe PID=     34255.
  
 Copyright (c) 1988-2017, Gaussian, Inc.  All Rights Reserved.
  
 This is part of the Gaussian(R) 16 program.  It is based on
 the Gaussian(R) 09 system (copyright 2009, Gaussian, Inc.),
 the Gaussian(R) 03 system (copyright 2003, Gaussian, Inc.),
 the Gaussian(R) 98 system (copyright 1998, Gaussian, Inc.),
 the Gaussian(R) 94 system (copyright 1995, Gaussian, Inc.),
 the Gaussian 92(TM) system (copyright 1992, Gaussian, Inc.),
 the Gaussian 90(TM) system (copyright 1990, Gaussian, Inc.),
 the Gaussian 88(TM) system (copyright 1988, Gaussian, Inc.),
 the Gaussian 86(TM) system (copyright 1986, Carnegie Mellon
 University), and the Gaussian 82(TM) system (copyright 1983,
 Carnegie Mellon University). Gaussian is a federally registered
 trademark of Gaussian, Inc.
  
 This software contains proprietary and confidential information,
 including trade secrets, belonging to Gaussian, Inc.
  
 This software is provided under written license and may be
 used, copied, transmitted, or stored only in accord with that
 written license.
  
 The following legend is applicable only to US Government
 contracts under FAR:
  
                    RESTRICTED RIGHTS LEGEND
  
 Use, reproduction and disclosure by the US Government is
 subject to restrictions as set forth in subparagraphs (a)
 and (c) of the Commercial Computer Software - Restricted
 Rights clause in FAR 52.227-19.
  
 Gaussian, Inc.
 340 Quinnipiac St., Bldg. 40, Wallingford CT 06492
  
  
 ---------------------------------------------------------------
 Warning -- This program may not be used in any manner that
 competes with the business of Gaussian, Inc. or will provide
 assistance to any competitor of Gaussian, Inc.  The licensee
 of this program is prohibited from giving any competitor of
 Gaussian, Inc. access to this program.  By using this program,
 the user acknowledges that Gaussian, Inc. is engaged in the
 business of creating and licensing software in the field of
 computational chemistry and represents and warrants to the
 licensee that it is not a competitor of Gaussian, Inc. and that
 it will not use this program in any manner prohibited above.
 ---------------------------------------------------------------
  

 Cite this work as:
 Gaussian 16, Revision B.01,
 M. J. Frisch, G. W. Trucks, H. B. Schlegel, G. E. Scuseria, 
 M. A. Robb, J. R. Cheeseman, G. Scalmani, V. Barone, 
 G. A. Petersson, H. Nakatsuji, X. Li, M. Caricato, A. V. Marenich, 
 J. Bloino, B. G. Janesko, R. Gomperts, B. Mennucci, H. P. Hratchian, 
 J. V. Ortiz, A. F. Izmaylov, J. L. Sonnenberg, D. Williams-Young, 
 F. Ding, F. Lipparini, F. Egidi, J. Goings, B. Peng, A. Petrone, 
 T. Henderson, D. Ranasinghe, V. G. Zakrzewski, J. Gao, N. Rega, 
 G. Zheng, W. Liang, M. Hada, M. Ehara, K. Toyota, R. Fukuda, 
 J. Hasegawa, M. Ishida, T. Nakajima, Y. Honda, O. Kitao, H. Nakai, 
 T. Vreven, K. Throssell, J. A. Montgomery, Jr., J. E. Peralta, 
 F. Ogliaro, M. J. Bearpark, J. J. Heyd, E. N. Brothers, K. N. Kudin, 
 V. N. Staroverov, T. A. Keith, R. Kobayashi, J. Normand, 
 K. Raghavachari, A. P. Rendell, J. C. Burant, S. S. Iyengar, 
 J. Tomasi, M. Cossi, J. M. Millam, M. Klene, C. Adamo, R. Cammi, 
 J. W. Ochterski, R. L. Martin, K. Morokuma, O. Farkas, 
 J. B. Foresman, and D. J. Fox, Gaussian, Inc., Wallingford CT, 2016.
 
 ******************************************
 Gaussian 16:  ES64L-G16RevB.01 20-Dec-2017
                26-Sep-2022 
 ******************************************
 %nprocshared=8
 Will use up to    8 processors via shared memory.
 %mem=20GB
 ----------------------------------------------------------------------
 # opt=(calcall,tight,modredundant) wb97xd scf=(qc,verytight) def2svpp 
 int=grid=ultrafine
 ----------------------------------------------------------------------
 1/7=10,10=4,18=120,19=15,26=4,38=1/1,3;
 2/9=110,12=2,17=6,18=5,40=1/2;
 3/5=43,7=202,11=2,25=1,30=1,71=2,74=-58,75=-5,140=1/1,2,3;
 4//1;
 5/5=2,8=3,17=3,38=5/8;
 8/6=4,10=90,11=11/1;
 11/6=1,8=1,9=11,15=111,16=1/1,2,10;
 10/6=1/2;
 6/7=2,8=2,9=2,10=2,18=1,28=1/1;
 7/10=1,25=1/1,2,3,16;
 1/7=10,10=4,18=20,19=15,26=4/3(3);
 2/9=110/2;
 7/8=1,9=1,25=1,44=-1/16;
 99//99;
 2/9=110/2;
 3/5=43,7=202,11=2,25=1,30=1,71=2,74=-58,75=-5,140=1/1,2,3;
 4/5=5,16=3,69=1/1;
 5/5=2,8=3,17=3,38=5/8;
 8/6=4,10=90,11=11/1;
 11/6=1,8=1,9=11,15=111,16=1/1,2,10;
 10/6=1/2;
 7/10=1,25=1/1,2,3,16;
 1/7=10,10=4,18=20,19=15,26=4/3(-8);
 2/9=110/2;
 6/7=2,8=2,9=2,10=2,18=1,19=2,28=1/1;
 7/8=1,9=1,25=1,44=-1/16;
 99//99;
 -----
 dimer
 -----
 Symbolic Z-matrix:
 Charge =  0 Multiplicity = 1
 Br                    1.66653  -1.84115   0.12803 
 C                     2.25526  -0.00045  -0.00244 
 Br                    4.06573   0.04915  -0.69439 
 Br                    1.08273   0.97744  -1.19187 
 Br                    2.22158   0.81495   1.75761 
 Br                   -4.35446  -0.37347   0.59004 
 C                    -2.54474  -0.00189   0.00188 
 Br                   -1.95582  -1.40672  -1.19445 
 Br                   -2.51308   1.69808  -0.93236 
 Br                   -1.37104   0.08176   1.53857 
 
 Add virtual bond connecting atoms Br9        and Br4        Dist= 6.95D+00.
 Add virtual bond connecting atoms Br10       and Br4        Dist= 7.14D+00.
 Add virtual bond connecting atoms Br10       and Br5        Dist= 6.94D+00.
 The following ModRedundant input section has been read:
 B       2       7 F                                                           
 

 GradGradGradGradGradGradGradGradGradGradGradGradGradGradGradGradGradGrad
 Berny optimization.
 Initialization pass.
                           ----------------------------
                           !    Initial Parameters    !
                           ! (Angstroms and Degrees)  !
 --------------------------                            --------------------------
 ! Name  Definition              Value          Derivative Info.                !
 --------------------------------------------------------------------------------
 ! R1    R(1,2)                  1.937          calculate D2E/DX2 analytically  !
 ! R2    R(2,3)                  1.9388         calculate D2E/DX2 analytically  !
 ! R3    R(2,4)                  1.9354         calculate D2E/DX2 analytically  !
 ! R4    R(2,5)                  1.94           calculate D2E/DX2 analytically  !
 ! R5    R(2,7)                  4.8            frozen, calculate D2E/DX2 analyt!
 ! R6    R(4,9)                  3.6765         calculate D2E/DX2 analytically  !
 ! R7    R(4,10)                 3.7787         calculate D2E/DX2 analytically  !
 ! R8    R(5,10)                 3.6732         calculate D2E/DX2 analytically  !
 ! R9    R(6,7)                  1.9388         calculate D2E/DX2 analytically  !
 ! R10   R(7,8)                  1.9369         calculate D2E/DX2 analytically  !
 ! R11   R(7,9)                  1.94           calculate D2E/DX2 analytically  !
 ! R12   R(7,10)                 1.9355         calculate D2E/DX2 analytically  !
 ! A1    A(1,2,3)              109.4006         calculate D2E/DX2 analytically  !
 ! A2    A(1,2,4)              109.719          calculate D2E/DX2 analytically  !
 ! A3    A(1,2,5)              109.4527         calculate D2E/DX2 analytically  !
 ! A4    A(3,2,4)              109.479          calculate D2E/DX2 analytically  !
 ! A5    A(3,2,5)              109.2228         calculate D2E/DX2 analytically  !
 ! A6    A(4,2,5)              109.552          calculate D2E/DX2 analytically  !
 ! A7    A(2,4,9)              130.4055         calculate D2E/DX2 analytically  !
 ! A8    A(2,4,10)              80.1872         calculate D2E/DX2 analytically  !
 ! A9    A(9,4,10)              50.2331         calculate D2E/DX2 analytically  !
 ! A10   A(2,5,10)              83.0495         calculate D2E/DX2 analytically  !
 ! A11   A(6,7,8)              109.4002         calculate D2E/DX2 analytically  !
 ! A12   A(6,7,9)              109.2234         calculate D2E/DX2 analytically  !
 ! A13   A(6,7,10)             109.4788         calculate D2E/DX2 analytically  !
 ! A14   A(8,7,9)              109.4605         calculate D2E/DX2 analytically  !
 ! A15   A(8,7,10)             109.7163         calculate D2E/DX2 analytically  !
 ! A16   A(9,7,10)             109.547          calculate D2E/DX2 analytically  !
 ! A17   A(4,9,7)               83.0034         calculate D2E/DX2 analytically  !
 ! A18   A(4,10,5)              50.2567         calculate D2E/DX2 analytically  !
 ! A19   A(4,10,7)              80.2309         calculate D2E/DX2 analytically  !
 ! A20   A(5,10,7)             130.4727         calculate D2E/DX2 analytically  !
 ! D1    D(1,2,4,9)             62.1865         calculate D2E/DX2 analytically  !
 ! D2    D(1,2,4,10)            63.5063         calculate D2E/DX2 analytically  !
 ! D3    D(3,2,4,9)           -177.7431         calculate D2E/DX2 analytically  !
 ! D4    D(3,2,4,10)          -176.4233         calculate D2E/DX2 analytically  !
 ! D5    D(5,2,4,9)            -57.9931         calculate D2E/DX2 analytically  !
 ! D6    D(5,2,4,10)           -56.6734         calculate D2E/DX2 analytically  !
 ! D7    D(1,2,5,10)           -61.776          calculate D2E/DX2 analytically  !
 ! D8    D(3,2,5,10)           178.4729         calculate D2E/DX2 analytically  !
 ! D9    D(4,2,5,10)            58.566          calculate D2E/DX2 analytically  !
 ! D10   D(2,4,9,7)            -30.7051         calculate D2E/DX2 analytically  !
 ! D11   D(10,4,9,7)           -32.397          calculate D2E/DX2 analytically  !
 ! D12   D(2,4,10,5)            32.7406         calculate D2E/DX2 analytically  !
 ! D13   D(2,4,10,7)          -145.9483         calculate D2E/DX2 analytically  !
 ! D14   D(9,4,10,5)          -148.5668         calculate D2E/DX2 analytically  !
 ! D15   D(9,4,10,7)            32.7443         calculate D2E/DX2 analytically  !
 ! D16   D(2,5,10,4)           -32.3839         calculate D2E/DX2 analytically  !
 ! D17   D(2,5,10,7)           -30.6853         calculate D2E/DX2 analytically  !
 ! D18   D(6,7,9,4)            178.4669         calculate D2E/DX2 analytically  !
 ! D19   D(8,7,9,4)            -61.7774         calculate D2E/DX2 analytically  !
 ! D20   D(10,7,9,4)            58.563          calculate D2E/DX2 analytically  !
 ! D21   D(6,7,10,4)          -176.4758         calculate D2E/DX2 analytically  !
 ! D22   D(6,7,10,5)          -177.8009         calculate D2E/DX2 analytically  !
 ! D23   D(8,7,10,4)            63.4561         calculate D2E/DX2 analytically  !
 ! D24   D(8,7,10,5)            62.131          calculate D2E/DX2 analytically  !
 ! D25   D(9,7,10,4)           -56.7283         calculate D2E/DX2 analytically  !
 ! D26   D(9,7,10,5)           -58.0535         calculate D2E/DX2 analytically  !
 --------------------------------------------------------------------------------
 Trust Radius=3.00D-01 FncErr=1.00D-07 GrdErr=1.00D-06 EigMax=2.50D+02 EigMin=1.00D-04
 Number of steps in this run=     68 maximum allowed number of steps=    100.
 GradGradGradGradGradGradGradGradGradGradGradGradGradGradGradGradGradGrad

                          Input orientation:                          
 ---------------------------------------------------------------------
 Center     Atomic      Atomic             Coordinates (Angstroms)
 Number     Number       Type             X           Y           Z
 ---------------------------------------------------------------------
      1         35           0        1.666532   -1.841146    0.128031
      2          6           0        2.255263   -0.000448   -0.002437
      3         35           0        4.065728    0.049145   -0.694392
      4         35           0        1.082735    0.977440   -1.191866
      5         35           0        2.221581    0.814952    1.757607
      6         35           0       -4.354464   -0.373474    0.590041
      7          6           0       -2.544735   -0.001887    0.001875
      8         35           0       -1.955823   -1.406715   -1.194450
      9         35           0       -2.513084    1.698076   -0.932358
     10         35           0       -1.371043    0.081760    1.538568
 ---------------------------------------------------------------------
                    Distance matrix (angstroms):
                    1          2          3          4          5
     1  Br   0.000000
     2  C    1.936955   0.000000
     3  Br   3.163182   1.938826   0.000000
     4  Br   3.166603   1.935414   3.163457   0.000000
     5  Br   3.165194   1.940043   3.162220   3.165875   0.000000
     6  Br   6.214492   6.646704   8.528072   5.879055   6.783799
     7  C    4.597125   4.800000   6.647226   3.942415   5.144666
     8  Br   3.880611   4.596926   6.215196   3.862258   5.576840
     9  Br   5.578504   5.146539   6.786484   3.676489   5.516600
    10  Br   3.861870   3.941009   5.877555   3.778695   3.673213
                    6          7          8          9         10
     6  Br   0.000000
     7  C    1.938849   0.000000
     8  Br   3.163143   1.936893   0.000000
     9  Br   3.162230   1.940017   3.165274   0.000000
    10  Br   3.163502   1.935452   3.166530   3.165787   0.000000
 Stoichiometry    C2Br8
 Framework group  C1[X(C2Br8)]
 Deg. of freedom    24
 Full point group                 C1      NOp   1
 Largest Abelian subgroup         C1      NOp   1
 Largest concise Abelian subgroup C1      NOp   1
                         Standard orientation:                         
 ---------------------------------------------------------------------
 Center     Atomic      Atomic             Coordinates (Angstroms)
 Number     Number       Type             X           Y           Z
 ---------------------------------------------------------------------
      1         35           0       -1.811311    1.840582    0.134520
      2          6           0       -2.399993    0.000361   -0.002726
      3         35           0       -4.210410   -0.046737   -0.694979
      4         35           0       -1.227364   -0.973139   -1.195649
      5         35           0       -2.366410   -0.821477    1.754323
      6         35           0        4.209686    0.371360    0.591556
      7          6           0        2.400005    0.001890    0.001912
      8         35           0        1.811142    1.411076   -1.189300
      9         35           0        2.368454   -1.694642   -0.938541
     10         35           0        1.226212   -0.087409    1.538210
 ---------------------------------------------------------------------
 Rotational constants (GHZ):           0.3195538           0.0941726           0.0941718
 Standard basis: def2SVPP (5D, 7F)
 There are   310 symmetry adapted cartesian basis functions of A   symmetry.
 There are   284 symmetry adapted basis functions of A   symmetry.
   284 basis functions,   690 primitive gaussians,   310 cartesian basis functions
   146 alpha electrons      146 beta electrons
       nuclear repulsion energy      5175.6497087280 Hartrees.
 NAtoms=   10 NActive=   10 NUniq=   10 SFac= 1.00D+00 NAtFMM=   60 NAOKFM=F Big=F
 Integral buffers will be    131072 words long.
 Raffenetti 2 integral format.
 Two-electron integral symmetry is turned on.
 Nuclear repulsion after empirical dispersion term =     5175.6417539008 Hartrees.
 One-electron integrals computed using PRISM.
   1 Symmetry operations used in ECPInt.
 ECPInt:  NShTT=    5886 NPrTT=   35326 LenC2=    4813 LenP2D=   16676.
 LDataN:  DoStor=T MaxTD1= 4 Len=   56
 NBasis=   284 RedAO= T EigKep=  5.37D-03  NBF=   284
 NBsUse=   284 1.00D-06 EigRej= -1.00D+00 NBFU=   284
 ExpMin= 1.30D-01 ExpMax= 1.13D+05 ExpMxC= 1.70D+04 IAcc=3 IRadAn=         5 AccDes= 0.00D+00
 Harris functional with IExCor= 4639 and IRadAn=       5 diagonalized for initial guess.
 HarFok:  IExCor= 4639 AccDes= 0.00D+00 IRadAn=         5 IDoV= 1 UseB2=F ITyADJ=14
 ICtDFT=  3500011 ScaDFX=  1.000000  1.000000  1.000000  1.000000
 FoFCou: FMM=F IPFlag=           0 FMFlag=      100000 FMFlg1=           0
         NFxFlg=           0 DoJE=T BraDBF=F KetDBF=T FulRan=T
         wScrn=  0.000000 ICntrl=       500 IOpCl=  0 I1Cent=   200000004 NGrid=           0
         NMat0=    1 NMatS0=      1 NMatT0=    0 NMatD0=    1 NMtDS0=    0 NMtDT0=    0
 Petite list used in FoFCou.
 Keep R1 ints in memory in canonical form, NReq=1652903131.
 Gradient too large for Newton-Raphson -- use scaled steepest descent instead.
     Accept linear search using points  3 and  4.
 Gradient too large for Newton-Raphson -- use scaled steepest descent instead.
     Accept linear search using points  2 and  3.
 Gradient too large for Newton-Raphson -- use scaled steepest descent instead.
     Minimum is close to point  2 DX=  4.99D-02 DF= -1.17D-05 DXR=  7.67D-02 DFR=  5.92D-03 which will be used.
 Gradient too large for Newton-Raphson -- use scaled steepest descent instead.
     Minimum is close to point  2 DX=  5.71D-02 DF= -3.44D-06 DXR=  8.69D-02 DFR=  7.60D-03 which will be used.
 Gradient too large for Newton-Raphson -- use scaled steepest descent instead.
     Accept linear search using points  1 and  2.
     Minimum is close to point  2 DX= -4.63D-02 DF= -2.44D-07 DXR=  7.08D-02 DFR=  2.03D-03 which will be used.
 LinEq1:  Iter=  0 NonCon=     1 RMS=4.92D-05 Max=2.15D-03 NDo=     1
 AX will form     1 AO Fock derivatives at one time.
 LinEq1:  Iter=  1 NonCon=     1 RMS=4.31D-05 Max=1.45D-03 NDo=     1
 LinEq1:  Iter=  2 NonCon=     1 RMS=4.97D-06 Max=1.09D-04 NDo=     1
 LinEq1:  Iter=  3 NonCon=     1 RMS=5.60D-07 Max=2.11D-05 NDo=     1
 LinEq1:  Iter=  4 NonCon=     1 RMS=1.93D-07 Max=7.44D-06 NDo=     1
 LinEq1:  Iter=  5 NonCon=     1 RMS=6.17D-08 Max=2.83D-06 NDo=     1
 LinEq1:  Iter=  6 NonCon=     1 RMS=2.46D-08 Max=7.26D-07 NDo=     1
 LinEq1:  Iter=  7 NonCon=     1 RMS=6.35D-09 Max=1.85D-07 NDo=     1
 LinEq1:  Iter=  8 NonCon=     1 RMS=3.77D-09 Max=1.30D-07 NDo=     1
 LinEq1:  Iter=  9 NonCon=     1 RMS=1.75D-09 Max=4.38D-08 NDo=     1
 LinEq1:  Iter= 10 NonCon=     1 RMS=6.80D-10 Max=2.74D-08 NDo=     1
 LinEq1:  Iter= 11 NonCon=     0 RMS=1.46D-10 Max=5.51D-09 NDo=     1
 Linear equations converged to 2.007D-09 2.007D-08 after    11 iterations.
     Minimum is close to point  2 DX=  2.05D-03 DF= -2.04D-10 DXR=  2.04D-03 DFR=  4.16D-06 which will be used.
 LinEq1:  Iter=  0 NonCon=     1 RMS=1.01D-07 Max=3.93D-06 NDo=     1
 LinEq1:  Iter=  1 NonCon=     1 RMS=9.55D-08 Max=3.30D-06 NDo=     1
 LinEq1:  Iter=  2 NonCon=     1 RMS=1.74D-08 Max=4.50D-07 NDo=     1
 LinEq1:  Iter=  3 NonCon=     1 RMS=5.36D-09 Max=1.50D-07 NDo=     1
 LinEq1:  Iter=  4 NonCon=     1 RMS=1.37D-09 Max=5.40D-08 NDo=     1
 LinEq1:  Iter=  5 NonCon=     1 RMS=5.74D-10 Max=3.21D-08 NDo=     1
 LinEq1:  Iter=  6 NonCon=     1 RMS=1.28D-10 Max=5.07D-09 NDo=     1
 LinEq1:  Iter=  7 NonCon=     1 RMS=4.32D-11 Max=1.51D-09 NDo=     1
 LinEq1:  Iter=  8 NonCon=     0 RMS=1.63D-11 Max=4.89D-10 NDo=     1
 Linear equations converged to 1.485D-10 1.485D-09 after     8 iterations.
 SCF Done:  E(RwB97XD) =  -20667.2706959     a.u. after    8 cycles
            Convg  =    0.2320D-08                    35 Fock formations.
              S**2 =  0.0000                  -V/T =  2.0011
 DoSCS=F DFT=T ScalE2(SS,OS)=  1.000000  1.000000
 Range of M.O.s used for correlation:     1   284
 NBasis=   284 NAE=   146 NBE=   146 NFC=     0 NFV=     0
 NROrb=    284 NOA=   146 NOB=   146 NVA=   138 NVB=   138
   1 Symmetry operations used in ECPInt.
 ECPInt:  NShTT=    5886 NPrTT=   35326 LenC2=    4813 LenP2D=   16676.
 LDataN:  DoStor=T MaxTD1= 5 Len=  102
 Symmetrizing basis deriv contribution to polar:
 IMax=3 JMax=2 DiffMx= 0.00D+00
 G2DrvN: will do    11 centers at a time, making    1 passes.
 Calling FoFCou, ICntrl=  3107 FMM=F I1Cent=   0 AccDes= 0.00D+00.
 End of G2Drv F.D. properties file   721 does not exist.
 End of G2Drv F.D. properties file   722 does not exist.
 End of G2Drv F.D. properties file   788 does not exist.
          IDoAtm=1111111111
          Differentiating once with respect to electric field.
                with respect to dipole field.
          Differentiating once with respect to nuclear coordinates.
 Keep R1 ints in memory in canonical form, NReq=1652907510.
          There are    33 degrees of freedom in the 1st order CPHF.  IDoFFX=6 NUNeed=     3.
     30 vectors produced by pass  0 Test12= 6.11D-14 3.03D-09 XBig12= 7.75D+01 1.97D+00.
 AX will form    30 AO Fock derivatives at one time.
     30 vectors produced by pass  1 Test12= 6.11D-14 3.03D-09 XBig12= 5.18D+00 4.35D-01.
     30 vectors produced by pass  2 Test12= 6.11D-14 3.03D-09 XBig12= 2.49D-01 7.20D-02.
     30 vectors produced by pass  3 Test12= 6.11D-14 3.03D-09 XBig12= 1.59D-02 2.68D-02.
     30 vectors produced by pass  4 Test12= 6.11D-14 3.03D-09 XBig12= 4.67D-04 4.29D-03.
     30 vectors produced by pass  5 Test12= 6.11D-14 3.03D-09 XBig12= 1.38D-05 7.43D-04.
     30 vectors produced by pass  6 Test12= 6.11D-14 3.03D-09 XBig12= 1.20D-07 6.23D-05.
     30 vectors produced by pass  7 Test12= 6.11D-14 3.03D-09 XBig12= 1.08D-09 6.39D-06.
      6 vectors produced by pass  8 Test12= 6.11D-14 3.03D-09 XBig12= 8.04D-12 4.48D-07.
      3 vectors produced by pass  9 Test12= 6.11D-14 3.03D-09 XBig12= 6.19D-14 4.27D-08.
      2 vectors produced by pass 10 Test12= 6.11D-14 3.03D-09 XBig12= 8.03D-16 5.29D-09.
 InvSVY:  IOpt=1 It=  1 EMax= 1.42D-14
 Solved reduced A of dimension   251 with    33 vectors.
 Isotropic polarizability for W=    0.000000      147.55 Bohr**3.
 End of Minotr F.D. properties file   721 does not exist.
 End of Minotr F.D. properties file   722 does not exist.
 End of Minotr F.D. properties file   788 does not exist.

 **********************************************************************

            Population analysis using the SCF Density.

 **********************************************************************

 Orbital symmetries:
       Occupied  (A) (A) (A) (A) (A) (A) (A) (A) (A) (A) (A) (A)
                 (A) (A) (A) (A) (A) (A) (A) (A) (A) (A) (A) (A)
                 (A) (A) (A) (A) (A) (A) (A) (A) (A) (A) (A) (A)
                 (A) (A) (A) (A) (A) (A) (A) (A) (A) (A) (A) (A)
                 (A) (A) (A) (A) (A) (A) (A) (A) (A) (A) (A) (A)
                 (A) (A) (A) (A) (A) (A) (A) (A) (A) (A) (A) (A)
                 (A) (A) (A) (A) (A) (A) (A) (A) (A) (A) (A) (A)
                 (A) (A) (A) (A) (A) (A) (A) (A) (A) (A) (A) (A)
                 (A) (A) (A) (A) (A) (A) (A) (A) (A) (A) (A) (A)
                 (A) (A) (A) (A) (A) (A) (A) (A) (A) (A) (A) (A)
                 (A) (A) (A) (A) (A) (A) (A) (A) (A) (A) (A) (A)
                 (A) (A) (A) (A) (A) (A) (A) (A) (A) (A) (A) (A)
                 (A) (A)
       Virtual   (A) (A) (A) (A) (A) (A) (A) (A) (A) (A) (A) (A)
                 (A) (A) (A) (A) (A) (A) (A) (A) (A) (A) (A) (A)
                 (A) (A) (A) (A) (A) (A) (A) (A) (A) (A) (A) (A)
                 (A) (A) (A) (A) (A) (A) (A) (A) (A) (A) (A) (A)
                 (A) (A) (A) (A) (A) (A) (A) (A) (A) (A) (A) (A)
                 (A) (A) (A) (A) (A) (A) (A) (A) (A) (A) (A) (A)
                 (A) (A) (A) (A) (A) (A) (A) (A) (A) (A) (A) (A)
                 (A) (A) (A) (A) (A) (A) (A) (A) (A) (A) (A) (A)
                 (A) (A) (A) (A) (A) (A) (A) (A) (A) (A) (A) (A)
                 (A) (A) (A) (A) (A) (A) (A) (A) (A) (A) (A) (A)
                 (A) (A) (A) (A) (A) (A) (A) (A) (A) (A) (A) (A)
                 (A) (A) (A) (A) (A) (A)
 The electronic state is 1-A.
 Alpha  occ. eigenvalues -- -483.09021-483.09018-483.08863-483.08861-483.08849
 Alpha  occ. eigenvalues -- -483.08848-483.08830-483.08828 -62.67240 -62.67238
 Alpha  occ. eigenvalues --  -62.67093 -62.67091 -62.67068 -62.67067 -62.67039
 Alpha  occ. eigenvalues --  -62.67037 -56.48056 -56.48054 -56.47910 -56.47908
 Alpha  occ. eigenvalues --  -56.47886 -56.47885 -56.47860 -56.47858 -56.47623
 Alpha  occ. eigenvalues --  -56.47621 -56.47620 -56.47617 -56.47471 -56.47471
 Alpha  occ. eigenvalues --  -56.47469 -56.47469 -56.47449 -56.47448 -56.47447
 Alpha  occ. eigenvalues --  -56.47445 -56.47420 -56.47418 -56.47417 -56.47416
 Alpha  occ. eigenvalues --  -10.50466 -10.50464  -8.84200  -8.84198  -8.84059
 Alpha  occ. eigenvalues --   -8.84057  -8.84028  -8.84027  -8.83994  -8.83992
 Alpha  occ. eigenvalues --   -6.66903  -6.66901  -6.66771  -6.66770  -6.66740
 Alpha  occ. eigenvalues --   -6.66740  -6.66710  -6.66708  -6.65344  -6.65341
 Alpha  occ. eigenvalues --   -6.65331  -6.65329  -6.65193  -6.65191  -6.65190
 Alpha  occ. eigenvalues --   -6.65189  -6.65164  -6.65164  -6.65157  -6.65156
 Alpha  occ. eigenvalues --   -6.65126  -6.65124  -6.65121  -6.65119  -2.77236
 Alpha  occ. eigenvalues --   -2.77234  -2.77102  -2.77101  -2.77072  -2.77072
 Alpha  occ. eigenvalues --   -2.77041  -2.77039  -2.76802  -2.76800  -2.76792
 Alpha  occ. eigenvalues --   -2.76790  -2.76661  -2.76659  -2.76659  -2.76657
 Alpha  occ. eigenvalues --   -2.76631  -2.76631  -2.76626  -2.76625  -2.76598
 Alpha  occ. eigenvalues --   -2.76596  -2.76594  -2.76592  -2.75548  -2.75547
 Alpha  occ. eigenvalues --   -2.75546  -2.75545  -2.75399  -2.75399  -2.75398
 Alpha  occ. eigenvalues --   -2.75398  -2.75368  -2.75368  -2.75368  -2.75368
 Alpha  occ. eigenvalues --   -2.75331  -2.75330  -2.75329  -2.75328  -1.01394
 Alpha  occ. eigenvalues --   -1.01157  -0.89661  -0.89608  -0.89567  -0.89364
 Alpha  occ. eigenvalues --   -0.89329  -0.89269  -0.70057  -0.69616  -0.55303
 Alpha  occ. eigenvalues --   -0.55230  -0.54909  -0.54893  -0.54605  -0.54514
 Alpha  occ. eigenvalues --   -0.43538  -0.42952  -0.42816  -0.41823  -0.41540
 Alpha  occ. eigenvalues --   -0.39842  -0.39801  -0.39766  -0.39735  -0.37687
 Alpha  occ. eigenvalues --   -0.36951  -0.36946  -0.36581  -0.36570  -0.36285
 Alpha  occ. eigenvalues --   -0.36269
 Alpha virt. eigenvalues --   -0.01851  -0.01816   0.03998   0.04190   0.04211
 Alpha virt. eigenvalues --    0.04295   0.04467   0.04790   0.24785   0.31648
 Alpha virt. eigenvalues --    0.35940   0.36039   0.37998   0.40061   0.40370
 Alpha virt. eigenvalues --    0.41745   0.43617   0.44211   0.44358   0.44854
 Alpha virt. eigenvalues --    0.45709   0.46112   0.46182   0.46290   0.47118
 Alpha virt. eigenvalues --    0.47505   0.51839   0.54841   0.55061   0.55558
 Alpha virt. eigenvalues --    0.55698   0.56581   0.56687   0.57238   0.57502
 Alpha virt. eigenvalues --    0.57935   0.58247   0.58541   0.58927   0.59011
 Alpha virt. eigenvalues --    0.59131   0.59244   0.59544   0.59824   0.60427
 Alpha virt. eigenvalues --    0.60730   0.60813   0.61067   0.61088   0.61470
 Alpha virt. eigenvalues --    0.62160   0.62878   0.63775   0.64286   0.65462
 Alpha virt. eigenvalues --    0.67903   0.69594   0.70210   0.70993   0.71371
 Alpha virt. eigenvalues --    0.72261   0.72771   0.73586   0.77408   0.77801
 Alpha virt. eigenvalues --    0.81562   0.82278   0.86917   0.87019   0.89238
 Alpha virt. eigenvalues --    0.89740   0.90264   0.93245   0.93717   1.02556
 Alpha virt. eigenvalues --    1.03663   1.04056   1.04168   1.04773   1.05475
 Alpha virt. eigenvalues --    1.11599   1.12698   1.14542   1.15107   1.15303
 Alpha virt. eigenvalues --    1.16324   1.17551   1.19987   1.78227   1.78312
 Alpha virt. eigenvalues --    1.78467   1.78730   2.08046   2.08518   2.08541
 Alpha virt. eigenvalues --    2.09684   2.10202   2.10304   3.46428   3.46615
 Alpha virt. eigenvalues --    3.46744   3.47014   3.48256   3.48461   3.48473
 Alpha virt. eigenvalues --    3.48758   3.48867   3.50024   3.50211   3.50520
 Alpha virt. eigenvalues --    3.50589   3.50717   3.50797   3.51346   3.52720
 Alpha virt. eigenvalues --    3.52943   3.53418   3.53579   3.59736   3.59918
 Alpha virt. eigenvalues --    3.59977   3.60191   3.60442   3.60746   3.68971
 Alpha virt. eigenvalues --    3.69075   3.69224   3.69357   3.69544   3.69644
 Alpha virt. eigenvalues --    3.85706   3.86251   3.86630   3.87244   3.87352
 Alpha virt. eigenvalues --    3.87598   3.89287   3.89866
          Condensed to atoms (all electrons):
               1          2          3          4          5          6
     1  Br  34.917205   0.219447  -0.071351  -0.071492  -0.071204  -0.000000
     2  C    0.219447   5.429628   0.223304   0.216442   0.215591  -0.000001
     3  Br  -0.071351   0.223304  34.915288  -0.071017  -0.070833   0.000000
     4  Br  -0.071492   0.216442  -0.071017  34.921856  -0.071508   0.000028
     5  Br  -0.071204   0.215591  -0.070833  -0.071508  34.930290  -0.000001
     6  Br  -0.000000  -0.000001   0.000000   0.000028  -0.000001  34.915374
     7  C   -0.000984   0.000194  -0.000001  -0.003716   0.000205   0.223269
     8  Br   0.000579  -0.000984  -0.000000   0.000766  -0.000028  -0.071350
     9  Br  -0.000027   0.000202  -0.000001  -0.001214  -0.000011  -0.070819
    10  Br   0.000759  -0.003725   0.000028   0.000152  -0.001275  -0.071007
               7          8          9         10
     1  Br  -0.000984   0.000579  -0.000027   0.000759
     2  C    0.000194  -0.000984   0.000202  -0.003725
     3  Br  -0.000001  -0.000000  -0.000001   0.000028
     4  Br  -0.003716   0.000766  -0.001214   0.000152
     5  Br   0.000205  -0.000028  -0.000011  -0.001275
     6  Br   0.223269  -0.071350  -0.070819  -0.071007
     7  C    5.429578   0.219471   0.215556   0.216409
     8  Br   0.219471  34.917193  -0.071191  -0.071493
     9  Br   0.215556  -0.071191  34.930232  -0.071510
    10  Br   0.216409  -0.071493  -0.071510  34.922042
 Mulliken charges:
               1
     1  Br   0.077069
     2  C   -0.300097
     3  Br   0.074584
     4  Br   0.079705
     5  Br   0.068775
     6  Br   0.074507
     7  C   -0.299981
     8  Br   0.077038
     9  Br   0.068784
    10  Br   0.079619
 Sum of Mulliken charges =   0.00000
 Mulliken charges with hydrogens summed into heavy atoms:
               1
     1  Br   0.077069
     2  C   -0.300097
     3  Br   0.074584
     4  Br   0.079705
     5  Br   0.068775
     6  Br   0.074507
     7  C   -0.299981
     8  Br   0.077038
     9  Br   0.068784
    10  Br   0.079619
 APT charges:
               1
     1  Br  -0.239808
     2  C    0.980126
     3  Br  -0.265203
     4  Br  -0.221301
     5  Br  -0.257823
     6  Br  -0.265395
     7  C    0.981381
     8  Br  -0.237171
     9  Br  -0.256296
    10  Br  -0.218511
 Sum of APT charges =   0.00000
 APT charges with hydrogens summed into heavy atoms:
               1
     1  Br  -0.239808
     2  C    0.980126
     3  Br  -0.265203
     4  Br  -0.221301
     5  Br  -0.257823
     6  Br  -0.265395
     7  C    0.981381
     8  Br  -0.237171
     9  Br  -0.256296
    10  Br  -0.218511
 Electronic spatial extent (au):  <R**2>=          10120.3453
 Charge=              0.0000 electrons
 Dipole moment (field-independent basis, Debye):
    X=             -0.0011    Y=              0.0351    Z=             -0.0118  Tot=              0.0370
 Quadrupole moment (field-independent basis, Debye-Ang):
   XX=           -153.2684   YY=           -152.4980   ZZ=           -152.6216
   XY=              0.0551   XZ=              0.1688   YZ=             -0.0445
 Traceless Quadrupole moment (field-independent basis, Debye-Ang):
   XX=             -0.4724   YY=              0.2980   ZZ=              0.1744
   XY=              0.0551   XZ=              0.1688   YZ=             -0.0445
 Octapole moment (field-independent basis, Debye-Ang**2):
  XXX=             -0.0409  YYY=              5.0804  ZZZ=              7.9730  XYY=              3.5704
  XXY=              1.1406  XXZ=             -0.3607  XZZ=             -3.5517  YZZ=             -5.8841
  YYZ=             -7.7249  XYZ=              4.9213
 Hexadecapole moment (field-independent basis, Debye-Ang**3):
 XXXX=          -6330.4615 YYYY=          -1178.4266 ZZZZ=          -1197.5527 XXXY=             35.3769
 XXXZ=            108.9974 YYYX=            -23.7508 YYYZ=              8.1061 ZZZX=            -22.9756
 ZZZY=            -15.0483 XXYY=          -1327.2605 XXZZ=          -1307.6890 YYZZ=           -390.9316
 XXYZ=              7.1569 YYXZ=            -20.4578 ZZXY=              9.6357
 N-N= 5.175641753901D+03 E-N=-5.974493759416D+04  KE= 2.064452948847D+04
  Exact polarizability: 172.802   0.731 135.249   2.198  -0.221 134.599
 Approx polarizability: 189.761   0.139 181.274   0.414  -0.001 181.265
   1 Symmetry operations used in ECPInt.
 ECPInt:  NShTT=    5886 NPrTT=   35326 LenC2=    4813 LenP2D=   16676.
 LDataN:  DoStor=T MaxTD1= 6 Len=  172
 Calling FoFJK, ICntrl=    100127 FMM=F ISym2X=0 I1Cent= 0 IOpClX= 0 NMat=1 NMatS=1 NMatT=0.
 ***** Axes restored to original set *****
 -------------------------------------------------------------------
 Center     Atomic                   Forces (Hartrees/Bohr)
 Number     Number              X              Y              Z
 -------------------------------------------------------------------
      1       35           0.001812476   -0.000497888    0.000079762
      2        6           0.000000356   -0.000167839   -0.000407498
      3       35           0.000079206    0.000005568    0.000101663
      4       35           0.002786500    0.000418732   -0.000433634
      5       35           0.001851370    0.000394237    0.000359909
      6       35          -0.000062592    0.000062040   -0.000093938
      7        6          -0.000021441   -0.000388359    0.000255069
      8       35          -0.001867338   -0.000392669   -0.000352867
      9       35          -0.001864855    0.000524587   -0.000057379
     10       35          -0.002713680    0.000041590    0.000548912
 -------------------------------------------------------------------
 Cartesian Forces:  Max     0.002786500 RMS     0.001016735
 FormGI is forming the generalized inverse of G from B-inverse, IUseBI=4.

 GradGradGradGradGradGradGradGradGradGradGradGradGradGradGradGradGradGrad
 Berny optimization.
 Internal  Forces:  Max     0.002604591 RMS     0.000901026
 Search for a local minimum.
 Step number   1 out of a maximum of   68
 All quantities printed in internal units (Hartrees-Bohrs-Radians)
 Mixed Optimization -- En-DIIS/RFO-DIIS
 Second derivative matrix not updated -- analytic derivatives used.
 ITU=  0
     Eigenvalues ---    0.00195   0.00253   0.00355   0.00610   0.00875
     Eigenvalues ---    0.04648   0.06755   0.07140   0.07776   0.09538
     Eigenvalues ---    0.10699   0.11643   0.13696   0.15042   0.16369
     Eigenvalues ---    0.16797   0.17494   0.17715   0.18410   0.22837
     Eigenvalues ---    0.23305   0.23834   0.253081000.000001000.00000
     Eigenvalues --- 1000.000001000.000001000.000001000.000001000.00000
     Eigenvalues --- 1000.000001000.000001000.000001000.000001000.00000
     Eigenvalues --- 1000.000001000.000001000.000001000.000001000.00000
     Eigenvalues --- 1000.000001000.000001000.000001000.000001000.00000
     Eigenvalues --- 1000.000001000.000001000.000001000.000001000.00000
     Eigenvalues --- 1000.000001000.000001000.000001000.000001000.00000
     Eigenvalues --- 1000.000001000.000001000.00000
 RFO step:  Lambda=-6.11877915D-04 EMin= 1.95398386D-03
 Linear search not attempted -- first point.
 Iteration  1 RMS(Cart)=  0.02155774 RMS(Int)=  0.00025722
 Iteration  2 RMS(Cart)=  0.00025015 RMS(Int)=  0.00010609
 Iteration  3 RMS(Cart)=  0.00000003 RMS(Int)=  0.00010609
 Iteration  1 RMS(Cart)=  0.00001581 RMS(Int)=  0.00000778
 Iteration  2 RMS(Cart)=  0.00000422 RMS(Int)=  0.00000851
 Iteration  3 RMS(Cart)=  0.00000112 RMS(Int)=  0.00000892
 Iteration  4 RMS(Cart)=  0.00000030 RMS(Int)=  0.00000904
 Variable       Old X    -DE/DX   Delta X   Delta X   Delta X     New X
                                 (Linear)    (Quad)   (Total)
    R1        3.66031  -0.00007   0.00000  -0.00439  -0.00439   3.65592
    R2        3.66385   0.00004   0.00000   0.01181   0.01181   3.67566
    R3        3.65740  -0.00007   0.00000  -0.01128  -0.01125   3.64616
    R4        3.66615   0.00016   0.00000   0.00185   0.00186   3.66800
    R5        9.07069   0.00245   0.00000   0.00000  -0.00000   9.07068
    R6        6.94756   0.00173   0.00000   0.12879   0.12889   7.07644
    R7        7.14070   0.00099   0.00000   0.10033   0.10032   7.24102
    R8        6.94137   0.00169   0.00000   0.11328   0.11338   7.05475
    R9        3.66389   0.00002   0.00000   0.01155   0.01155   3.67544
   R10        3.66020  -0.00007   0.00000  -0.00417  -0.00417   3.65603
   R11        3.66610   0.00018   0.00000   0.00150   0.00147   3.66757
   R12        3.65747  -0.00007   0.00000  -0.01164  -0.01161   3.64587
    A1        1.90940  -0.00143   0.00000  -0.01120  -0.01117   1.89823
    A2        1.91496   0.00235   0.00000   0.01889   0.01888   1.93384
    A3        1.91031  -0.00027   0.00000   0.00537   0.00519   1.91550
    A4        1.91077  -0.00004   0.00000  -0.00986  -0.00977   1.90100
    A5        1.90630  -0.00026   0.00000  -0.01185  -0.01172   1.89457
    A6        1.91204  -0.00036   0.00000   0.00848   0.00802   1.92007
    A7        2.27600   0.00004   0.00000  -0.02496  -0.02491   2.25110
    A8        1.39953   0.00034   0.00000  -0.01107  -0.01112   1.38841
    A9        0.87673  -0.00030   0.00000  -0.01369  -0.01356   0.86317
   A10        1.44949   0.00014   0.00000  -0.01583  -0.01581   1.43367
   A11        1.90939  -0.00149   0.00000  -0.01111  -0.01107   1.89832
   A12        1.90631  -0.00025   0.00000  -0.01156  -0.01149   1.89482
   A13        1.91077  -0.00001   0.00000  -0.00956  -0.00947   1.90130
   A14        1.91045  -0.00025   0.00000   0.00492   0.00468   1.91513
   A15        1.91491   0.00239   0.00000   0.01889   0.01878   1.93369
   A16        1.91196  -0.00041   0.00000   0.00826   0.00801   1.91996
   A17        1.44868   0.00018   0.00000  -0.01218  -0.01215   1.43653
   A18        0.87714  -0.00028   0.00000  -0.01257  -0.01253   0.86462
   A19        1.40029   0.00039   0.00000  -0.00358  -0.00360   1.39670
   A20        2.27718   0.00011   0.00000  -0.01627  -0.01625   2.26092
    D1        1.08536   0.00079   0.00000  -0.01537  -0.01519   1.07017
    D2        1.10839   0.00084   0.00000  -0.00716  -0.00714   1.10126
    D3       -3.10220   0.00046   0.00000  -0.02358  -0.02346  -3.12566
    D4       -3.07917   0.00050   0.00000  -0.01537  -0.01541  -3.09458
    D5       -1.01217  -0.00011   0.00000  -0.03894  -0.03889  -1.05106
    D6       -0.98914  -0.00006   0.00000  -0.03072  -0.03084  -1.01998
    D7       -1.07819  -0.00254   0.00000  -0.00238  -0.00231  -1.08050
    D8        3.11494  -0.00046   0.00000   0.01523   0.01523   3.13017
    D9        1.02217  -0.00004   0.00000   0.02937   0.02947   1.05164
   D10       -0.53590  -0.00005   0.00000   0.00851   0.00845  -0.52745
   D11       -0.56543  -0.00012   0.00000  -0.00231  -0.00225  -0.56769
   D12        0.57143   0.00013   0.00000   0.00761   0.00750   0.57894
   D13       -2.54728   0.00019   0.00000   0.01297   0.01298  -2.53430
   D14       -2.59298   0.00008   0.00000  -0.00128  -0.00148  -2.59446
   D15        0.57150   0.00014   0.00000   0.00408   0.00399   0.57549
   D16       -0.56521  -0.00011   0.00000  -0.00524  -0.00514  -0.57034
   D17       -0.53556  -0.00003   0.00000   0.00128   0.00143  -0.53413
   D18        3.11484  -0.00049   0.00000   0.00657   0.00653   3.12137
   D19       -1.07822  -0.00260   0.00000  -0.01103  -0.01104  -1.08926
   D20        1.02212  -0.00007   0.00000   0.02030   0.02027   1.04238
   D21       -3.08008   0.00053   0.00000  -0.00945  -0.00945  -3.08953
   D22       -3.10321   0.00047   0.00000  -0.01431  -0.01430  -3.11751
   D23        1.10752   0.00089   0.00000  -0.00153  -0.00143   1.10609
   D24        1.08439   0.00084   0.00000  -0.00639  -0.00628   1.07811
   D25       -0.99010  -0.00003   0.00000  -0.02441  -0.02441  -1.01451
   D26       -1.01322  -0.00009   0.00000  -0.02926  -0.02926  -1.04248
         Item               Value     Threshold  Converged?
 Maximum Force            0.002576     0.000015     NO 
 RMS     Force            0.000826     0.000010     NO 
 Maximum Displacement     0.069307     0.000060     NO 
 RMS     Displacement     0.021556     0.000040     NO 
 Predicted change in Energy=-3.220714D-04
 GradGradGradGradGradGradGradGradGradGradGradGradGradGradGradGradGradGrad

                          Input orientation:                          
 ---------------------------------------------------------------------
 Center     Atomic      Atomic             Coordinates (Angstroms)
 Number     Number       Type             X           Y           Z
 ---------------------------------------------------------------------
      1         35           0        1.663004   -1.835332    0.145055
      2          6           0        2.255165    0.000628   -0.001200
      3         35           0        4.071632    0.018548   -0.696500
      4         35           0        1.116391    0.994394   -1.200555
      5         35           0        2.257293    0.830866    1.753301
      6         35           0       -4.357866   -0.398061    0.583928
      7          6           0       -2.544833   -0.003961    0.000437
      8         35           0       -1.963827   -1.397066   -1.209813
      9         35           0       -2.549759    1.704210   -0.920869
     10         35           0       -1.394510    0.083478    1.546835
 ---------------------------------------------------------------------
                    Distance matrix (angstroms):
                    1          2          3          4          5
     1  Br   0.000000
     2  C    1.934630   0.000000
     3  Br   3.153819   1.945075   0.000000
     4  Br   3.180692   1.929464   3.152744   0.000000
     5  Br   3.169897   1.941025   3.154871   3.170752   0.000000
     6  Br   6.205580   6.650827   8.536363   5.923748   6.829204
     7  C    4.591374   4.800000   6.653107   3.980409   5.179757
     8  Br   3.896363   4.605886   6.220468   3.899604   5.617970
     9  Br   5.604634   5.180278   6.836272   3.744692   5.569710
    10  Br   3.872365   3.965275   5.908932   3.831781   3.733213
                    6          7          8          9         10
     6  Br   0.000000
     7  C    1.944959   0.000000
     8  Br   3.153877   1.934687   0.000000
     9  Br   3.154869   1.940793   3.169340   0.000000
    10  Br   3.152864   1.929310   3.180448   3.170321   0.000000
 Stoichiometry    C2Br8
 Framework group  C1[X(C2Br8)]
 Deg. of freedom    24
 Full point group                 C1      NOp   1
 Largest Abelian subgroup         C1      NOp   1
 Largest concise Abelian subgroup C1      NOp   1
                         Standard orientation:                         
 ---------------------------------------------------------------------
 Center     Atomic      Atomic             Coordinates (Angstroms)
 Number     Number       Type             X           Y           Z
 ---------------------------------------------------------------------
      1         35           0       -1.806806    1.647226    0.824364
      2          6           0       -2.399873    0.002062   -0.002980
      3         35           0       -4.215716    0.248911   -0.654974
      4         35           0       -1.260570   -0.467797   -1.487585
      5         35           0       -2.404071   -1.427842    1.309626
      6         35           0        4.212846    0.145273    0.693391
      7          6           0        2.400123    0.001530    0.003293
      8         35           0        1.821010    1.748375   -0.593512
      9         35           0        2.404921   -1.233863   -1.493522
     10         35           0        1.248342   -0.660898    1.402159
 ---------------------------------------------------------------------
 Rotational constants (GHZ):           0.3180237           0.0933100           0.0933050
 Standard basis: def2SVPP (5D, 7F)
 There are   310 symmetry adapted cartesian basis functions of A   symmetry.
 There are   284 symmetry adapted basis functions of A   symmetry.
   284 basis functions,   690 primitive gaussians,   310 cartesian basis functions
   146 alpha electrons      146 beta electrons
       nuclear repulsion energy      5159.0981563663 Hartrees.
 NAtoms=   10 NActive=   10 NUniq=   10 SFac= 1.00D+00 NAtFMM=   60 NAOKFM=F Big=F
 Integral buffers will be    131072 words long.
 Raffenetti 2 integral format.
 Two-electron integral symmetry is turned on.
 Nuclear repulsion after empirical dispersion term =     5159.0901786714 Hartrees.
 One-electron integrals computed using PRISM.
   1 Symmetry operations used in ECPInt.
 ECPInt:  NShTT=    5886 NPrTT=   35326 LenC2=    4796 LenP2D=   16607.
 LDataN:  DoStor=T MaxTD1= 4 Len=   56
 NBasis=   284 RedAO= T EigKep=  5.38D-03  NBF=   284
 NBsUse=   284 1.00D-06 EigRej= -1.00D+00 NBFU=   284
 Initial guess from the checkpoint file:  "/scratch/user/peterchao1/peterchao1/6326744_1664222962000000785086636/Gau-34255.chk"
 B after Tr=     0.000000    0.000000    0.000000
         Rot=    0.981767   -0.190086    0.000386    0.000423 Ang= -21.92 deg.
 ExpMin= 1.30D-01 ExpMax= 1.13D+05 ExpMxC= 1.70D+04 IAcc=3 IRadAn=         5 AccDes= 0.00D+00
 Harris functional with IExCor= 4639 and IRadAn=       5 diagonalized for initial guess.
 HarFok:  IExCor= 4639 AccDes= 0.00D+00 IRadAn=         5 IDoV= 1 UseB2=F ITyADJ=14
 ICtDFT=  3500011 ScaDFX=  1.000000  1.000000  1.000000  1.000000
 FoFCou: FMM=F IPFlag=           0 FMFlag=      100000 FMFlg1=           0
         NFxFlg=           0 DoJE=T BraDBF=F KetDBF=T FulRan=T
         wScrn=  0.000000 ICntrl=       500 IOpCl=  0 I1Cent=   200000004 NGrid=           0
         NMat0=    1 NMatS0=      1 NMatT0=    0 NMatD0=    1 NMtDS0=    0 NMtDT0=    0
 Petite list used in FoFCou.
 Keep R1 ints in memory in canonical form, NReq=1652903131.
 Gradient too large for Newton-Raphson -- use scaled steepest descent instead.
     Minimum is close to point  4 DX=  6.30D-02 DF= -1.07D-06 DXR=  4.99D-02 DFR=  2.50D-03 which will be used.
 Gradient too large for Newton-Raphson -- use scaled steepest descent instead.
     Accept linear search using points  2 and  3.
 LinEq1:  Iter=  0 NonCon=     1 RMS=6.38D-05 Max=2.36D-03 NDo=     1
 AX will form     1 AO Fock derivatives at one time.
 LinEq1:  Iter=  1 NonCon=     1 RMS=8.56D-06 Max=3.03D-04 NDo=     1
 LinEq1:  Iter=  2 NonCon=     1 RMS=5.08D-06 Max=1.62D-04 NDo=     1
 LinEq1:  Iter=  3 NonCon=     1 RMS=3.06D-06 Max=1.34D-04 NDo=     1
 LinEq1:  Iter=  4 NonCon=     1 RMS=1.33D-06 Max=4.25D-05 NDo=     1
 LinEq1:  Iter=  5 NonCon=     1 RMS=3.15D-07 Max=6.79D-06 NDo=     1
 LinEq1:  Iter=  6 NonCon=     1 RMS=1.14D-07 Max=3.98D-06 NDo=     1
 LinEq1:  Iter=  7 NonCon=     1 RMS=4.25D-08 Max=1.38D-06 NDo=     1
 LinEq1:  Iter=  8 NonCon=     1 RMS=1.98D-08 Max=5.48D-07 NDo=     1
 LinEq1:  Iter=  9 NonCon=     1 RMS=1.34D-08 Max=4.12D-07 NDo=     1
 LinEq1:  Iter= 10 NonCon=     1 RMS=5.24D-09 Max=1.66D-07 NDo=     1
 LinEq1:  Iter= 11 NonCon=     1 RMS=1.41D-09 Max=3.34D-08 NDo=     1
 LinEq1:  Iter= 12 NonCon=     0 RMS=3.17D-10 Max=6.66D-09 NDo=     1
 Linear equations converged to 2.007D-09 2.007D-08 after    12 iterations.
     Accept linear search using points  1 and  2.
     Minimum is close to point  2 DX= -2.85D-04 DF= -1.09D-11 DXR=  2.85D-04 DFR=  7.74D-08 which will be used.
 LinEq1:  Iter=  0 NonCon=     1 RMS=3.88D-07 Max=1.72D-05 NDo=     1
 LinEq1:  Iter=  1 NonCon=     1 RMS=1.53D-07 Max=4.36D-06 NDo=     1
 LinEq1:  Iter=  2 NonCon=     1 RMS=5.75D-08 Max=1.60D-06 NDo=     1
 LinEq1:  Iter=  3 NonCon=     1 RMS=1.91D-08 Max=4.34D-07 NDo=     1
 LinEq1:  Iter=  4 NonCon=     1 RMS=7.15D-09 Max=1.64D-07 NDo=     1
 LinEq1:  Iter=  5 NonCon=     1 RMS=2.02D-09 Max=5.27D-08 NDo=     1
 LinEq1:  Iter=  6 NonCon=     1 RMS=1.43D-09 Max=4.53D-08 NDo=     1
 LinEq1:  Iter=  7 NonCon=     1 RMS=7.17D-10 Max=2.42D-08 NDo=     1
 LinEq1:  Iter=  8 NonCon=     1 RMS=2.28D-10 Max=6.00D-09 NDo=     1
 LinEq1:  Iter=  9 NonCon=     0 RMS=6.72D-11 Max=1.81D-09 NDo=     1
 Linear equations converged to 5.962D-10 5.962D-09 after     9 iterations.
 SCF Done:  E(RwB97XD) =  -20667.2710083     a.u. after    5 cycles
            Convg  =    0.3701D-08                    31 Fock formations.
              S**2 =  0.0000                  -V/T =  2.0011
 DoSCS=F DFT=T ScalE2(SS,OS)=  1.000000  1.000000
 Range of M.O.s used for correlation:     1   284
 NBasis=   284 NAE=   146 NBE=   146 NFC=     0 NFV=     0
 NROrb=    284 NOA=   146 NOB=   146 NVA=   138 NVB=   138
   1 Symmetry operations used in ECPInt.
 ECPInt:  NShTT=    5886 NPrTT=   35326 LenC2=    4796 LenP2D=   16607.
 LDataN:  DoStor=T MaxTD1= 5 Len=  102
 Symmetrizing basis deriv contribution to polar:
 IMax=3 JMax=2 DiffMx= 0.00D+00
 G2DrvN: will do    11 centers at a time, making    1 passes.
 Calling FoFCou, ICntrl=  3107 FMM=F I1Cent=   0 AccDes= 0.00D+00.
 End of G2Drv F.D. properties file   721 does not exist.
 End of G2Drv F.D. properties file   722 does not exist.
 End of G2Drv F.D. properties file   788 does not exist.
          IDoAtm=1111111111
          Differentiating once with respect to electric field.
                with respect to dipole field.
          Differentiating once with respect to nuclear coordinates.
 Keep R1 ints in memory in canonical form, NReq=1652907510.
          There are    33 degrees of freedom in the 1st order CPHF.  IDoFFX=6 NUNeed=     3.
     30 vectors produced by pass  0 Test12= 6.11D-14 3.03D-09 XBig12= 7.64D+01 2.02D+00.
 AX will form    30 AO Fock derivatives at one time.
     30 vectors produced by pass  1 Test12= 6.11D-14 3.03D-09 XBig12= 5.12D+00 4.84D-01.
     30 vectors produced by pass  2 Test12= 6.11D-14 3.03D-09 XBig12= 2.44D-01 7.36D-02.
     30 vectors produced by pass  3 Test12= 6.11D-14 3.03D-09 XBig12= 1.56D-02 2.72D-02.
     30 vectors produced by pass  4 Test12= 6.11D-14 3.03D-09 XBig12= 4.63D-04 4.48D-03.
     30 vectors produced by pass  5 Test12= 6.11D-14 3.03D-09 XBig12= 1.38D-05 7.80D-04.
     30 vectors produced by pass  6 Test12= 6.11D-14 3.03D-09 XBig12= 1.40D-07 7.06D-05.
     30 vectors produced by pass  7 Test12= 6.11D-14 3.03D-09 XBig12= 1.14D-09 7.30D-06.
      6 vectors produced by pass  8 Test12= 6.11D-14 3.03D-09 XBig12= 7.00D-12 4.63D-07.
      3 vectors produced by pass  9 Test12= 6.11D-14 3.03D-09 XBig12= 4.86D-14 4.47D-08.
      3 vectors produced by pass 10 Test12= 6.11D-14 3.03D-09 XBig12= 6.28D-16 5.72D-09.
 InvSVY:  IOpt=1 It=  1 EMax= 7.11D-15
 Solved reduced A of dimension   252 with    33 vectors.
 Isotropic polarizability for W=    0.000000      147.25 Bohr**3.
 End of Minotr F.D. properties file   721 does not exist.
 End of Minotr F.D. properties file   722 does not exist.
 End of Minotr F.D. properties file   788 does not exist.
   1 Symmetry operations used in ECPInt.
 ECPInt:  NShTT=    5886 NPrTT=   35326 LenC2=    4796 LenP2D=   16607.
 LDataN:  DoStor=T MaxTD1= 6 Len=  172
 Calling FoFJK, ICntrl=    100127 FMM=F ISym2X=0 I1Cent= 0 IOpClX= 0 NMat=1 NMatS=1 NMatT=0.
 ***** Axes restored to original set *****
 -------------------------------------------------------------------
 Center     Atomic                   Forces (Hartrees/Bohr)
 Number     Number              X              Y              Z
 -------------------------------------------------------------------
      1       35           0.000026175   -0.000042695   -0.000036600
      2        6           0.004901159   -0.000087096    0.000035344
      3       35           0.000025724   -0.000002237   -0.000010173
      4       35          -0.000071484    0.000018703   -0.000112562
      5       35           0.000041958    0.000033229   -0.000001195
      6       35          -0.000047893   -0.000016802    0.000011764
      7        6          -0.004849916   -0.000062593   -0.000058505
      8       35           0.000151676    0.000057812   -0.000060612
      9       35          -0.000020251    0.000092080   -0.000021594
     10       35          -0.000157148    0.000009599    0.000254132
 -------------------------------------------------------------------
 Cartesian Forces:  Max     0.004901159 RMS     0.001261167
 FormGI is forming the generalized inverse of G from B-inverse, IUseBI=4.

 GradGradGradGradGradGradGradGradGradGradGradGradGradGradGradGradGradGrad
 Berny optimization.
 Using GEDIIS/GDIIS optimizer.
 Internal  Forces:  Max     0.003524612 RMS     0.000544558
 Search for a local minimum.
 Step number   2 out of a maximum of   68
 All quantities printed in internal units (Hartrees-Bohrs-Radians)
 Mixed Optimization -- En-DIIS/RFO-DIIS
 Swapping is turned off.
 Second derivative matrix not updated -- analytic derivatives used.
 DE= -3.12D-04 DEPred=-3.22D-04 R= 9.70D-01
 TightC=F SS=  1.41D+00  RLast= 2.25D-01 DXNew= 5.0454D-01 6.7620D-01
 Trust test= 9.70D-01 RLast= 2.25D-01 DXMaxT set to 5.05D-01
 ITU=  1  0
     Eigenvalues ---    0.00179   0.00304   0.00399   0.00770   0.00866
     Eigenvalues ---    0.04769   0.06860   0.06991   0.07923   0.09648
     Eigenvalues ---    0.10872   0.11792   0.13897   0.15121   0.16358
     Eigenvalues ---    0.16616   0.17746   0.17967   0.18935   0.22902
     Eigenvalues ---    0.23416   0.24003   0.259451000.000001000.00000
     Eigenvalues --- 1000.000001000.000001000.000001000.000001000.00000
     Eigenvalues --- 1000.000001000.000001000.000001000.000001000.00000
     Eigenvalues --- 1000.000001000.000001000.000001000.000001000.00000
     Eigenvalues --- 1000.000001000.000001000.000001000.000001000.00000
     Eigenvalues --- 1000.000001000.000001000.000001000.000001000.00000
     Eigenvalues --- 1000.000001000.000001000.000001000.000001000.00000
     Eigenvalues --- 1000.000001000.000001000.00000
 En-DIIS/RFO-DIIS/Sim-DIIS IScMMF=       -3 using points:     2    1
 RFO step:  Lambda=-1.89934130D-05.
 DidBck=F Rises=F RFO-DIIS coefs:    1.16007   -0.16007
 Iteration  1 RMS(Cart)=  0.01113130 RMS(Int)=  0.00007033
 Iteration  2 RMS(Cart)=  0.00007663 RMS(Int)=  0.00003140
 Iteration  3 RMS(Cart)=  0.00000000 RMS(Int)=  0.00003140
 Iteration  1 RMS(Cart)=  0.00000828 RMS(Int)=  0.00000408
 Iteration  2 RMS(Cart)=  0.00000221 RMS(Int)=  0.00000446
 Iteration  3 RMS(Cart)=  0.00000059 RMS(Int)=  0.00000468
 Variable       Old X    -DE/DX   Delta X   Delta X   Delta X     New X
                                 (Linear)    (Quad)   (Total)
    R1        3.65592   0.00003  -0.00070   0.00078   0.00008   3.65600
    R2        3.67566   0.00003   0.00189  -0.00184   0.00005   3.67570
    R3        3.64616   0.00054  -0.00180   0.00228   0.00050   3.64666
    R4        3.66800  -0.00002   0.00030  -0.00064  -0.00035   3.66765
    R5        9.07068   0.00352  -0.00000   0.00000  -0.00000   9.07068
    R6        7.07644   0.00051   0.02063  -0.02007   0.00060   7.07705
    R7        7.24102   0.00028   0.01606   0.02207   0.03812   7.27913
    R8        7.05475   0.00063   0.01815   0.01581   0.03401   7.08876
    R9        3.67544   0.00005   0.00185  -0.00161   0.00024   3.67568
   R10        3.65603   0.00004  -0.00067   0.00059  -0.00008   3.65595
   R11        3.66757   0.00000   0.00023   0.00011   0.00034   3.66790
   R12        3.64587   0.00056  -0.00186   0.00284   0.00102   3.64689
    A1        1.89823  -0.00008  -0.00179   0.00162  -0.00016   1.89807
    A2        1.93384  -0.00005   0.00302  -0.00252   0.00050   1.93434
    A3        1.91550   0.00003   0.00083  -0.00075   0.00005   1.91555
    A4        1.90100   0.00035  -0.00156   0.00161   0.00008   1.90108
    A5        1.89457   0.00037  -0.00188   0.00240   0.00057   1.89515
    A6        1.92007  -0.00061   0.00128  -0.00219  -0.00103   1.91903
    A7        2.25110   0.00044  -0.00399   0.00266  -0.00137   2.24973
    A8        1.38841   0.00056  -0.00178   0.00269   0.00092   1.38933
    A9        0.86317  -0.00012  -0.00217  -0.00040  -0.00257   0.86061
   A10        1.43367   0.00053  -0.00253   0.00462   0.00211   1.43578
   A11        1.89832   0.00009  -0.00177   0.00172  -0.00004   1.89828
   A12        1.89482   0.00030  -0.00184   0.00178  -0.00001   1.89481
   A13        1.90130   0.00029  -0.00152   0.00108  -0.00041   1.90089
   A14        1.91513  -0.00008   0.00075  -0.00048   0.00023   1.91536
   A15        1.93369  -0.00015   0.00301  -0.00244   0.00056   1.93424
   A16        1.91996  -0.00043   0.00128  -0.00154  -0.00034   1.91963
   A17        1.43653   0.00040  -0.00195  -0.00011  -0.00206   1.43447
   A18        0.86462  -0.00019  -0.00201  -0.00297  -0.00496   0.85966
   A19        1.39670   0.00040  -0.00058  -0.01105  -0.01161   1.38508
   A20        2.26092   0.00021  -0.00260  -0.01383  -0.01642   2.24450
    D1        1.07017  -0.00000  -0.00243   0.01052   0.00812   1.07829
    D2        1.10126   0.00004  -0.00114  -0.00137  -0.00251   1.09874
    D3       -3.12566   0.00010  -0.00376   0.01200   0.00827  -3.11739
    D4       -3.09458   0.00014  -0.00247   0.00011  -0.00236  -3.09693
    D5       -1.05106   0.00040  -0.00623   0.01460   0.00841  -1.04265
    D6       -1.01998   0.00044  -0.00494   0.00271  -0.00222  -1.02220
    D7       -1.08050  -0.00007  -0.00037   0.00333   0.00297  -1.07753
    D8        3.13017  -0.00022   0.00244   0.00037   0.00280   3.13296
    D9        1.05164  -0.00051   0.00472  -0.00175   0.00296   1.05459
   D10       -0.52745  -0.00003   0.00135  -0.01942  -0.01805  -0.54550
   D11       -0.56769  -0.00009  -0.00036  -0.00406  -0.00435  -0.57204
   D12        0.57894   0.00001   0.00120  -0.00049   0.00071   0.57964
   D13       -2.53430   0.00001   0.00208  -0.00733  -0.00530  -2.53961
   D14       -2.59446  -0.00002  -0.00024   0.01174   0.01152  -2.58294
   D15        0.57549  -0.00002   0.00064   0.00490   0.00551   0.58099
   D16       -0.57034  -0.00013  -0.00082   0.00006  -0.00077  -0.57111
   D17       -0.53413  -0.00012   0.00023  -0.00916  -0.00888  -0.54301
   D18        3.12137  -0.00011   0.00105   0.01474   0.01578   3.13715
   D19       -1.08926   0.00012  -0.00177   0.01761   0.01585  -1.07340
   D20        1.04238  -0.00040   0.00324   0.01325   0.01648   1.05886
   D21       -3.08953   0.00005  -0.00151  -0.00799  -0.00947  -3.09900
   D22       -3.11751   0.00006  -0.00229  -0.00086  -0.00315  -3.12066
   D23        1.10609  -0.00015  -0.00023  -0.00931  -0.00950   1.09659
   D24        1.07811  -0.00014  -0.00100  -0.00217  -0.00318   1.07493
   D25       -1.01451   0.00034  -0.00391  -0.00608  -0.00993  -1.02444
   D26       -1.04248   0.00035  -0.00468   0.00106  -0.00362  -1.04610
         Item               Value     Threshold  Converged?
 Maximum Force            0.000170     0.000015     NO 
 RMS     Force            0.000067     0.000010     NO 
 Maximum Displacement     0.029855     0.000060     NO 
 RMS     Displacement     0.011144     0.000040     NO 
 Predicted change in Energy=-9.678100D-06
 GradGradGradGradGradGradGradGradGradGradGradGradGradGradGradGradGradGrad

                          Input orientation:                          
 ---------------------------------------------------------------------
 Center     Atomic      Atomic             Coordinates (Angstroms)
 Number     Number       Type             X           Y           Z
 ---------------------------------------------------------------------
      1         35           0        1.664748   -1.836780    0.156359
      2          6           0        2.255322   -0.001433   -0.003877
      3         35           0        4.070144    0.012612   -0.703616
      4         35           0        1.113089    0.984403   -1.206907
      5         35           0        2.259990    0.841151    1.744518
      6         35           0       -4.361262   -0.407177    0.568181
      7          6           0       -2.544672   -0.002251    0.003030
      8         35           0       -1.948029   -1.384870   -1.211561
      9         35           0       -2.548145    1.712510   -0.906337
     10         35           0       -1.408496    0.079540    1.560830
 ---------------------------------------------------------------------
                    Distance matrix (angstroms):
                    1          2          3          4          5
     1  Br   0.000000
     2  C    1.934671   0.000000
     3  Br   3.153687   1.945099   0.000000
     4  Br   3.181492   1.929728   3.153070   0.000000
     5  Br   3.169839   1.940839   3.155391   3.169670   0.000000
     6  Br   6.206944   6.653650   8.537113   5.920806   6.839815
     7  C    4.594368   4.799999   6.652471   3.977015   5.179661
     8  Br   3.889419   4.586999   6.199143   3.870907   5.603659
     9  Br   5.610280   5.179317   6.836117   3.745012   5.559178
    10  Br   3.884540   3.984775   5.928549   3.851952   3.751211
                    6          7          8          9         10
     6  Br   0.000000
     7  C    1.945086   0.000000
     8  Br   3.153896   1.934645   0.000000
     9  Br   3.155102   1.940970   3.169711   0.000000
    10  Br   3.152946   1.929851   3.181469   3.170536   0.000000
 Stoichiometry    C2Br8
 Framework group  C1[X(C2Br8)]
 Deg. of freedom    24
 Full point group                 C1      NOp   1
 Largest Abelian subgroup         C1      NOp   1
 Largest concise Abelian subgroup C1      NOp   1
                         Standard orientation:                         
 ---------------------------------------------------------------------
 Center     Atomic      Atomic             Coordinates (Angstroms)
 Number     Number       Type             X           Y           Z
 ---------------------------------------------------------------------
      1         35           0       -1.809874    1.711479    0.684063
      2          6           0       -2.400066    0.001900   -0.002934
      3         35           0       -4.215081    0.191425   -0.676141
      4         35           0       -1.257942   -0.591071   -1.440914
      5         35           0       -2.404044   -1.312778    1.424814
      6         35           0        4.216584    0.225740    0.661069
      7          6           0        2.399930    0.002138    0.002944
      8         35           0        1.802622    1.678065   -0.756886
      9         35           0        2.403546   -1.374004   -1.365846
     10         35           0        1.264212   -0.529547    1.469840
 ---------------------------------------------------------------------
 Rotational constants (GHZ):           0.3179494           0.0933125           0.0933038
 Standard basis: def2SVPP (5D, 7F)
 There are   310 symmetry adapted cartesian basis functions of A   symmetry.
 There are   284 symmetry adapted basis functions of A   symmetry.
   284 basis functions,   690 primitive gaussians,   310 cartesian basis functions
   146 alpha electrons      146 beta electrons
       nuclear repulsion energy      5158.4346634784 Hartrees.
 NAtoms=   10 NActive=   10 NUniq=   10 SFac= 1.00D+00 NAtFMM=   60 NAOKFM=F Big=F
 Integral buffers will be    131072 words long.
 Raffenetti 2 integral format.
 Two-electron integral symmetry is turned on.
 Nuclear repulsion after empirical dispersion term =     5158.4266755130 Hartrees.
 One-electron integrals computed using PRISM.
   1 Symmetry operations used in ECPInt.
 ECPInt:  NShTT=    5886 NPrTT=   35326 LenC2=    4795 LenP2D=   16608.
 LDataN:  DoStor=T MaxTD1= 4 Len=   56
 NBasis=   284 RedAO= T EigKep=  5.39D-03  NBF=   284
 NBsUse=   284 1.00D-06 EigRej= -1.00D+00 NBFU=   284
 Initial guess from the checkpoint file:  "/scratch/user/peterchao1/peterchao1/6326744_1664222962000000785086636/Gau-34255.chk"
 B after Tr=    -0.000000   -0.000000    0.000000
         Rot=    0.998964    0.045508   -0.000482   -0.000653 Ang=   5.22 deg.
 ExpMin= 1.30D-01 ExpMax= 1.13D+05 ExpMxC= 1.70D+04 IAcc=3 IRadAn=         5 AccDes= 0.00D+00
 Harris functional with IExCor= 4639 and IRadAn=       5 diagonalized for initial guess.
 HarFok:  IExCor= 4639 AccDes= 0.00D+00 IRadAn=         5 IDoV= 1 UseB2=F ITyADJ=14
 ICtDFT=  3500011 ScaDFX=  1.000000  1.000000  1.000000  1.000000
 FoFCou: FMM=F IPFlag=           0 FMFlag=      100000 FMFlg1=           0
         NFxFlg=           0 DoJE=T BraDBF=F KetDBF=T FulRan=T
         wScrn=  0.000000 ICntrl=       500 IOpCl=  0 I1Cent=   200000004 NGrid=           0
         NMat0=    1 NMatS0=      1 NMatT0=    0 NMatD0=    1 NMtDS0=    0 NMtDT0=    0
 Petite list used in FoFCou.
 Keep R1 ints in memory in canonical form, NReq=1652903131.
 Gradient too large for Newton-Raphson -- use scaled steepest descent instead.
     Minimum is close to point  4 DX=  4.14D-02 DF= -1.03D-07 DXR=  3.33D-02 DFR=  1.11D-03 which will be used.
 LinEq1:  Iter=  0 NonCon=     1 RMS=3.93D-05 Max=1.26D-03 NDo=     1
 AX will form     1 AO Fock derivatives at one time.
 LinEq1:  Iter=  1 NonCon=     1 RMS=5.80D-06 Max=1.69D-04 NDo=     1
 LinEq1:  Iter=  2 NonCon=     1 RMS=2.25D-06 Max=5.99D-05 NDo=     1
 LinEq1:  Iter=  3 NonCon=     1 RMS=1.62D-06 Max=4.77D-05 NDo=     1
 LinEq1:  Iter=  4 NonCon=     1 RMS=5.98D-07 Max=1.22D-05 NDo=     1
 LinEq1:  Iter=  5 NonCon=     1 RMS=1.69D-07 Max=3.82D-06 NDo=     1
 LinEq1:  Iter=  6 NonCon=     1 RMS=5.60D-08 Max=1.49D-06 NDo=     1
 LinEq1:  Iter=  7 NonCon=     1 RMS=2.45D-08 Max=7.37D-07 NDo=     1
 LinEq1:  Iter=  8 NonCon=     1 RMS=1.44D-08 Max=3.16D-07 NDo=     1
 LinEq1:  Iter=  9 NonCon=     1 RMS=6.09D-09 Max=1.13D-07 NDo=     1
 LinEq1:  Iter= 10 NonCon=     1 RMS=1.22D-09 Max=2.16D-08 NDo=     1
 LinEq1:  Iter= 11 NonCon=     0 RMS=4.96D-10 Max=1.32D-08 NDo=     1
 Linear equations converged to 2.007D-09 2.007D-08 after    11 iterations.
     Accept linear search using points  1 and  2.
     Minimum is close to point  2 DX= -4.73D-05 DF=  0.00D+00 DXR=  4.73D-05 DFR=  0.00D+00 which will be used.
 LinEq1:  Iter=  0 NonCon=     1 RMS=1.29D-07 Max=5.03D-06 NDo=     1
 LinEq1:  Iter=  1 NonCon=     1 RMS=4.86D-08 Max=1.78D-06 NDo=     1
 LinEq1:  Iter=  2 NonCon=     1 RMS=1.41D-08 Max=3.71D-07 NDo=     1
 LinEq1:  Iter=  3 NonCon=     1 RMS=3.41D-09 Max=9.02D-08 NDo=     1
 LinEq1:  Iter=  4 NonCon=     1 RMS=1.82D-09 Max=5.07D-08 NDo=     1
 LinEq1:  Iter=  5 NonCon=     1 RMS=1.09D-09 Max=3.48D-08 NDo=     1
 LinEq1:  Iter=  6 NonCon=     1 RMS=5.52D-10 Max=1.55D-08 NDo=     1
 LinEq1:  Iter=  7 NonCon=     1 RMS=1.69D-10 Max=5.89D-09 NDo=     1
 LinEq1:  Iter=  8 NonCon=     0 RMS=5.34D-11 Max=1.09D-09 NDo=     1
 Linear equations converged to 2.013D-10 2.013D-09 after     8 iterations.
 SCF Done:  E(RwB97XD) =  -20667.2710256     a.u. after    4 cycles
            Convg  =    0.3604D-08                    26 Fock formations.
              S**2 =  0.0000                  -V/T =  2.0011
 DoSCS=F DFT=T ScalE2(SS,OS)=  1.000000  1.000000
 Range of M.O.s used for correlation:     1   284
 NBasis=   284 NAE=   146 NBE=   146 NFC=     0 NFV=     0
 NROrb=    284 NOA=   146 NOB=   146 NVA=   138 NVB=   138
   1 Symmetry operations used in ECPInt.
 ECPInt:  NShTT=    5886 NPrTT=   35326 LenC2=    4795 LenP2D=   16608.
 LDataN:  DoStor=T MaxTD1= 5 Len=  102
 Symmetrizing basis deriv contribution to polar:
 IMax=3 JMax=2 DiffMx= 0.00D+00
 G2DrvN: will do    11 centers at a time, making    1 passes.
 Calling FoFCou, ICntrl=  3107 FMM=F I1Cent=   0 AccDes= 0.00D+00.
 End of G2Drv F.D. properties file   721 does not exist.
 End of G2Drv F.D. properties file   722 does not exist.
 End of G2Drv F.D. properties file   788 does not exist.
          IDoAtm=1111111111
          Differentiating once with respect to electric field.
                with respect to dipole field.
          Differentiating once with respect to nuclear coordinates.
 Keep R1 ints in memory in canonical form, NReq=1652907510.
          There are    33 degrees of freedom in the 1st order CPHF.  IDoFFX=6 NUNeed=     3.
     30 vectors produced by pass  0 Test12= 6.11D-14 3.03D-09 XBig12= 7.63D+01 2.06D+00.
 AX will form    30 AO Fock derivatives at one time.
     30 vectors produced by pass  1 Test12= 6.11D-14 3.03D-09 XBig12= 5.14D+00 4.91D-01.
     30 vectors produced by pass  2 Test12= 6.11D-14 3.03D-09 XBig12= 2.43D-01 7.63D-02.
     30 vectors produced by pass  3 Test12= 6.11D-14 3.03D-09 XBig12= 1.55D-02 2.77D-02.
     30 vectors produced by pass  4 Test12= 6.11D-14 3.03D-09 XBig12= 4.63D-04 4.55D-03.
     30 vectors produced by pass  5 Test12= 6.11D-14 3.03D-09 XBig12= 1.39D-05 7.82D-04.
     30 vectors produced by pass  6 Test12= 6.11D-14 3.03D-09 XBig12= 1.31D-07 6.53D-05.
     30 vectors produced by pass  7 Test12= 6.11D-14 3.03D-09 XBig12= 1.09D-09 7.06D-06.
      7 vectors produced by pass  8 Test12= 6.11D-14 3.03D-09 XBig12= 7.09D-12 4.76D-07.
      3 vectors produced by pass  9 Test12= 6.11D-14 3.03D-09 XBig12= 4.96D-14 4.63D-08.
      3 vectors produced by pass 10 Test12= 6.11D-14 3.03D-09 XBig12= 6.25D-16 5.98D-09.
 InvSVY:  IOpt=1 It=  1 EMax= 3.55D-15
 Solved reduced A of dimension   253 with    33 vectors.
 Isotropic polarizability for W=    0.000000      147.30 Bohr**3.
 End of Minotr F.D. properties file   721 does not exist.
 End of Minotr F.D. properties file   722 does not exist.
 End of Minotr F.D. properties file   788 does not exist.
   1 Symmetry operations used in ECPInt.
 ECPInt:  NShTT=    5886 NPrTT=   35326 LenC2=    4795 LenP2D=   16608.
 LDataN:  DoStor=T MaxTD1= 6 Len=  172
 Calling FoFJK, ICntrl=    100127 FMM=F ISym2X=0 I1Cent= 0 IOpClX= 0 NMat=1 NMatS=1 NMatT=0.
 ***** Axes restored to original set *****
 -------------------------------------------------------------------
 Center     Atomic                   Forces (Hartrees/Bohr)
 Number     Number              X              Y              Z
 -------------------------------------------------------------------
      1       35           0.000019773   -0.000013762    0.000030696
      2        6           0.004822605    0.000018218    0.000029570
      3       35           0.000000644    0.000009449    0.000008336
      4       35           0.000100303    0.000052820   -0.000080895
      5       35           0.000023461   -0.000000576    0.000017463
      6       35          -0.000002994   -0.000008314    0.000001464
      7        6          -0.004823802    0.000018726   -0.000056359
      8       35          -0.000132094   -0.000074677    0.000017033
      9       35          -0.000001512    0.000004829    0.000039663
     10       35          -0.000006384   -0.000006713   -0.000006972
 -------------------------------------------------------------------
 Cartesian Forces:  Max     0.004823802 RMS     0.001246039
 FormGI is forming the generalized inverse of G from B-inverse, IUseBI=4.

 GradGradGradGradGradGradGradGradGradGradGradGradGradGradGradGradGradGrad
 Berny optimization.
 Using GEDIIS/GDIIS optimizer.
 Internal  Forces:  Max     0.003621691 RMS     0.000557433
 Search for a local minimum.
 Step number   3 out of a maximum of   68
 All quantities printed in internal units (Hartrees-Bohrs-Radians)
 Mixed Optimization -- En-DIIS/RFO-DIIS
 Swapping is turned off.
 Second derivative matrix not updated -- analytic derivatives used.
 DE= -1.73D-05 DEPred=-9.68D-06 R= 1.79D+00
 TightC=F SS=  1.41D+00  RLast= 7.08D-02 DXNew= 8.4853D-01 2.1230D-01
 Trust test= 1.79D+00 RLast= 7.08D-02 DXMaxT set to 5.05D-01
 ITU=  1  1  0
     Eigenvalues ---    0.00111   0.00292   0.00474   0.00754   0.01125
     Eigenvalues ---    0.05132   0.06906   0.07036   0.07930   0.09650
     Eigenvalues ---    0.10867   0.12148   0.14132   0.15141   0.16371
     Eigenvalues ---    0.16756   0.17772   0.18029   0.19608   0.22920
     Eigenvalues ---    0.23432   0.24033   0.269511000.000001000.00000
     Eigenvalues --- 1000.000001000.000001000.000001000.000001000.00000
     Eigenvalues --- 1000.000001000.000001000.000001000.000001000.00000
     Eigenvalues --- 1000.000001000.000001000.000001000.000001000.00000
     Eigenvalues --- 1000.000001000.000001000.000001000.000001000.00000
     Eigenvalues --- 1000.000001000.000001000.000001000.000001000.00000
     Eigenvalues --- 1000.000001000.000001000.000001000.000001000.00000
     Eigenvalues --- 1000.000001000.000001000.00000
 En-DIIS/RFO-DIIS/Sim-DIIS IScMMF=       -3 using points:     3    2    1
 RFO step:  Lambda=-3.36429202D-06.
 DidBck=F Rises=F RFO-DIIS coefs:    0.99944    0.03793   -0.03737
 Iteration  1 RMS(Cart)=  0.00337488 RMS(Int)=  0.00000753
 Iteration  2 RMS(Cart)=  0.00000584 RMS(Int)=  0.00000548
 Iteration  3 RMS(Cart)=  0.00000000 RMS(Int)=  0.00000548
 Iteration  1 RMS(Cart)=  0.00000129 RMS(Int)=  0.00000064
 Iteration  2 RMS(Cart)=  0.00000034 RMS(Int)=  0.00000070
 Variable       Old X    -DE/DX   Delta X   Delta X   Delta X     New X
                                 (Linear)    (Quad)   (Total)
    R1        3.65600   0.00001  -0.00016   0.00015  -0.00002   3.65598
    R2        3.67570  -0.00000   0.00044  -0.00013   0.00031   3.67602
    R3        3.64666   0.00046  -0.00042   0.00042   0.00000   3.64666
    R4        3.66765  -0.00008   0.00007  -0.00011  -0.00004   3.66761
    R5        9.07068   0.00362  -0.00000   0.00000   0.00000   9.07068
    R6        7.07705   0.00058   0.00482  -0.00271   0.00211   7.07916
    R7        7.27913   0.00022   0.00373   0.00693   0.01065   7.28979
    R8        7.08876   0.00054   0.00422  -0.01184  -0.00762   7.08114
    R9        3.67568   0.00001   0.00043  -0.00005   0.00038   3.67606
   R10        3.65595   0.00000  -0.00016   0.00011  -0.00005   3.65590
   R11        3.66790  -0.00007   0.00005  -0.00034  -0.00029   3.66761
   R12        3.64689   0.00044  -0.00043   0.00015  -0.00028   3.64661
    A1        1.89807  -0.00004  -0.00042   0.00023  -0.00018   1.89788
    A2        1.93434  -0.00002   0.00071  -0.00056   0.00015   1.93448
    A3        1.91555  -0.00007   0.00019   0.00008   0.00027   1.91582
    A4        1.90108   0.00029  -0.00037  -0.00002  -0.00038   1.90070
    A5        1.89515   0.00031  -0.00044  -0.00002  -0.00046   1.89469
    A6        1.91903  -0.00047   0.00030   0.00029   0.00058   1.91961
    A7        2.24973   0.00027  -0.00093  -0.00366  -0.00459   2.24514
    A8        1.38933   0.00047  -0.00042  -0.00325  -0.00367   1.38566
    A9        0.86061  -0.00020  -0.00051  -0.00046  -0.00096   0.85965
   A10        1.43578   0.00045  -0.00059   0.00157   0.00097   1.43675
   A11        1.89828  -0.00015  -0.00041  -0.00000  -0.00042   1.89786
   A12        1.89481   0.00037  -0.00043   0.00028  -0.00014   1.89467
   A13        1.90089   0.00032  -0.00035   0.00016  -0.00019   1.90070
   A14        1.91536   0.00004   0.00017   0.00048   0.00065   1.91601
   A15        1.93424   0.00004   0.00070  -0.00052   0.00019   1.93443
   A16        1.91963  -0.00060   0.00030  -0.00038  -0.00010   1.91952
   A17        1.43447   0.00053  -0.00045   0.00317   0.00272   1.43719
   A18        0.85966  -0.00015  -0.00047   0.00037  -0.00009   0.85957
   A19        1.38508   0.00057  -0.00013   0.00064   0.00051   1.38559
   A20        2.24450   0.00042  -0.00060   0.00109   0.00049   2.24499
    D1        1.07829  -0.00001  -0.00057   0.00302   0.00245   1.08074
    D2        1.09874  -0.00001  -0.00027   0.00063   0.00037   1.09912
    D3       -3.11739   0.00012  -0.00088   0.00295   0.00207  -3.11532
    D4       -3.09693   0.00012  -0.00057   0.00057  -0.00000  -3.09694
    D5       -1.04265   0.00039  -0.00146   0.00309   0.00163  -1.04103
    D6       -1.02220   0.00039  -0.00115   0.00070  -0.00045  -1.02265
    D7       -1.07753  -0.00009  -0.00009   0.00289   0.00280  -1.07473
    D8        3.13296  -0.00019   0.00057   0.00258   0.00314   3.13611
    D9        1.05459  -0.00046   0.00110   0.00244   0.00354   1.05813
   D10       -0.54550  -0.00011   0.00033  -0.00226  -0.00193  -0.54743
   D11       -0.57204  -0.00012  -0.00008   0.00084   0.00076  -0.57128
   D12        0.57964  -0.00003   0.00028   0.00052   0.00079   0.58043
   D13       -2.53961   0.00001   0.00049  -0.00312  -0.00264  -2.54225
   D14       -2.58294  -0.00003  -0.00006   0.00290   0.00283  -2.58011
   D15        0.58099   0.00001   0.00015  -0.00074  -0.00060   0.58039
   D16       -0.57111  -0.00009  -0.00019  -0.00008  -0.00026  -0.57137
   D17       -0.54301  -0.00003   0.00006  -0.00463  -0.00457  -0.54758
   D18        3.13715  -0.00025   0.00024  -0.00151  -0.00128   3.13587
   D19       -1.07340  -0.00020  -0.00042  -0.00107  -0.00149  -1.07490
   D20        1.05886  -0.00052   0.00075  -0.00165  -0.00090   1.05796
   D21       -3.09900   0.00016  -0.00035   0.00299   0.00264  -3.09636
   D22       -3.12066   0.00012  -0.00053   0.00649   0.00596  -3.11470
   D23        1.09659   0.00012  -0.00005   0.00321   0.00316   1.09976
   D24        1.07493   0.00008  -0.00023   0.00671   0.00648   1.08142
   D25       -1.02444   0.00045  -0.00091   0.00320   0.00229  -1.02215
   D26       -1.04610   0.00041  -0.00109   0.00670   0.00561  -1.04049
         Item               Value     Threshold  Converged?
 Maximum Force            0.000147     0.000015     NO 
 RMS     Force            0.000049     0.000010     NO 
 Maximum Displacement     0.010696     0.000060     NO 
 RMS     Displacement     0.003377     0.000040     NO 
 Predicted change in Energy=-1.669325D-06
 GradGradGradGradGradGradGradGradGradGradGradGradGradGradGradGradGradGrad

                          Input orientation:                          
 ---------------------------------------------------------------------
 Center     Atomic      Atomic             Coordinates (Angstroms)
 Number     Number       Type             X           Y           Z
 ---------------------------------------------------------------------
      1         35           0        1.664138   -1.835449    0.154613
      2          6           0        2.255269   -0.000185   -0.004408
      3         35           0        4.072195    0.013227   -0.699144
      4         35           0        1.117144    0.985438   -1.211501
      5         35           0        2.256144    0.842980    1.743687
      6         35           0       -4.361855   -0.403926    0.570683
      7          6           0       -2.544723   -0.003417    0.003440
      8         35           0       -1.953689   -1.387650   -1.212012
      9         35           0       -2.545067    1.711800   -0.904748
     10         35           0       -1.406867    0.074887    1.560009
 ---------------------------------------------------------------------
                    Distance matrix (angstroms):
                    1          2          3          4          5
     1  Br   0.000000
     2  C    1.934661   0.000000
     3  Br   3.153607   1.945265   0.000000
     4  Br   3.181646   1.929729   3.152781   0.000000
     5  Br   3.170112   1.940816   3.154989   3.170292   0.000000
     6  Br   6.207654   6.654327   8.539302   5.926714   6.835833
     7  C    4.592788   4.800000   6.654134   3.982862   5.176212
     8  Br   3.893181   4.593331   6.207799   3.880923   5.606653
     9  Br   5.605588   5.175396   6.834879   3.746130   5.551637
    10  Br   3.880154   3.982999   5.926862   3.857590   3.747179
                    6          7          8          9         10
     6  Br   0.000000
     7  C    1.945287   0.000000
     8  Br   3.153567   1.934618   0.000000
     9  Br   3.154982   1.940818   3.170289   0.000000
    10  Br   3.152774   1.929704   3.181530   3.170175   0.000000
 Stoichiometry    C2Br8
 Framework group  C1[X(C2Br8)]
 Deg. of freedom    24
 Full point group                 C1      NOp   1
 Largest Abelian subgroup         C1      NOp   1
 Largest concise Abelian subgroup C1      NOp   1
                         Standard orientation:                         
[...]
     4  35    -0.02   0.00   0.02     0.03  -0.02  -0.04     0.03  -0.02  -0.04
     5  35    -0.01  -0.03   0.03     0.00  -0.01  -0.01     0.00   0.01  -0.02
     6  35     0.03  -0.00   0.00    -0.01  -0.01   0.00     0.00   0.00  -0.01
     7   6    -0.50   0.44   0.23     0.20   0.47  -0.36    -0.24  -0.25   0.69
     8  35     0.02  -0.03   0.01     0.01  -0.04   0.02    -0.01   0.03  -0.02
     9  35     0.01  -0.03  -0.03    -0.00  -0.01   0.00     0.00  -0.01  -0.02
    10  35     0.02   0.00  -0.02    -0.03  -0.02   0.03     0.03   0.02  -0.05

 -------------------
 - Thermochemistry -
 -------------------
 Temperature   298.150 Kelvin.  Pressure   1.00000 Atm.
 Atom     1 has atomic number 35 and mass  78.91834
 Atom     2 has atomic number  6 and mass  12.00000
 Atom     3 has atomic number 35 and mass  78.91834
 Atom     4 has atomic number 35 and mass  78.91834
 Atom     5 has atomic number 35 and mass  78.91834
 Atom     6 has atomic number 35 and mass  78.91834
 Atom     7 has atomic number  6 and mass  12.00000
 Atom     8 has atomic number 35 and mass  78.91834
 Atom     9 has atomic number 35 and mass  78.91834
 Atom    10 has atomic number 35 and mass  78.91834
 Molecular mass:   655.34669 amu.
 Principal axes and moments of inertia in atomic units:
                           1         2         3
     Eigenvalues --  5676.65785********************
           X            1.00000   0.00000   0.00001
           Y           -0.00000   1.00000   0.00000
           Z           -0.00001  -0.00000   1.00000
 This molecule is an asymmetric top.
 Rotational symmetry number  1.
 Warning -- assumption of classical behavior for rotation
           may cause significant error
 Rotational temperatures (Kelvin)      0.01526     0.00448     0.00448
 Rotational constants (GHZ):           0.31792     0.09330     0.09329
 Zero-point vibrational energy      40159.6 (Joules/Mol)
                                    9.59837 (Kcal/Mol)
 Warning -- explicit consideration of  18 degrees of freedom as
           vibrations may cause significant error
 Vibrational temperatures:     26.98    43.54    47.26    61.73    67.47
          (Kelvin)             80.92   188.00   190.68   192.15   200.54
                              274.81   275.01   275.17   277.80   278.53
                              279.19   407.39   407.81   995.75   998.98
                             1010.87  1016.43  1030.04  1033.13
 
 Zero-point correction=                           0.015296 (Hartree/Particle)
 Thermal correction to Energy=                    0.030962
 Thermal correction to Enthalpy=                  0.031907
 Thermal correction to Gibbs Free Energy=        -0.036424
 Sum of electronic and zero-point Energies=         -20667.255727
 Sum of electronic and thermal Energies=            -20667.240061
 Sum of electronic and thermal Enthalpies=          -20667.239117
 Sum of electronic and thermal Free Energies=       -20667.307448
 
                     E (Thermal)             CV                S
                      KCal/Mol        Cal/Mol-Kelvin    Cal/Mol-Kelvin
 Total                   19.429             44.957            143.814
 Electronic               0.000              0.000              0.000
 Translational            0.889              2.981             45.322
 Rotational               0.889              2.981             36.006
 Vibrational             17.652             38.996             62.487
 Vibration     1          0.593              1.986              6.762
 Vibration     2          0.594              1.984              5.812
 Vibration     3          0.594              1.983              5.650
 Vibration     4          0.595              1.980              5.120
 Vibration     5          0.595              1.979              4.944
 Vibration     6          0.596              1.975              4.585
 Vibration     7          0.612              1.923              2.936
 Vibration     8          0.613              1.921              2.909
 Vibration     9          0.613              1.920              2.894
 Vibration    10          0.615              1.914              2.812
 Vibration    11          0.634              1.852              2.218
 Vibration    12          0.634              1.852              2.217
 Vibration    13          0.634              1.852              2.216
 Vibration    14          0.635              1.849              2.198
 Vibration    15          0.635              1.849              2.193
 Vibration    16          0.635              1.848              2.189
 Vibration    17          0.682              1.705              1.515
 Vibration    18          0.682              1.704              1.513
                       Q            Log10(Q)             Ln(Q)
 Total Bot       0.567452D+17         16.753929         38.577348
 Total V=0       0.616005D+24         23.789584         54.777543
 Vib (Bot)       0.521570D+01          0.717313          1.651673
 Vib (Bot)    1  0.110483D+02          1.043297          2.402280
 Vib (Bot)    2  0.684230D+01          0.835202          1.923124
 Vib (Bot)    3  0.630277D+01          0.799532          1.840990
 Vib (Bot)    4  0.482132D+01          0.683166          1.573048
 Vib (Bot)    5  0.440934D+01          0.644374          1.483725
 Vib (Bot)    6  0.367304D+01          0.565026          1.301020
 Vib (Bot)    7  0.155995D+01          0.193109          0.444651
 Vib (Bot)    8  0.153728D+01          0.186752          0.430011
 Vib (Bot)    9  0.152516D+01          0.183316          0.422100
 Vib (Bot)   10  0.145906D+01          0.164072          0.377791
 Vib (Bot)   11  0.104746D+01          0.020136          0.046365
 Vib (Bot)   12  0.104662D+01          0.019791          0.045570
 Vib (Bot)   13  0.104598D+01          0.019525          0.044959
 Vib (Bot)   14  0.103538D+01          0.015098          0.034765
 Vib (Bot)   15  0.103249D+01          0.013885          0.031972
 Vib (Bot)   16  0.102988D+01          0.012786          0.029441
 Vib (Bot)   17  0.677871D+00         -0.168853         -0.388798
 Vib (Bot)   18  0.677077D+00         -0.169362         -0.389971
 Vib (V=0)       0.566197D+08          7.752968         17.851868
 Vib (V=0)    1  0.115596D+02          1.062944          2.447520
 Vib (V=0)    2  0.736055D+01          0.866910          1.996134
 Vib (V=0)    3  0.682257D+01          0.833948          1.920237
 Vib (V=0)    4  0.534718D+01          0.728125          1.676569
 Vib (V=0)    5  0.493760D+01          0.693516          1.596879
 Vib (V=0)    6  0.420692D+01          0.623964          1.436730
 Vib (V=0)    7  0.213812D+01          0.330032          0.759926
 Vib (V=0)    8  0.211654D+01          0.325627          0.749785
 Vib (V=0)    9  0.210503D+01          0.323258          0.744329
 Vib (V=0)   10  0.204235D+01          0.310131          0.714102
 Vib (V=0)   11  0.166067D+01          0.220284          0.507224
 Vib (V=0)   12  0.165992D+01          0.220088          0.506771
 Vib (V=0)   13  0.165935D+01          0.219937          0.506424
 Vib (V=0)   14  0.164978D+01          0.217427          0.500644
 Vib (V=0)   15  0.164718D+01          0.216742          0.499068
 Vib (V=0)   16  0.164484D+01          0.216123          0.497641
 Vib (V=0)   17  0.134232D+01          0.127857          0.294402
 Vib (V=0)   18  0.134168D+01          0.127650          0.293926
 Electronic      0.100000D+01          0.000000          0.000000
 Translational   0.659418D+09          8.819161         20.306868
 Rotational      0.164989D+08          7.217456         16.618807
 ***** Axes restored to original set *****
 -------------------------------------------------------------------
 Center     Atomic                   Forces (Hartrees/Bohr)
 Number     Number              X              Y              Z
 -------------------------------------------------------------------
      1       35          -0.000000270    0.000001620    0.000011283
      2        6           0.004914618    0.000004006   -0.000006522
      3       35           0.000000506   -0.000002552    0.000003039
      4       35           0.000000556   -0.000006064   -0.000004432
      5       35          -0.000001514    0.000009914   -0.000002537
      6       35          -0.000000311    0.000001852   -0.000000902
      7        6          -0.004914690   -0.000004233    0.000006466
      8       35           0.000001512   -0.000006914    0.000006156
      9       35           0.000000204   -0.000005542   -0.000010976
     10       35          -0.000000611    0.000007913   -0.000001575
 -------------------------------------------------------------------
 Cartesian Forces:  Max     0.004914690 RMS     0.001268968

 ----------------------------------------------------------------------

 Electric dipole moment (input orientation):
 (Debye = 10**-18 statcoulomb cm , SI units = C m)
                  (au)            (Debye)         (10**-30 SI)
   Tot        0.164774D-01      0.418814D-01      0.139701D+00
   x          0.607174D-04      0.154328D-03      0.514784D-03
   y         -0.156257D-01     -0.397165D-01     -0.132480D+00
   z         -0.522866D-02     -0.132899D-01     -0.443305D-01

 Dipole polarizability, Alpha (input orientation).
 (esu units = cm**3 , SI units = C**2 m**2 J**-1)
 Alpha(0;0):
               (au)            (10**-24 esu)      (10**-40 SI)
   iso        0.147248D+03      0.218198D+02      0.242778D+02
   aniso      0.357768D+02      0.530158D+01      0.589880D+01
   xx         0.170975D+03      0.253360D+02      0.281900D+02
   yx         0.645060D+00      0.955880D-01      0.106356D+00
   yy         0.135705D+03      0.201093D+02      0.223747D+02
   zx        -0.195437D+01     -0.289608D+00     -0.322232D+00
   zy         0.245392D+00      0.363633D-01      0.404597D-01
   zz         0.135063D+03      0.200142D+02      0.222688D+02

 ----------------------------------------------------------------------

 Dipole orientation:
    35          3.13447516          1.37089351          3.20655004
     6          4.26173998         -0.01912856          0.01856139
    35          7.69038839         -1.28039102          0.42610884
    35          2.10838338         -2.76862337         -1.03143550
    35          4.28046954          2.60685107         -2.54184625
    35         -8.24017438          1.28741872          0.35332613
     6         -4.80880018          0.02097773         -0.01357286
    35         -3.70613117         -1.33199950          3.19877283
    35         -4.80851310         -2.63391429         -2.54397833
    35         -2.64683755          2.75765706         -1.07882142

 Electric dipole moment (dipole orientation):
 (Debye = 10**-18 statcoulomb cm , SI units = C m)
                  (au)            (Debye)         (10**-30 SI)
   Tot        0.164774D-01      0.418814D-01      0.139701D+00
   x          0.000000D+00      0.000000D+00      0.000000D+00
   y          0.000000D+00      0.000000D+00      0.000000D+00
   z          0.164774D-01      0.418814D-01      0.139701D+00

 Dipole polarizability, Alpha (dipole orientation).
 (esu units = cm**3 , SI units = C**2 m**2 J**-1)
 Alpha(0;0):
               (au)            (10**-24 esu)      (10**-40 SI)
   iso        0.147248D+03      0.218198D+02      0.242778D+02
   aniso      0.357768D+02      0.530158D+01      0.589880D+01
   xx         0.170964D+03      0.253342D+02      0.281881D+02
   yx        -0.215349D+01     -0.319114D+00     -0.355062D+00
   yy         0.134991D+03      0.200036D+02      0.222570D+02
   zx         0.138085D+00      0.204622D-01      0.227672D-01
   zy        -0.107526D-01     -0.159337D-02     -0.177286D-02
   zz         0.135788D+03      0.201217D+02      0.223884D+02

 ----------------------------------------------------------------------
 1\1\GINC-C013\Freq\RwB97XD\def2SVPP\C2Br8\PETERCHAO1\26-Sep-2022\0\\# 
 opt=(calcall,tight,modredundant) wb97xd scf=(qc,verytight) def2svpp in
 t=grid=ultrafine\\dimer\\0,1\Br,1.6630040023,-1.8349326516,0.155614846
 1\C,2.2552554744,-0.000120042,-0.0044057878\Br,4.0721645527,0.01197411
 12,-0.6990875296\Br,1.1175720804,0.9854819576,-1.2120519382\Br,2.25648
 77696,0.8438111587,1.7433551415\Br,-4.3615857657,-0.4050652999,0.57065
 92059\C,-2.5447371533,-0.0034617691,0.0034293232\Br,-1.9530726947,-1.3
 867469558,-1.2127951586\Br,-2.5457926723,1.7121819381,-0.9039527351\Br
 ,-1.4066063435,0.074581653,1.5598537326\\Version=ES64L-G16RevB.01\Stat
 e=1-A\HF=-20667.2710234\RMSD=3.225e-10\RMSF=1.269e-03\ZeroPoint=0.0152
 96\Thermal=0.0309625\Dipole=0.0000607,-0.0156257,-0.0052287\DipoleDeri
 v=-0.1389175,-0.1419729,0.0127582,-0.1765896,-0.4988876,0.0384717,0.01
 66693,0.0321282,-0.0720677,1.1021331,0.0081897,-0.0174894,-0.0113084,0
 .9186249,0.0125853,0.0124922,0.0258205,0.9182383,-0.6029391,-0.0063777
 ,0.178346,0.003462,-0.0666559,-0.0011219,0.1848975,-0.0021477,-0.13293
 49,-0.2273979,0.1420372,-0.1822892,0.1679064,-0.1911535,0.1434512,-0.2
 383532,0.138951,-0.2411174,-0.1360972,-0.0041034,0.0082258,-0.0052591,
 -0.1624734,-0.190913,0.019211,-0.1969432,-0.4721855,-0.6032872,-0.1005
 036,0.1475691,-0.1121898,-0.0914895,0.0314741,0.1472554,0.0324791,-0.1
 083102,1.1050534,0.0043912,-0.0187054,0.0024752,0.937093,0.0013807,0.0
 162388,-0.0115778,0.8999352,-0.1417017,0.1075485,0.0939327,0.1352659,-
 0.3153162,-0.2177248,0.1158721,-0.2112661,-0.2560626,-0.135832,-0.0015
 837,0.0090723,-0.007083,-0.456411,0.2024921,0.0186011,0.2081967,-0.177
 9102,-0.221014,-0.0076253,-0.2314201,0.0033203,-0.0733309,-0.0200955,-
 0.2928841,-0.0156408,-0.357585\Polar=170.975476,0.6450598,135.7045184,
 -1.9543718,0.2453919,135.0625989\PG=C01 [X(C2Br8)]\NImag=0\\0.05175879
 ,0.04265462,0.16085830,-0.00379941,-0.01077262,0.03114406,-0.03220121,
 -0.02647437,0.00236128,0.20954435,-0.02746226,-0.10446446,0.00701474,-
 0.00129200,0.21544269,0.00239395,0.00673352,-0.02423360,0.00420145,-0.
 00300864,0.21173665,-0.01816074,-0.01516512,0.00805685,-0.09632824,-0.
 00051919,0.02796095,0.15232667,-0.02127554,-0.00881387,0.00779589,-0.0
 0053236,-0.02309933,0.00013374,0.00076920,0.02993800,0.00763964,0.0053
 5642,0.00121290,0.02806652,0.00011596,-0.03378725,-0.04709395,-0.00048
 966,0.04779040,0.00342957,0.00344630,-0.00110260,-0.05631005,0.0289143
 2,-0.03612455,-0.02973554,0.01315939,-0.00931166,0.09094564,0.00886506
 ,-0.02459810,0.01602158,0.02796495,-0.04774847,0.03000903,0.00986915,0
 .00056352,0.00213386,-0.04416334,0.06934854,-0.00299439,0.01234150,-0.
 00265776,-0.03467418,0.02972549,-0.06020779,-0.00371075,0.00090179,0.0
 0397622,0.05617798,-0.04800592,0.08852124,0.00239837,-0.00622732,-0.00
 482140,-0.02389137,-0.00009050,0.00039552,-0.00791138,0.00786077,0.020
 93374,-0.00089206,-0.00090576,-0.01455961,0.03472827,-0.00506291,-0.02
 264166,-0.01955176,-0.00027991,-0.03978027,-0.03394515,0.00486086,0.00
 142977,-0.00708344,0.00084020,0.00482674,0.00448171,0.00053867,0.05618
 118,-0.00270399,-0.01331852,-0.00443330,-0.00013760,-0.03391269,-0.092
 79644,0.01485316,-0.00834091,-0.01927461,-0.01067789,-0.00055502,-0.02
 862174,-0.00065669,0.05632809,0.14477608,-0.00005991,-0.00006140,0.000
 05122,0.00051285,-0.00008283,-0.00036296,-0.00021067,0.00001603,0.0001
 1588,0.00011724,0.00007133,-0.00011425,-0.00054748,-0.00004436,0.00014
 923,0.15242907,-0.00001155,0.00016837,0.00001479,0.00002487,-0.0002988
 0,0.00010881,-0.00008167,0.00005923,-0.00001573,0.00025629,0.00005174,
 -0.00021312,-0.00007402,0.00002517,0.00004421,0.02727854,0.03574273,0.
 00004266,0.00009603,0.00008961,-0.00007428,-0.00012527,-0.00057390,0.0
 0008413,0.00001200,0.00006428,-0.00008684,-0.00005652,0.00025868,-0.00
 019209,0.00005131,0.00022456,-0.03844641,-0.00838047,0.04200374,0.0004
 3346,0.00007911,-0.00006464,-0.00136076,0.00007477,-0.00034274,0.00052
 542,0.00001424,-0.00006901,0.00071727,-0.00043409,0.00010355,-0.000683
 06,-0.00021503,0.00009509,-0.09640914,-0.01625306,0.02293757,0.2090937
 5,-0.00023044,-0.00110688,0.00001321,0.00015188,0.00209309,-0.00114818
 ,0.00028623,-0.00040541,0.00025220,-0.00085538,-0.00071868,0.00112904,
 -0.00025464,-0.00025635,-0.00007413,-0.01616481,-0.02673219,0.00508040
 ,-0.00160498,0.21127941,0.00018143,-0.00041000,-0.00049946,-0.00027571
 ,0.00022250,0.00332793,-0.00024539,0.00001767,-0.00047025,0.00023171,0
 .00063877,-0.00163120,0.00079938,-0.00036771,-0.00135843,0.02285674,0.
 00509656,-0.03013505,0.00424797,0.00285169,0.21622915,-0.00512693,0.00
 087653,-0.00203057,0.00042605,0.00015058,0.00026785,-0.00006420,-0.000
 03457,0.00004885,-0.00369414,-0.00285760,-0.00020298,0.00006999,0.0000
 5939,-0.00001293,-0.01817877,0.01265577,0.01880299,-0.03214482,0.02070
 469,0.01811454,0.05262920,0.00084492,0.00069303,0.00046558,-0.00005777
 ,-0.00110779,-0.00002196,0.00001758,0.00019322,-0.00001847,-0.00241055
 ,-0.00177086,-0.00037960,0.00008104,0.00022726,0.00027394,0.00744669,0
 .00097287,-0.00553050,0.02007220,-0.06965171,-0.04027090,-0.03187003,0
 .10572994,-0.00220529,0.00079393,-0.00054846,-0.00010190,-0.00041277,-
 0.00052001,0.00007462,0.00005584,0.00006683,0.00006273,-0.00014226,0.0
 0031383,0.00010403,0.00026267,0.00038374,0.01550013,-0.00798725,-0.008
 61037,0.01761118,-0.04053213,-0.05891465,-0.02817367,0.06527137,0.0868
 2785,0.00006993,-0.00012711,0.00003698,-0.00068141,-0.00026670,0.00079
 066,-0.00054579,0.00017304,-0.00011061,-0.00342083,0.00192449,-0.00110
 078,0.00011198,-0.00000369,0.00003137,-0.00791869,-0.01872277,0.012218
 19,-0.02387242,-0.00013155,0.00035310,0.00240207,0.00791252,-0.0001886
 0,0.03478947,-0.00004965,0.00053906,-0.00015528,0.00012078,-0.00085105
 ,0.00073534,-0.00005169,0.00013993,-0.00011268,0.00117884,0.00002075,-
 0.00045177,-0.00001619,0.00009772,-0.00010259,-0.01270909,-0.01320025,
 0.01155087,0.00027224,-0.09067341,0.03537496,0.00568122,-0.03192743,-0
 .00068963,-0.00008663,0.14087992,-0.00004928,-0.00016020,0.00007212,0.
 00019851,0.00044562,-0.00075734,0.00014620,-0.00010569,0.00010890,-0.0
 0034341,-0.00032772,0.00079419,0.00002808,0.00002124,0.00020848,0.0090
 8675,0.01279460,-0.00464608,0.00012118,0.03536624,-0.04198960,0.000828
 72,-0.00689552,0.00486154,-0.00088628,-0.05898908,0.06004584,-0.002541
 33,0.00099876,0.00131229,0.00028978,0.00057381,0.00081986,0.00010446,-
 0.00015020,-0.00021939,-0.00115710,-0.00033419,0.00107541,-0.00338326,
 -0.00069323,-0.00093976,-0.02973450,-0.00507241,-0.01528592,-0.0562997
 0,-0.00190100,-0.04626378,0.00368155,-0.00203660,-0.00268322,-0.000934
 32,0.00566019,-0.00913046,0.08997442,0.00172775,-0.00063381,-0.0008461
 3,0.00037394,-0.00018562,0.00040348,0.00001465,-0.00000505,-0.00013849
 ,-0.00036606,0.00002480,0.00047086,-0.00091207,-0.00010957,-0.00034237
 ,-0.00575011,0.00321112,-0.00269785,-0.00200540,-0.02382788,-0.0031535
 5,-0.00536598,-0.00335852,-0.01661976,0.00932840,-0.00502525,0.0178505
 2,0.00295488,0.02990977,0.00149467,-0.00066007,-0.00014613,0.00043591,
 -0.00006496,-0.00218825,-0.00012582,0.00001932,0.00031257,0.00117453,0
 .00028421,-0.00074567,-0.00203096,-0.00019696,0.00089166,-0.00883632,-
 0.00146239,0.00132452,-0.04464014,-0.00293835,-0.08455843,-0.00764281,
 -0.01289394,-0.02386032,-0.01114403,0.01283986,-0.01869805,0.07131497,
 0.00507328,0.12766809\\0.00000027,-0.00000162,-0.00001128,-0.00491462,
 -0.00000401,0.00000652,-0.00000051,0.00000255,-0.00000304,-0.00000056,
 0.00000606,0.00000443,0.00000151,-0.00000991,0.00000254,0.00000031,-0.
 00000185,0.00000090,0.00491469,0.00000423,-0.00000647,-0.00000151,0.00
 000691,-0.00000616,-0.00000020,0.00000554,0.00001098,0.00000061,-0.000
 00791,0.00000158\\\@


 THE FIRST AND LAST THING REQUIRED OF GENIUS IS THE LOVE OF TRUTH.

                          -- GOETHE
 Job cpu time:       0 days  2 hours 50 minutes 33.4 seconds.
 Elapsed time:       0 days  0 hours 24 minutes 16.9 seconds.
 File lengths (MBytes):  RWF=    156 Int=      0 D2E=      0 Chk=      7 Scr=      1
 Normal termination of Gaussian 16 at Mon Sep 26 15:34:19 2022.
real 1497.02
user 10165.69
sys 67.85
