 Entering Gaussian System, Link 0=g16
 Input=gaussian_test.inp
 Output=gaussian_test.log
 Initial command:
 /sw/restricted/lms/sw/Gaussian/g16_B01/g16/l1.exe "/scratch/user/peterchao1/peterchao1/7003911_1675700111000000137378233/Gau-55700.inp" -scrdir="/scratch/user/peterchao1/peterchao1/7003911_1675700111000000137378233/"
 Entering Link 1 = /sw/restricted/lms/sw/Gaussian/g16_B01/g16/l1.exe PID=     55701.
  
 Copyright (c) 1988-2017, Gaussian, Inc.  All Rights Reserved.
  
 This is part of the Gaussian(R) 16 program.  It is based on
 the Gaussian(R) 09 system (copyright 2009, Gaussian, Inc.),
 the Gaussian(R) 03 system (copyright 2003, Gaussian, Inc.),
 the Gaussian(R) 98 system (copyright 1998, Gaussian, Inc.),
 the Gaussian(R) 94 system (copyright 1995, Gaussian, Inc.),
 the Gaussian 92(TM) system (copyright 1992, Gaussian, Inc.),
 the Gaussian 90(TM) system (copyright 1990, Gaussian, Inc.),
 the Gaussian 88(TM) system (copyright 1988, Gaussian, Inc.),
 the Gaussian 86(TM) system (copyright 1986, Carnegie Mellon
 University), and the Gaussian 82(TM) system (copyright 1983,
 Carnegie Mellon University). Gaussian is a federally registered
 trademark of Gaussian, Inc.
  
 This software contains proprietary and confidential information,
 including trade secrets, belonging to Gaussian, Inc.
  
 This software is provided under written license and may be
 used, copied, transmitted, or stored only in accord with that
 written license.
  
 The following legend is applicable only to US Government
 contracts under FAR:
  
                    RESTRICTED RIGHTS LEGEND
  
 Use, reproduction and disclosure by the US Government is
 subject to restrictions as set forth in subparagraphs (a)
 and (c) of the Commercial Computer Software - Restricted
 Rights clause in FAR 52.227-19.
  
 Gaussian, Inc.
 340 Quinnipiac St., Bldg. 40, Wallingford CT 06492
  
  
 ---------------------------------------------------------------
 Warning -- This program may not be used in any manner that
 competes with the business of Gaussian, Inc. or will provide
 assistance to any competitor of Gaussian, Inc.  The licensee
 of this program is prohibited from giving any competitor of
 Gaussian, Inc. access to this program.  By using this program,
 the user acknowledges that Gaussian, Inc. is engaged in the
 business of creating and licensing software in the field of
 computational chemistry and represents and warrants to the
 licensee that it is not a competitor of Gaussian, Inc. and that
 it will not use this program in any manner prohibited above.
 ---------------------------------------------------------------
  

 Cite this work as:
 Gaussian 16, Revision B.01,
 M. J. Frisch, G. W. Trucks, H. B. Schlegel, G. E. Scuseria, 
 M. A. Robb, J. R. Cheeseman, G. Scalmani, V. Barone, 
 G. A. Petersson, H. Nakatsuji, X. Li, M. Caricato, A. V. Marenich, 
 J. Bloino, B. G. Janesko, R. Gomperts, B. Mennucci, H. P. Hratchian, 
 J. V. Ortiz, A. F. Izmaylov, J. L. Sonnenberg, D. Williams-Young, 
 F. Ding, F. Lipparini, F. Egidi, J. Goings, B. Peng, A. Petrone, 
 T. Henderson, D. Ranasinghe, V. G. Zakrzewski, J. Gao, N. Rega, 
 G. Zheng, W. Liang, M. Hada, M. Ehara, K. Toyota, R. Fukuda, 
 J. Hasegawa, M. Ishida, T. Nakajima, Y. Honda, O. Kitao, H. Nakai, 
 T. Vreven, K. Throssell, J. A. Montgomery, Jr., J. E. Peralta, 
 F. Ogliaro, M. J. Bearpark, J. J. Heyd, E. N. Brothers, K. N. Kudin, 
 V. N. Staroverov, T. A. Keith, R. Kobayashi, J. Normand, 
 K. Raghavachari, A. P. Rendell, J. C. Burant, S. S. Iyengar, 
 J. Tomasi, M. Cossi, J. M. Millam, M. Klene, C. Adamo, R. Cammi, 
 J. W. Ochterski, R. L. Martin, K. Morokuma, O. Farkas, 
 J. B. Foresman, and D. J. Fox, Gaussian, Inc., Wallingford CT, 2016.
 
 ******************************************
 Gaussian 16:  ES64L-G16RevB.01 20-Dec-2017
                 6-Feb-2023 
 ******************************************
 %nprocshared=4
 Will use up to    4 processors via shared memory.
 %mem=8000mb
 %chk=35.chk
 %nprocshared=4
 Will use up to    4 processors via shared memory.
 %mem=8000mb
 ----------------------------------------------------------------------
 #T wB97XD/def2svpp opt=tight freq int(grid=ultrafine) scf=(verytight,q
 c) Volume=tight
 ----------------------------------------------------------------------
 -------
 Monomer
 -------
 Symbolic Z-matrix:
 Charge =  0 Multiplicity = 1
 C                     0.8577   -1.44727  -1.37379 
 C                     0.06765  -0.52598  -0.44369 
 C                    -1.15931   0.04792  -1.18561 
 O                    -1.94134   0.90817  -0.39727 
 C                    -0.3926   -1.31439   0.80943 
 O                    -1.01053  -0.51522   1.77409 
 C                     0.94549   0.61683   0.03893 
 O                     2.11723   0.20487   0.51291 
 O                     0.63013   1.7811    0.0179 
 H                     1.17545  -0.9074   -2.26308 
 H                     0.23442  -2.28361  -1.68063 
 H                     1.73698  -1.83249  -0.86555 
 H                    -1.81626  -0.77413  -1.48279 
 H                    -0.8174    0.56449  -2.09321 
 H                    -1.38445   1.67196  -0.17637 
 H                     0.47638  -1.76769   1.29425 
 H                    -1.06629  -2.11807   0.47369 
 H                    -1.71821  -0.01621   1.33165 
 H                     2.62491   0.95672   0.85804 
 

 GradGradGradGradGradGradGradGradGradGradGradGradGradGradGradGradGradGrad
 Initialization pass.
                           ----------------------------
                           !    Initial Parameters    !
                           ! (Angstroms and Degrees)  !
 --------------------------                            --------------------------
 ! Name  Definition              Value          Derivative Info.                !
 --------------------------------------------------------------------------------
 ! R1    R(1,2)                  1.5291         estimate D2E/DX2                !
 ! R2    R(1,10)                 1.0878         estimate D2E/DX2                !
 ! R3    R(1,11)                 1.0872         estimate D2E/DX2                !
 ! R4    R(1,12)                 1.0862         estimate D2E/DX2                !
 ! R5    R(2,3)                  1.5444         estimate D2E/DX2                !
 ! R6    R(2,5)                  1.5504         estimate D2E/DX2                !
 ! R7    R(2,7)                  1.5197         estimate D2E/DX2                !
 ! R8    R(3,4)                  1.4047         estimate D2E/DX2                !
 ! R9    R(3,13)                 1.0935         estimate D2E/DX2                !
 ! R10   R(3,14)                 1.0989         estimate D2E/DX2                !
 ! R11   R(4,15)                 0.9707         estimate D2E/DX2                !
 ! R12   R(5,6)                  1.3968         estimate D2E/DX2                !
 ! R13   R(5,16)                 1.0935         estimate D2E/DX2                !
 ! R14   R(5,17)                 1.1011         estimate D2E/DX2                !
 ! R15   R(6,18)                 0.9724         estimate D2E/DX2                !
 ! R16   R(7,8)                  1.3294         estimate D2E/DX2                !
 ! R17   R(7,9)                  1.2064         estimate D2E/DX2                !
 ! R18   R(8,19)                 0.9706         estimate D2E/DX2                !
 ! A1    A(2,1,10)             110.4373         estimate D2E/DX2                !
 ! A2    A(2,1,11)             109.8132         estimate D2E/DX2                !
 ! A3    A(2,1,12)             110.3235         estimate D2E/DX2                !
 ! A4    A(10,1,11)            108.5729         estimate D2E/DX2                !
 ! A5    A(10,1,12)            108.7882         estimate D2E/DX2                !
 ! A6    A(11,1,12)            108.8628         estimate D2E/DX2                !
 ! A7    A(1,2,3)              110.0087         estimate D2E/DX2                !
 ! A8    A(1,2,5)              109.7937         estimate D2E/DX2                !
 ! A9    A(1,2,7)              110.3531         estimate D2E/DX2                !
 ! A10   A(3,2,5)              109.9621         estimate D2E/DX2                !
 ! A11   A(3,2,7)              109.3918         estimate D2E/DX2                !
 ! A12   A(5,2,7)              107.2895         estimate D2E/DX2                !
 ! A13   A(2,3,4)              113.5948         estimate D2E/DX2                !
 ! A14   A(2,3,13)             109.1781         estimate D2E/DX2                !
 ! A15   A(2,3,14)             108.9211         estimate D2E/DX2                !
 ! A16   A(4,3,13)             106.1682         estimate D2E/DX2                !
 ! A17   A(4,3,14)             110.4186         estimate D2E/DX2                !
 ! A18   A(13,3,14)            108.4133         estimate D2E/DX2                !
 ! A19   A(3,4,15)             106.8697         estimate D2E/DX2                !
 ! A20   A(2,5,6)              113.489          estimate D2E/DX2                !
 ! A21   A(2,5,16)             109.4672         estimate D2E/DX2                !
 ! A22   A(2,5,17)             107.8386         estimate D2E/DX2                !
 ! A23   A(6,5,16)             106.4121         estimate D2E/DX2                !
 ! A24   A(6,5,17)             110.9467         estimate D2E/DX2                !
 ! A25   A(16,5,17)            108.5924         estimate D2E/DX2                !
 ! A26   A(5,6,18)             107.5377         estimate D2E/DX2                !
 ! A27   A(2,7,8)              112.9127         estimate D2E/DX2                !
 ! A28   A(2,7,9)              124.6934         estimate D2E/DX2                !
 ! A29   A(8,7,9)              122.3896         estimate D2E/DX2                !
 ! A30   A(7,8,19)             110.3494         estimate D2E/DX2                !
 ! D1    D(10,1,2,3)            58.156          estimate D2E/DX2                !
 ! D2    D(10,1,2,5)           179.3004         estimate D2E/DX2                !
 ! D3    D(10,1,2,7)           -62.639          estimate D2E/DX2                !
 ! D4    D(11,1,2,3)           -61.55           estimate D2E/DX2                !
 ! D5    D(11,1,2,5)            59.5945         estimate D2E/DX2                !
 ! D6    D(11,1,2,7)           177.655          estimate D2E/DX2                !
 ! D7    D(12,1,2,3)           178.4567         estimate D2E/DX2                !
 ! D8    D(12,1,2,5)           -60.3989         estimate D2E/DX2                !
 ! D9    D(12,1,2,7)            57.6617         estimate D2E/DX2                !
 ! D10   D(1,2,3,4)           -179.994          estimate D2E/DX2                !
 ! D11   D(1,2,3,13)            61.7357         estimate D2E/DX2                !
 ! D12   D(1,2,3,14)           -56.4777         estimate D2E/DX2                !
 ! D13   D(5,2,3,4)             58.9626         estimate D2E/DX2                !
 ! D14   D(5,2,3,13)           -59.3077         estimate D2E/DX2                !
 ! D15   D(5,2,3,14)          -177.5212         estimate D2E/DX2                !
 ! D16   D(7,2,3,4)            -58.6226         estimate D2E/DX2                !
 ! D17   D(7,2,3,13)          -176.8929         estimate D2E/DX2                !
 ! D18   D(7,2,3,14)            64.8937         estimate D2E/DX2                !
 ! D19   D(1,2,5,6)            174.1255         estimate D2E/DX2                !
 ! D20   D(1,2,5,16)            55.4162         estimate D2E/DX2                !
 ! D21   D(1,2,5,17)           -62.5528         estimate D2E/DX2                !
 ! D22   D(3,2,5,6)            -64.702          estimate D2E/DX2                !
 ! D23   D(3,2,5,16)           176.5887         estimate D2E/DX2                !
 ! D24   D(3,2,5,17)            58.6196         estimate D2E/DX2                !
 ! D25   D(7,2,5,6)             54.1811         estimate D2E/DX2                !
 ! D26   D(7,2,5,16)           -64.5283         estimate D2E/DX2                !
 ! D27   D(7,2,5,17)           177.5027         estimate D2E/DX2                !
 ! D28   D(1,2,7,8)            -49.5184         estimate D2E/DX2                !
 ! D29   D(1,2,7,9)            131.2203         estimate D2E/DX2                !
 ! D30   D(3,2,7,8)           -170.6813         estimate D2E/DX2                !
 ! D31   D(3,2,7,9)             10.0574         estimate D2E/DX2                !
 ! D32   D(5,2,7,8)             70.0686         estimate D2E/DX2                !
 ! D33   D(5,2,7,9)           -109.1927         estimate D2E/DX2                !
 ! D34   D(2,3,4,15)            63.6779         estimate D2E/DX2                !
 ! D35   D(13,3,4,15)         -176.3307         estimate D2E/DX2                !
 ! D36   D(14,3,4,15)          -59.0173         estimate D2E/DX2                !
 ! D37   D(2,5,6,18)            52.4668         estimate D2E/DX2                !
 ! D38   D(16,5,6,18)          172.9189         estimate D2E/DX2                !
 ! D39   D(17,5,6,18)          -69.1346         estimate D2E/DX2                !
 ! D40   D(2,7,8,19)          -176.6591         estimate D2E/DX2                !
 ! D41   D(9,7,8,19)             2.6216         estimate D2E/DX2                !
 --------------------------------------------------------------------------------
 Number of steps in this run=     99 maximum allowed number of steps=    114.
 GradGradGradGradGradGradGradGradGradGradGradGradGradGradGradGradGradGrad

                    Distance matrix (angstroms):
                    1          2          3          4          5
     1  C    0.000000
     2  C    1.529064   0.000000
     3  C    2.517802   1.544422   0.000000
     4  O    3.786330   2.468802   1.404663   0.000000
     5  C    2.519393   1.550398   2.534544   2.965555   0.000000
     6  O    3.777317   2.465994   3.016464   2.758122   1.396813
     7  C    2.502795   1.519713   2.500669   2.934100   2.472602
     8  O    2.806360   2.376974   3.693960   4.218418   2.948785
     9  O    3.522917   2.419098   2.766662   2.747140   3.354776
    10  H    1.087779   2.163996   2.743119   4.061025   3.473432
    11  H    1.087237   2.155717   2.761083   4.070436   2.744623
    12  H    1.086204   2.161385   3.467977   4.610913   2.758454
    13  H    2.759539   2.165742   1.093462   2.006023   2.751904
    14  H    2.714902   2.166418   1.098862   2.063390   3.483674
    15  H    4.023757   2.647827   1.925293   0.970717   3.297554
    16  H    2.714134   2.174708   3.481612   3.983321   1.093457
    17  H    2.750431   2.159204   2.730095   3.268397   1.101128
    18  H    4.000332   2.569243   2.579354   1.973177   1.927498
    19  H    3.726032   3.229934   4.395765   4.735901   3.776993
                    6          7          8          9         10
     6  O    0.000000
     7  C    2.849267   0.000000
     8  O    3.448476   1.329413   0.000000
     9  O    3.324003   1.206409   2.222837   0.000000
    10  H    4.607714   2.770446   3.135316   3.567666   0.000000
    11  H    4.075810   3.446019   3.814335   4.423057   1.765995
    12  H    4.031338   2.728310   2.489095   3.881187   1.767538
    13  H    3.365039   3.446399   4.518145   3.842661   3.094669
    14  H    4.019836   2.767049   3.941228   2.834125   2.483298
    15  H    2.954293   2.566765   3.858655   2.026859   4.190528
    16  H    2.002455   2.735297   2.682150   3.774470   3.726045
    17  H    2.064773   3.422856   3.941119   4.276571   3.739121
    18  H    0.972408   3.027738   3.928085   3.235883   4.699956
    19  H    4.027674   1.899187   0.970635   2.316157   3.913726
                   11         12         13         14         15
    11  H    0.000000
    12  H    1.767919   0.000000
    13  H    2.554017   3.758541   0.000000
    14  H    3.064021   3.711807   1.778267   0.000000
    15  H    4.531014   4.743357   2.806516   2.285240   0.000000
    16  H    3.028969   2.501611   3.735682   4.311363   4.178111
    17  H    2.521977   3.119844   2.489266   3.721162   3.858513
    18  H    4.245911   4.479387   2.916353   3.588644   2.288108
    19  H    4.760153   3.396897   5.310304   4.551180   4.201964
                   16         17         18         19
    16  H    0.000000
    17  H    1.782107   0.000000
    18  H    2.808081   2.361974   0.000000
    19  H    3.496990   4.819444   4.475892   0.000000
 Framework group  C1[X(C5H10O4)]
 Deg. of freedom    51
                         Standard orientation:                         
 ---------------------------------------------------------------------
 Center     Atomic      Atomic             Coordinates (Angstroms)
 Number     Number       Type             X           Y           Z
 ---------------------------------------------------------------------
      1          6           0       -0.905210    1.627467   -1.021401
      2          6           0       -0.086602    0.555169   -0.301613
      3          6           0        1.157938    0.189152   -1.139702
      4          8           0        1.966623   -0.793797   -0.545632
      5          6           0        0.348409    1.074670    1.092882
      6          8           0        0.991135    0.109065    1.871082
      7          6           0       -0.928010   -0.690320   -0.077300
      8          8           0       -2.112214   -0.424168    0.465067
      9          8           0       -0.576070   -1.813553   -0.341700
     10          1           0       -1.205681    1.278249   -2.006809
     11          1           0       -0.308597    2.528565   -1.140387
     12          1           0       -1.796263    1.869269   -0.449216
     13          1           0        1.788664    1.075281   -1.252036
     14          1           0        0.832593   -0.134172   -2.138256
     15          1           0        1.434079   -1.603804   -0.494870
     16          1           0       -0.534485    1.388253    1.656632
     17          1           0        0.996452    1.951523    0.939093
     18          1           0        1.714258   -0.263097    1.338008
     19          1           0       -2.595959   -1.247263    0.640108
 ---------------------------------------------------------------------
 Rotational constants (GHZ):           1.8638839           1.4834702           1.4100926
   146 basis functions,   265 primitive gaussians,   155 cartesian basis functions
    36 alpha electrons       36 beta electrons
       nuclear repulsion energy       517.3368046631 Hartrees.
 NAtoms=   19 NActive=   19 NUniq=   19 SFac= 1.00D+00 NAtFMM=   60 NAOKFM=F Big=F
 Nuclear repulsion after empirical dispersion term =      517.3244672049 Hartrees.
   1 Symmetry operations used in ECPInt.
 ECPInt:  NShTT=    2775 NPrTT=   11173 LenC2=    2754 LenP2D=    8789.
 LDataN:  DoStor=T MaxTD1= 4 Len=   56
 ExpMin= 1.22D-01 ExpMax= 2.27D+03 ExpMxC= 3.41D+02 IAcc=3 IRadAn=         5 AccDes= 0.00D+00
 Harris functional with IExCor= 4639 and IRadAn=       5 diagonalized for initial guess.
 HarFok:  IExCor= 4639 AccDes= 0.00D+00 IRadAn=         5 IDoV= 1 UseB2=F ITyADJ=14
 ICtDFT=  3500011 ScaDFX=  1.000000  1.000000  1.000000  1.000000
 FoFCou: FMM=F IPFlag=           0 FMFlag=      100000 FMFlg1=           0
         NFxFlg=           0 DoJE=T BraDBF=F KetDBF=T FulRan=T
         wScrn=  0.000000 ICntrl=       500 IOpCl=  0 I1Cent=   200000004 NGrid=           0
         NMat0=    1 NMatS0=      1 NMatT0=    0 NMatD0=    1 NMtDS0=    0 NMtDT0=    0
 Petite list used in FoFCou.
     Accept linear search using points  2 and  3.
     Minimum is close to point  2 DX=  5.20D-02 DF= -8.58D-06 DXR=  7.97D-02 DFR=  6.40D-03 which will be used.
     Minimum is close to point  2 DX=  6.08D-02 DF= -1.84D-06 DXR=  7.99D-02 DFR=  6.43D-03 which will be used.
     Accept linear search using points  1 and  2.
     Accept linear search using points  2 and  3.
     Minimum is close to point  2 DX=  7.77D-06 DF=  0.00D+00 DXR=  7.77D-06 DFR=  0.00D+00 which will be used.
 SCF Done:  E(RwB97XD) =  -496.908054440     a.u. after    8 cycles
            Convg  =    0.6183D-09                    38 Fock formations.
              S**2 =  0.0000                  -V/T =  2.0079

 **********************************************************************

            Population analysis using the SCF Density.

 **********************************************************************

 Orbital symmetries:
       Occupied  (A) (A) (A) (A) (A) (A) (A) (A) (A) (A) (A) (A)
                 (A) (A) (A) (A) (A) (A) (A) (A) (A) (A) (A) (A)
                 (A) (A) (A) (A) (A) (A) (A) (A) (A) (A) (A) (A)
       Virtual   (A) (A) (A) (A) (A) (A) (A) (A) (A) (A) (A) (A)
                 (A) (A) (A) (A) (A) (A) (A) (A) (A) (A) (A) (A)
                 (A) (A) (A) (A) (A) (A) (A) (A) (A) (A) (A) (A)
                 (A) (A) (A) (A) (A) (A) (A) (A) (A) (A) (A) (A)
                 (A) (A) (A) (A) (A) (A) (A) (A) (A) (A) (A) (A)
                 (A) (A) (A) (A) (A) (A) (A) (A) (A) (A) (A) (A)
                 (A) (A) (A) (A) (A) (A) (A) (A) (A) (A) (A) (A)
                 (A) (A) (A) (A) (A) (A) (A) (A) (A) (A) (A) (A)
                 (A) (A) (A) (A) (A) (A) (A) (A) (A) (A) (A) (A)
                 (A) (A)
 The electronic state is 1-A.
 Alpha  occ. eigenvalues --  -19.31941 -19.26357 -19.25857 -19.23819 -10.44601
 Alpha  occ. eigenvalues --  -10.34894 -10.34287 -10.32815 -10.29983  -1.22383
 Alpha  occ. eigenvalues --   -1.13553  -1.11942  -1.10325  -0.92447  -0.78333
 Alpha  occ. eigenvalues --   -0.77971  -0.76245  -0.69026  -0.63083  -0.60596
 Alpha  occ. eigenvalues --   -0.59267  -0.57252  -0.55053  -0.54574  -0.52492
 Alpha  occ. eigenvalues --   -0.51065  -0.50199  -0.48629  -0.48055  -0.46886
 Alpha  occ. eigenvalues --   -0.43753  -0.42210  -0.41243  -0.37826  -0.35905
 Alpha  occ. eigenvalues --   -0.34588
 Alpha virt. eigenvalues --    0.07205   0.12395   0.14092   0.15954   0.17056
 Alpha virt. eigenvalues --    0.19254   0.21249   0.22003   0.23106   0.23548
 Alpha virt. eigenvalues --    0.24897   0.27248   0.28627   0.30304   0.30982
 Alpha virt. eigenvalues --    0.31775   0.33449   0.40106   0.42427   0.50543
 Alpha virt. eigenvalues --    0.53586   0.54740   0.56104   0.58383   0.60258
 Alpha virt. eigenvalues --    0.62138   0.64426   0.66011   0.66675   0.68528
 Alpha virt. eigenvalues --    0.70507   0.71435   0.72997   0.74095   0.75158
 Alpha virt. eigenvalues --    0.77006   0.79116   0.79781   0.80054   0.80271
 Alpha virt. eigenvalues --    0.82578   0.82909   0.83468   0.86898   0.90759
 Alpha virt. eigenvalues --    0.98070   1.02201   1.04624   1.05129   1.07358
 Alpha virt. eigenvalues --    1.10544   1.14818   1.15676   1.18317   1.21647
 Alpha virt. eigenvalues --    1.25399   1.27016   1.31996   1.39039   1.40610
 Alpha virt. eigenvalues --    1.41578   1.50937   1.52495   1.56463   1.63869
 Alpha virt. eigenvalues --    1.65581   1.67644   1.76869   1.80741   1.82966
 Alpha virt. eigenvalues --    1.86867   1.88308   1.92459   1.94417   2.04429
 Alpha virt. eigenvalues --    2.06275   2.07387   2.11229   2.12033   2.17389
 Alpha virt. eigenvalues --    2.19830   2.21958   2.23107   2.25841   2.34457
 Alpha virt. eigenvalues --    2.49385   2.52197   2.62577   2.63927   2.64838
 Alpha virt. eigenvalues --    2.67305   2.71423   2.74157   2.76335   2.79075
 Alpha virt. eigenvalues --    2.91506   2.93929   2.95142   3.01133   3.03709
 Alpha virt. eigenvalues --    3.07534   3.10212   3.12055   3.17020   3.26665
 Alpha virt. eigenvalues --    3.37340   3.46851   3.49658   3.67113   3.71631
          Condensed to atoms (all electrons):
 Mulliken charges:
               1
     1  C   -0.252623
     2  C   -0.417477
     3  C    0.089731
     4  O   -0.510548
     5  C    0.098696
     6  O   -0.503684
     7  C    0.281240
     8  O   -0.358376
     9  O   -0.258066
    10  H    0.125263
    11  H    0.125343
    12  H    0.144789
    13  H    0.108715
    14  H    0.104411
    15  H    0.342717
    16  H    0.113580
    17  H    0.094847
    18  H    0.324711
    19  H    0.346731
 Sum of Mulliken charges =   0.00000
 Mulliken charges with hydrogens summed into heavy atoms:
               1
     1  C    0.142771
     2  C   -0.417477
     3  C    0.302857
     4  O   -0.167831
     5  C    0.307123
     6  O   -0.178973
     7  C    0.281240
     8  O   -0.011645
     9  O   -0.258066
 Electronic spatial extent (au):  <R**2>=           1097.1367
 Charge=              0.0000 electrons
 Dipole moment (field-independent basis, Debye):
    X=             -2.1836    Y=              1.2235    Z=             -1.5501  Tot=              2.9441
 Evaluate density.
 Using the total density.
 Monte-Carlo method of calculating molar volume:
 based on  0.001 e/bohr**3 density envelope.
 Number of points per bohr**3 =  100 CutOff= 1.00D-04
 Using the SCF density.
 There are      1762 points.  Will hold      1762 in memory.
 LenV=  1048273021 MDV=  1048576000.
 Box volume = 5478.419 fraction occupied=0.203
 Integrated density= 6.2318616860298469D+01 error=-9.6813831397015306D+00
 Molar volume = 1113.095 bohr**3/mol ( 99.331 cm**3/mol)
 Recommended a0 for SCRF calculation =  4.24 angstrom (  8.02 bohr)
   1 Symmetry operations used in ECPInt.
 ECPInt:  NShTT=    2775 NPrTT=   11173 LenC2=    2754 LenP2D=    8789.
 LDataN:  DoStor=T MaxTD1= 5 Len=  102
 Calling FoFJK, ICntrl=      2127 FMM=F ISym2X=0 I1Cent= 0 IOpClX= 0 NMat=1 NMatS=1 NMatT=0.

 GradGradGradGradGradGradGradGradGradGradGradGradGradGradGradGradGradGrad
 FormGI is forming the generalized inverse of G from B-inverse, IUseBI=4.
 Internal  Forces:  Max     0.011196777 RMS     0.002822929
 Step number   1 out of a maximum of   99
 All quantities printed in internal units (Hartrees-Bohrs-Radians)
 Mixed Optimization -- RFO/linear search
 Second derivative matrix not updated -- first step.
 ITU=  0
     Eigenvalues ---    0.00230   0.00230   0.00381   0.00505   0.01015
     Eigenvalues ---    0.01630   0.01734   0.02626   0.04602   0.04698
     Eigenvalues ---    0.04752   0.05234   0.05598   0.05648   0.05715
     Eigenvalues ---    0.05805   0.05862   0.11767   0.11800   0.14047
     Eigenvalues ---    0.14054   0.14923   0.15222   0.16000   0.16000
     Eigenvalues ---    0.16000   0.16000   0.16000   0.16000   0.22103
     Eigenvalues ---    0.22111   0.24999   0.25000   0.27617   0.28131
     Eigenvalues ---    0.29510   0.30394   0.33558   0.33808   0.34416
     Eigenvalues ---    0.34416   0.35071   0.35134   0.35255   0.44856
     Eigenvalues ---    0.46153   0.52888   0.53231   0.53247   0.59645
     Eigenvalues ---    1.01668
 Linear search not attempted -- first point.
 Iteration  1 RMS(Cart)=  0.05479281 RMS(Int)=  0.00136298
 Iteration  2 RMS(Cart)=  0.00181727 RMS(Int)=  0.00004696
 Iteration  3 RMS(Cart)=  0.00000162 RMS(Int)=  0.00004694
 Iteration  4 RMS(Cart)=  0.00000000 RMS(Int)=  0.00004694
 Variable       Old X    -DE/DX   Delta X   Delta X   Delta X     New X
                                 (Linear)    (Quad)   (Total)
    R1        2.88951   0.00390   0.00000   0.01310   0.01310   2.90261
    R2        2.05561   0.01065   0.00000   0.03012   0.03012   2.08572
    R3        2.05458   0.01120   0.00000   0.03159   0.03159   2.08617
    R4        2.05263   0.00999   0.00000   0.02810   0.02810   2.08073
    R5        2.91854  -0.00184   0.00000  -0.00648  -0.00648   2.91205
    R6        2.92983  -0.00085   0.00000  -0.00306  -0.00306   2.92677
    R7        2.87184   0.00126   0.00000   0.00411   0.00411   2.87595
    R8        2.65443   0.00212   0.00000   0.00469   0.00469   2.65911
    R9        2.06634   0.00601   0.00000   0.01732   0.01732   2.08366
   R10        2.07655   0.00614   0.00000   0.01801   0.01801   2.09456
   R11        1.83439   0.00249   0.00000   0.00465   0.00465   1.83904
   R12        2.63959  -0.00008   0.00000  -0.00017  -0.00017   2.63942
   R13        2.06633   0.00580   0.00000   0.01671   0.01671   2.08305
   R14        2.08083   0.00667   0.00000   0.01970   0.01970   2.10053
   R15        1.83759   0.00141   0.00000   0.00264   0.00264   1.84023
   R16        2.51223   0.00261   0.00000   0.00436   0.00436   2.51658
   R17        2.27978   0.00495   0.00000   0.00486   0.00486   2.28464
   R18        1.83423   0.00197   0.00000   0.00368   0.00368   1.83791
    A1        1.92749   0.00203   0.00000   0.01274   0.01269   1.94018
    A2        1.91660   0.00038   0.00000   0.00127   0.00127   1.91787
    A3        1.92551   0.00182   0.00000   0.01193   0.01187   1.93738
    A4        1.89495  -0.00140   0.00000  -0.01010  -0.01010   1.88485
    A5        1.89871  -0.00175   0.00000  -0.00863  -0.00873   1.88998
    A6        1.90001  -0.00119   0.00000  -0.00794  -0.00795   1.89206
    A7        1.92001  -0.00041   0.00000  -0.00673  -0.00666   1.91336
    A8        1.91626  -0.00069   0.00000   0.00100   0.00089   1.91715
    A9        1.92603   0.00180   0.00000   0.01867   0.01859   1.94461
   A10        1.91920   0.00075   0.00000  -0.00116  -0.00115   1.91805
   A11        1.90925  -0.00173   0.00000  -0.01784  -0.01778   1.89147
   A12        1.87256   0.00029   0.00000   0.00631   0.00619   1.87874
   A13        1.98260  -0.00049   0.00000   0.00063   0.00055   1.98315
   A14        1.90552  -0.00162   0.00000  -0.01760  -0.01761   1.88791
   A15        1.90103   0.00104   0.00000   0.00975   0.00966   1.91069
   A16        1.85298   0.00106   0.00000   0.00409   0.00406   1.85704
   A17        1.92717   0.00063   0.00000   0.01389   0.01379   1.94096
   A18        1.89217  -0.00070   0.00000  -0.01230  -0.01229   1.87988
   A19        1.86523  -0.00236   0.00000  -0.01447  -0.01447   1.85075
   A20        1.98076  -0.00345   0.00000  -0.01254  -0.01250   1.96826
   A21        1.91056   0.00092   0.00000   0.00052   0.00052   1.91109
   A22        1.88214  -0.00094   0.00000  -0.00990  -0.00987   1.87227
   A23        1.85724   0.00135   0.00000   0.00912   0.00909   1.86633
   A24        1.93639   0.00329   0.00000   0.02681   0.02679   1.96317
   A25        1.89529  -0.00111   0.00000  -0.01436  -0.01450   1.88079
   A26        1.87689  -0.00136   0.00000  -0.00831  -0.00831   1.86857
   A27        1.97070   0.00098   0.00000   0.00388   0.00387   1.97457
   A28        2.17631   0.00127   0.00000   0.00502   0.00502   2.18133
   A29        2.13610  -0.00224   0.00000  -0.00884  -0.00884   2.12726
   A30        1.92596  -0.00752   0.00000  -0.04609  -0.04609   1.87987
    D1        1.01501  -0.00058   0.00000   0.00727   0.00723   1.02224
    D2        3.12938  -0.00035   0.00000   0.00217   0.00213   3.13151
    D3       -1.09326   0.00068   0.00000   0.02183   0.02184  -1.07142
    D4       -1.07425  -0.00036   0.00000   0.01097   0.01095  -1.06330
    D5        1.04012  -0.00013   0.00000   0.00587   0.00585   1.04597
    D6        3.10067   0.00090   0.00000   0.02552   0.02556   3.12623
    D7        3.11466  -0.00027   0.00000   0.01248   0.01249   3.12715
    D8       -1.05416  -0.00004   0.00000   0.00738   0.00739  -1.04677
    D9        1.00639   0.00099   0.00000   0.02704   0.02710   1.03348
   D10       -3.14149  -0.00120   0.00000  -0.06302  -0.06307   3.07863
   D11        1.07749  -0.00112   0.00000  -0.05654  -0.05660   1.02089
   D12       -0.98572   0.00005   0.00000  -0.03723  -0.03726  -1.02298
   D13        1.02909  -0.00057   0.00000  -0.05919  -0.05918   0.96991
   D14       -1.03512  -0.00049   0.00000  -0.05272  -0.05271  -1.08783
   D15       -3.09833   0.00068   0.00000  -0.03341  -0.03337  -3.13170
   D16       -1.02316  -0.00034   0.00000  -0.05559  -0.05557  -1.07873
   D17       -3.08736  -0.00026   0.00000  -0.04912  -0.04910  -3.13646
   D18        1.13261   0.00091   0.00000  -0.02981  -0.02976   1.10285
   D19        3.03906   0.00012   0.00000  -0.05506  -0.05509   2.98398
   D20        0.96720  -0.00002   0.00000  -0.05892  -0.05893   0.90827
   D21       -1.09175   0.00133   0.00000  -0.03638  -0.03641  -1.12817
   D22       -1.12926  -0.00035   0.00000  -0.06351  -0.06351  -1.19277
   D23        3.08205  -0.00049   0.00000  -0.06737  -0.06735   3.01470
   D24        1.02310   0.00086   0.00000  -0.04484  -0.04484   0.97827
   D25        0.94564  -0.00183   0.00000  -0.08187  -0.08186   0.86378
   D26       -1.12623  -0.00197   0.00000  -0.08573  -0.08570  -1.21193
   D27        3.09801  -0.00062   0.00000  -0.06319  -0.06319   3.03482
   D28       -0.86426  -0.00058   0.00000  -0.04513  -0.04522  -0.90948
   D29        2.29023  -0.00064   0.00000  -0.05061  -0.05071   2.23952
   D30       -2.97895  -0.00009   0.00000  -0.03712  -0.03707  -3.01602
   D31        0.17553  -0.00016   0.00000  -0.04259  -0.04256   0.13297
   D32        1.22293  -0.00021   0.00000  -0.02949  -0.02943   1.19350
   D33       -1.90577  -0.00027   0.00000  -0.03497  -0.03492  -1.94069
   D34        1.11139   0.00121   0.00000   0.02418   0.02423   1.13562
   D35       -3.07755  -0.00037   0.00000   0.00549   0.00548  -3.07207
   D36       -1.03005  -0.00026   0.00000   0.00043   0.00039  -1.02965
   D37        0.91572  -0.00106   0.00000  -0.03181  -0.03184   0.88388
   D38        3.01800  -0.00105   0.00000  -0.03247  -0.03257   2.98544
   D39       -1.20663   0.00019   0.00000  -0.02991  -0.02979  -1.23641
   D40       -3.08328   0.00000   0.00000  -0.00110  -0.00108  -3.08436
   D41        0.04576   0.00009   0.00000   0.00435   0.00433   0.05009
         Item               Value     Threshold  Converged?
 Maximum Force            0.011197     0.000015     NO 
 RMS     Force            0.002823     0.000010     NO 
 Maximum Displacement     0.212809     0.000060     NO 
 RMS     Displacement     0.054797     0.000040     NO 
 GradGradGradGradGradGradGradGradGradGradGradGradGradGradGradGradGradGrad

                    Distance matrix (angstroms):
                    1          2          3          4          5
     1  C    0.000000
     2  C    1.535994   0.000000
     3  C    2.514769   1.540993   0.000000
     4  O    3.787741   2.468353   1.407143   0.000000
     5  C    2.524504   1.548778   2.529388   2.930428   0.000000
     6  O    3.773276   2.454430   3.035272   2.753809   1.396722
     7  C    2.526394   1.521885   2.483797   2.944321   2.478650
     8  O    2.860899   2.383733   3.687447   4.218262   2.944355
     9  O    3.533812   2.426404   2.746301   2.785807   3.379767
    10  H    1.103716   2.191258   2.760595   4.098395   3.497602
    11  H    1.103955   2.175213   2.760524   4.055704   2.761283
    12  H    1.101077   2.187240   3.484396   4.634209   2.777456
    13  H    2.714792   2.156411   1.102625   2.017921   2.760176
    14  H    2.738245   2.177629   1.108393   2.082559   3.492604
    15  H    4.041073   2.648664   1.919349   0.973179   3.257992
    16  H    2.695285   2.180226   3.482163   3.979465   1.102301
    17  H    2.767952   2.157923   2.698900   3.177697   1.111555
    18  H    3.989802   2.535165   2.587625   1.939858   1.922823
    19  H    3.771746   3.218514   4.355159   4.703427   3.769290
                    6          7          8          9         10
     6  O    0.000000
     7  C    2.800274   0.000000
     8  O    3.352632   1.331718   0.000000
     9  O    3.314319   1.208979   2.221686   0.000000
    10  H    4.621654   2.805578   3.203626   3.579699   0.000000
    11  H    4.099858   3.480457   3.883794   4.442630   1.785978
    12  H    4.028537   2.784829   2.578192   3.929527   1.786964
    13  H    3.438278   3.435226   4.513837   3.835159   3.061345
    14  H    4.030415   2.744023   3.941900   2.776429   2.519604
    15  H    2.903228   2.576316   3.855800   2.070435   4.246675
    16  H    2.015623   2.789130   2.725086   3.854642   3.731089
    17  H    2.091345   3.430355   3.963885   4.285618   3.769212
    18  H    0.973807   2.916283   3.787400   3.141081   4.701139
    19  H    3.914750   1.872784   0.972580   2.268855   3.966746
                   11         12         13         14         15
    11  H    0.000000
    12  H    1.788505   0.000000
    13  H    2.496566   3.733824   0.000000
    14  H    3.096074   3.751409   1.785449   0.000000
    15  H    4.536171   4.785502   2.813741   2.293660   0.000000
    16  H    3.007445   2.488435   3.722835   4.326887   4.185417
    17  H    2.543461   3.159544   2.463053   3.715856   3.776844
    18  H    4.277797   4.471592   3.020574   3.575403   2.159998
    19  H    4.822277   3.492775   5.279858   4.506053   4.161161
                   16         17         18         19
    16  H    0.000000
    17  H    1.788343   0.000000
    18  H    2.816401   2.394874   0.000000
    19  H    3.563208   4.833779   4.293497   0.000000
 Framework group  C1[X(C5H10O4)]
 Deg. of freedom    51
                         Standard orientation:                         
 ---------------------------------------------------------------------
 Center     Atomic      Atomic             Coordinates (Angstroms)
 Number     Number       Type             X           Y           Z
 ---------------------------------------------------------------------
      1          6           0       -0.843153    1.752532   -0.889771
      2          6           0       -0.071080    0.588014   -0.251743
      3          6           0        1.174368    0.266132   -1.100218
      4          8           0        1.989363   -0.738712   -0.546935
      5          6           0        0.355557    0.966352    1.188241
      6          8           0        0.884423   -0.114706    1.897076
      7          6           0       -0.929071   -0.665910   -0.164221
      8          8           0       -2.106511   -0.454447    0.420921
      9          8           0       -0.603084   -1.758292   -0.566794
     10          1           0       -1.149262    1.509638   -1.921996
     11          1           0       -0.203750    2.651723   -0.926323
     12          1           0       -1.747165    1.992123   -0.308628
     13          1           0        1.796012    1.175042   -1.156989
     14          1           0        0.861916    0.006409   -2.131456
     15          1           0        1.457172   -1.553397   -0.558704
     16          1           0       -0.523446    1.320358    1.751360
     17          1           0        1.070966    1.813360    1.108730
     18          1           0        1.568648   -0.518385    1.333890
     19          1           0       -2.564345   -1.310332    0.482247
 ---------------------------------------------------------------------
 Rotational constants (GHZ):           1.8475915           1.4881596           1.4213166
   146 basis functions,   265 primitive gaussians,   155 cartesian basis functions
    36 alpha electrons       36 beta electrons
       nuclear repulsion energy       516.9870467155 Hartrees.
 NAtoms=   19 NActive=   19 NUniq=   19 SFac= 1.00D+00 NAtFMM=   60 NAOKFM=F Big=F
 Nuclear repulsion after empirical dispersion term =      516.9746707299 Hartrees.
   1 Symmetry operations used in ECPInt.
 ECPInt:  NShTT=    2775 NPrTT=   11173 LenC2=    2754 LenP2D=    8783.
 LDataN:  DoStor=T MaxTD1= 4 Len=   56
 Initial guess from the checkpoint file:  "35.chk"
 B after Tr=    -0.000000   -0.000000    0.000000
         Rot=    0.998681   -0.049091    0.012860    0.007835 Ang=  -5.89 deg.
 ExpMin= 1.22D-01 ExpMax= 2.27D+03 ExpMxC= 3.41D+02 IAcc=3 IRadAn=         5 AccDes= 0.00D+00
 Harris functional with IExCor= 4639 and IRadAn=       5 diagonalized for initial guess.
 HarFok:  IExCor= 4639 AccDes= 0.00D+00 IRadAn=         5 IDoV= 1 UseB2=F ITyADJ=14
 ICtDFT=  3500011 ScaDFX=  1.000000  1.000000  1.000000  1.000000
 FoFCou: FMM=F IPFlag=           0 FMFlag=      100000 FMFlg1=           0
         NFxFlg=           0 DoJE=T BraDBF=F KetDBF=T FulRan=T
         wScrn=  0.000000 ICntrl=       500 IOpCl=  0 I1Cent=   200000004 NGrid=           0
         NMat0=    1 NMatS0=      1 NMatT0=    0 NMatD0=    1 NMtDS0=    0 NMtDT0=    0
 Petite list used in FoFCou.
     Minimum is close to point  4 DX=  5.76D-02 DF= -1.07D-05 DXR=  4.58D-02 DFR=  2.10D-03 which will be used.
     Accept linear search using points  2 and  3.
     Accept linear search using points  1 and  2.
     Minimum is close to point  2 DX= -8.77D-02 DF= -4.52D-06 DXR=  8.66D-02 DFR=  8.78D-03 which will be used.
     Accept linear search using points  1 and  2.
     Accept linear search using points  1 and  2.
     Accept linear search using points  1 and  2.
     Minimum is close to point  2 DX= -2.09D-04 DF= -4.83D-12 DXR=  2.09D-04 DFR=  4.38D-08 which will be used.
 SCF Done:  E(RwB97XD) =  -496.909004363     a.u. after    9 cycles
            Convg  =    0.1888D-08                    40 Fock formations.
              S**2 =  0.0000                  -V/T =  2.0082
   1 Symmetry operations used in ECPInt.
 ECPInt:  NShTT=    2775 NPrTT=   11173 LenC2=    2754 LenP2D=    8783.
 LDataN:  DoStor=T MaxTD1= 5 Len=  102
 Calling FoFJK, ICntrl=      2127 FMM=F ISym2X=0 I1Cent= 0 IOpClX= 0 NMat=1 NMatS=1 NMatT=0.

 GradGradGradGradGradGradGradGradGradGradGradGradGradGradGradGradGradGrad
 Using GEDIIS/GDIIS optimizer.
 FormGI is forming the generalized inverse of G from B-inverse, IUseBI=4.
 Internal  Forces:  Max     0.003410407 RMS     0.001088899
 Step number   2 out of a maximum of   99
 All quantities printed in internal units (Hartrees-Bohrs-Radians)
 Mixed Optimization -- RFO/linear search
 Trust test= 5.70D-01 RLast= 2.91D-01 DXMaxT set to 5.05D-01
 ITU=  1  0
 Use linear search instead of GDIIS.
     Eigenvalues ---    0.00225   0.00341   0.00390   0.00561   0.01010
     Eigenvalues ---    0.01559   0.01911   0.02626   0.04651   0.04767
     Eigenvalues ---    0.04866   0.05198   0.05514   0.05660   0.05710
     Eigenvalues ---    0.05890   0.05932   0.11637   0.11838   0.12596
     Eigenvalues ---    0.14166   0.14449   0.15206   0.15556   0.16000
     Eigenvalues ---    0.16000   0.16000   0.16000   0.16331   0.22066
     Eigenvalues ---    0.22876   0.24855   0.25220   0.27602   0.28164
     Eigenvalues ---    0.29762   0.30166   0.31223   0.33704   0.33947
     Eigenvalues ---    0.34416   0.34588   0.35099   0.35217   0.44802
     Eigenvalues ---    0.46279   0.52841   0.53092   0.53247   0.59517
     Eigenvalues ---    1.01328
 Quartic linear search produced a step of -0.27561.
 Iteration  1 RMS(Cart)=  0.10307465 RMS(Int)=  0.00614049
 Iteration  2 RMS(Cart)=  0.00750599 RMS(Int)=  0.00004171
 Iteration  3 RMS(Cart)=  0.00003552 RMS(Int)=  0.00003656
 Iteration  4 RMS(Cart)=  0.00000000 RMS(Int)=  0.00003656
 Variable       Old X    -DE/DX   Delta X   Delta X   Delta X     New X
                                 (Linear)    (Quad)   (Total)
    R1        2.90261  -0.00177  -0.00361   0.01179   0.00818   2.91078
    R2        2.08572  -0.00005  -0.00830   0.03752   0.02922   2.11494
    R3        2.08617  -0.00009  -0.00871   0.03928   0.03057   2.11675
    R4        2.08073   0.00016  -0.00775   0.03546   0.02772   2.10845
    R5        2.91205   0.00046   0.00179  -0.00683  -0.00505   2.90701
    R6        2.92677   0.00131   0.00084  -0.00020   0.00064   2.92741
    R7        2.87595  -0.00123  -0.00113   0.00206   0.00093   2.87687
    R8        2.65911   0.00057  -0.00129   0.00683   0.00553   2.66465
    R9        2.08366   0.00008  -0.00477   0.02181   0.01704   2.10070
   R10        2.09456  -0.00045  -0.00496   0.02148   0.01652   2.11108
   R11        1.83904   0.00096  -0.00128   0.00720   0.00592   1.84496
   R12        2.63942  -0.00162   0.00005  -0.00289  -0.00284   2.63658
   R13        2.08305  -0.00000  -0.00461   0.02087   0.01627   2.09931
   R14        2.10053   0.00018  -0.00543   0.02502   0.01959   2.12012
   R15        1.84023   0.00008  -0.00073   0.00343   0.00270   1.84293
   R16        2.51658   0.00140  -0.00120   0.00724   0.00604   2.52262
   R17        2.28464   0.00045  -0.00134   0.00643   0.00509   2.28973
   R18        1.83791   0.00122  -0.00101   0.00635   0.00533   1.84324
    A1        1.94018   0.00050  -0.00350   0.01823   0.01468   1.95486
    A2        1.91787  -0.00021  -0.00035   0.00041   0.00006   1.91794
    A3        1.93738   0.00013  -0.00327   0.01525   0.01193   1.94931
    A4        1.88485  -0.00014   0.00278  -0.01315  -0.01036   1.87449
    A5        1.88998  -0.00029   0.00241  -0.01199  -0.00968   1.88030
    A6        1.89206  -0.00002   0.00219  -0.01033  -0.00814   1.88393
    A7        1.91336  -0.00007   0.00183  -0.00839  -0.00654   1.90682
    A8        1.91715  -0.00106  -0.00024  -0.00384  -0.00409   1.91306
    A9        1.94461   0.00031  -0.00512   0.01834   0.01313   1.95775
   A10        1.91805   0.00171   0.00032   0.01295   0.01330   1.93134
   A11        1.89147  -0.00089   0.00490  -0.02663  -0.02172   1.86975
   A12        1.87874   0.00005  -0.00170   0.00780   0.00617   1.88491
   A13        1.98315  -0.00001  -0.00015   0.00014   0.00001   1.98316
   A14        1.88791  -0.00012   0.00485  -0.01533  -0.01049   1.87742
   A15        1.91069   0.00112  -0.00266   0.01190   0.00927   1.91996
   A16        1.85704   0.00148  -0.00112   0.02193   0.02084   1.87788
   A17        1.94096  -0.00215  -0.00380  -0.00441  -0.00817   1.93279
   A18        1.87988  -0.00027   0.00339  -0.01561  -0.01219   1.86769
   A19        1.85075  -0.00098   0.00399  -0.02259  -0.01860   1.83216
   A20        1.96826   0.00341   0.00344  -0.00285   0.00059   1.96885
   A21        1.91109  -0.00173  -0.00014  -0.00541  -0.00560   1.90549
   A22        1.87227   0.00063   0.00272  -0.00791  -0.00525   1.86703
   A23        1.86633  -0.00007  -0.00251   0.01554   0.01305   1.87938
   A24        1.96317  -0.00242  -0.00738   0.02103   0.01365   1.97683
   A25        1.88079  -0.00001   0.00400  -0.02198  -0.01806   1.86273
   A26        1.86857  -0.00205   0.00229  -0.01995  -0.01766   1.85091
   A27        1.97457   0.00090  -0.00107   0.00752   0.00642   1.98099
   A28        2.18133  -0.00154  -0.00138   0.00153   0.00011   2.18144
   A29        2.12726   0.00064   0.00244  -0.00914  -0.00674   2.12053
   A30        1.87987  -0.00009   0.01270  -0.05761  -0.04490   1.83497
    D1        1.02224  -0.00085  -0.00199  -0.00915  -0.01119   1.01105
    D2        3.13151   0.00055  -0.00059  -0.00087  -0.00148   3.13003
    D3       -1.07142   0.00012  -0.00602   0.01795   0.01193  -1.05949
    D4       -1.06330  -0.00085  -0.00302  -0.00460  -0.00764  -1.07094
    D5        1.04597   0.00054  -0.00161   0.00368   0.00207   1.04804
    D6        3.12623   0.00011  -0.00704   0.02250   0.01548  -3.14148
    D7        3.12715  -0.00078  -0.00344  -0.00171  -0.00516   3.12199
    D8       -1.04677   0.00061  -0.00204   0.00656   0.00455  -1.04222
    D9        1.03348   0.00018  -0.00747   0.02538   0.01796   1.05145
   D10        3.07863   0.00237   0.01738   0.14981   0.16713  -3.03743
   D11        1.02089   0.00062   0.01560   0.13264   0.14818   1.16908
   D12       -1.02298   0.00040   0.01027   0.15341   0.16361  -0.85936
   D13        0.96991   0.00265   0.01631   0.15171   0.16799   1.13790
   D14       -1.08783   0.00090   0.01453   0.13453   0.14904  -0.93878
   D15       -3.13170   0.00068   0.00920   0.15530   0.16447  -2.96722
   D16       -1.07873   0.00215   0.01532   0.15049   0.16589  -0.91284
   D17       -3.13646   0.00039   0.01353   0.13332   0.14694  -2.98952
   D18        1.10285   0.00017   0.00820   0.15409   0.16237   1.26522
   D19        2.98398   0.00080   0.01518   0.05120   0.06636   3.05034
   D20        0.90827  -0.00012   0.01624   0.03712   0.05337   0.96164
   D21       -1.12817   0.00045   0.01004   0.07035   0.08034  -1.04783
   D22       -1.19277   0.00112   0.01750   0.04659   0.06407  -1.12870
   D23        3.01470   0.00020   0.01856   0.03251   0.05108   3.06578
   D24        0.97827   0.00077   0.01236   0.06574   0.07805   1.05632
   D25        0.86378   0.00103   0.02256   0.02633   0.04894   0.91272
   D26       -1.21193   0.00010   0.02362   0.01225   0.03594  -1.17599
   D27        3.03482   0.00067   0.01741   0.04548   0.06291   3.09773
   D28       -0.90948   0.00033   0.01246  -0.02402  -0.01161  -0.92109
   D29        2.23952   0.00065   0.01398  -0.01011   0.00383   2.24335
   D30       -3.01602   0.00081   0.01022  -0.00757   0.00265  -3.01338
   D31        0.13297   0.00113   0.01173   0.00634   0.01809   0.15106
   D32        1.19350  -0.00076   0.00811  -0.01273  -0.00460   1.18890
   D33       -1.94069  -0.00043   0.00962   0.00118   0.01084  -1.92985
   D34        1.13562   0.00138  -0.00668   0.08707   0.08036   1.21598
   D35       -3.07207   0.00220  -0.00151   0.08274   0.08128  -2.99080
   D36       -1.02965   0.00160  -0.00011   0.07459   0.07447  -0.95518
   D37        0.88388   0.00213   0.00878   0.02517   0.03396   0.91783
   D38        2.98544   0.00199   0.00898   0.02711   0.03611   3.02154
   D39       -1.23641   0.00057   0.00821   0.02199   0.03017  -1.20624
   D40       -3.08436   0.00016   0.00030   0.00864   0.00890  -3.07546
   D41        0.05009  -0.00016  -0.00119  -0.00474  -0.00590   0.04418
         Item               Value     Threshold  Converged?
 Maximum Force            0.003410     0.000015     NO 
 RMS     Force            0.001089     0.000010     NO 
 Maximum Displacement     0.384815     0.000060     NO 
 RMS     Displacement     0.102996     0.000040     NO 
 GradGradGradGradGradGradGradGradGradGradGradGradGradGradGradGradGradGrad

                    Distance matrix (angstroms):
                    1          2          3          4          5
     1  C    0.000000
     2  C    1.540320   0.000000
     3  C    2.510307   1.538323   0.000000
     4  O    3.786758   2.468487   1.410071   0.000000
     5  C    2.524683   1.549117   2.539214   3.036638   0.000000
     6  O    3.777856   2.453972   3.012098   2.827471   1.395219
     7  C    2.541657   1.522377   2.462426   2.828198   2.484902
     8  O    2.892922   2.391754   3.676755   4.125954   2.956834
     9  O    3.551841   2.429235   2.718671   2.585827   3.383966
    10  H    1.119178   2.217429   2.769685   4.065145   3.518902
    11  H    1.120134   2.191177   2.765957   4.110033   2.768414
    12  H    1.115744   2.210804   3.499397   4.654019   2.791396
    13  H    2.775860   2.152793   1.111643   2.042474   2.695806
    14  H    2.668400   2.188670   1.117135   2.086143   3.505171
    15  H    3.996293   2.673108   1.911267   0.976312   3.455754
    16  H    2.715468   2.182763   3.495762   4.057373   1.110909
    17  H    2.725944   2.161750   2.748885   3.399847   1.121922
    18  H    3.973853   2.534362   2.549995   2.043846   1.910517
    19  H    3.799661   3.206925   4.308951   4.535570   3.770087
                    6          7          8          9         10
     6  O    0.000000
     7  C    2.833358   0.000000
     8  O    3.405615   1.334915   0.000000
     9  O    3.336772   1.211674   2.222674   0.000000
    10  H    4.648970   2.838063   3.246024   3.617815   0.000000
    11  H    4.092722   3.506639   3.932355   4.466764   1.804732
    12  H    4.067133   2.828065   2.637690   3.977166   1.805025
    13  H    3.284251   3.417692   4.515129   3.803270   3.171016
    14  H    4.066290   2.812688   3.995504   2.894058   2.451130
    15  H    3.182524   2.488208   3.785955   1.868323   4.123752
    16  H    2.030329   2.777417   2.713411   3.839700   3.763366
    17  H    2.107571   3.443919   3.968235   4.311980   3.754909
    18  H    0.975236   2.984610   3.869563   3.217487   4.714389
    19  H    3.953257   1.847531   0.975403   2.224959   4.003179
                   11         12         13         14         15
    11  H    0.000000
    12  H    1.808189   0.000000
    13  H    2.564989   3.794443   0.000000
    14  H    2.991598   3.717398   1.791743   0.000000
    15  H    4.543298   4.778609   2.825245   2.253496   0.000000
    16  H    3.053425   2.513023   3.698947   4.338150   4.337916
    17  H    2.491855   3.110760   2.430547   3.712705   4.047213
    18  H    4.228083   4.495881   2.802720   3.617829   2.537125
    19  H    4.865775   3.563364   5.246414   4.548273   4.011399
                   16         17         18         19
    16  H    0.000000
    17  H    1.791715   0.000000
    18  H    2.824414   2.386508   0.000000
    19  H    3.550325   4.833442   4.365415   0.000000
 Framework group  C1[X(C5H10O4)]
 Deg. of freedom    51
                         Standard orientation:                         
 ---------------------------------------------------------------------
 Center     Atomic      Atomic             Coordinates (Angstroms)
 Number     Number       Type             X           Y           Z
 ---------------------------------------------------------------------
      1          6           0       -0.879211    1.548213   -1.199674
      2          6           0       -0.085056    0.548874   -0.337568
      3          6           0        1.176588    0.110989   -1.101079
      4          8           0        1.905231   -0.906841   -0.451924
      5          6           0        0.294279    1.211673    1.010232
      6          8           0        0.915952    0.326941    1.891940
      7          6           0       -0.884982   -0.710295   -0.033856
      8          8           0       -2.086605   -0.463553    0.492661
      9          8           0       -0.493680   -1.842618   -0.215189
     10          1           0       -1.164293    1.113139   -2.190632
     11          1           0       -0.256698    2.457691   -1.399742
     12          1           0       -1.815986    1.877976   -0.691153
     13          1           0        1.841485    0.997714   -1.186981
     14          1           0        0.906689   -0.197033   -2.140438
     15          1           0        1.343996   -1.702656   -0.521764
     16          1           0       -0.626998    1.588233    1.503760
     17          1           0        0.921289    2.110050    0.768398
     18          1           0        1.655407   -0.072042    1.396861
     19          1           0       -2.461779   -1.341239    0.693464
 ---------------------------------------------------------------------
 Rotational constants (GHZ):           1.7952170           1.5263716           1.4224056
   146 basis functions,   265 primitive gaussians,   155 cartesian basis functions
    36 alpha electrons       36 beta electrons
       nuclear repulsion energy       516.6212502431 Hartrees.
 NAtoms=   19 NActive=   19 NUniq=   19 SFac= 1.00D+00 NAtFMM=   60 NAOKFM=F Big=F
 Nuclear repulsion after empirical dispersion term =      516.6090080883 Hartrees.
   1 Symmetry operations used in ECPInt.
 ECPInt:  NShTT=    2775 NPrTT=   11173 LenC2=    2756 LenP2D=    8774.
 LDataN:  DoStor=T MaxTD1= 4 Len=   56
 Initial guess from the checkpoint file:  "35.chk"
 B after Tr=     0.000000    0.000000   -0.000000
         Rot=    0.995589    0.092809   -0.001404   -0.013710 Ang=  10.77 deg.
 ExpMin= 1.22D-01 ExpMax= 2.27D+03 ExpMxC= 3.41D+02 IAcc=3 IRadAn=         5 AccDes= 0.00D+00
 Harris functional with IExCor= 4639 and IRadAn=       5 diagonalized for initial guess.
 HarFok:  IExCor= 4639 AccDes= 0.00D+00 IRadAn=         5 IDoV= 1 UseB2=F ITyADJ=14
 ICtDFT=  3500011 ScaDFX=  1.000000  1.000000  1.000000  1.000000
 FoFCou: FMM=F IPFlag=           0 FMFlag=      100000 FMFlg1=           0
         NFxFlg=           0 DoJE=T BraDBF=F KetDBF=T FulRan=T
         wScrn=  0.000000 ICntrl=       500 IOpCl=  0 I1Cent=   200000004 NGrid=           0
         NMat0=    1 NMatS0=      1 NMatT0=    0 NMatD0=    1 NMtDS0=    0 NMtDT0=    0
 Petite list used in FoFCou.
     Minimum is close to point  4 DX=  4.16D-02 DF= -1.83D-05 DXR=  3.35D-02 DFR=  1.13D-03 which will be used.
     Accept linear search using points  2 and  3.
     Accept linear search using points  1 and  2.
     Accept linear search using points  1 and  2.
     Accept linear search using points  1 and  2.
     Accept linear search using points  1 and  2.
     Accept linear search using points  1 and  2.
     Minimum is close to point  2 DX= -1.63D-04 DF= -1.42D-12 DXR=  1.63D-04 DFR=  2.64D-08 which will be used.
 SCF Done:  E(RwB97XD) =  -496.905639270     a.u. after   11 cycles
            Convg  =    0.5370D-09                    46 Fock formations.
              S**2 =  0.0000                  -V/T =  2.0085
   1 Symmetry operations used in ECPInt.
 ECPInt:  NShTT=    2775 NPrTT=   11173 LenC2=    2756 LenP2D=    8774.
 LDataN:  DoStor=T MaxTD1= 5 Len=  102
 Calling FoFJK, ICntrl=      2127 FMM=F ISym2X=0 I1Cent= 0 IOpClX= 0 NMat=1 NMatS=1 NMatT=0.

 GradGradGradGradGradGradGradGradGradGradGradGradGradGradGradGradGradGrad
 Using GEDIIS/GDIIS optimizer.
 FormGI is forming the generalized inverse of G from B-inverse, IUseBI=4.
 Internal  Forces:  Max     0.010291729 RMS     0.004248657
 Step number   3 out of a maximum of   99
 All quantities printed in internal units (Hartrees-Bohrs-Radians)
 Mixed Optimization -- RFO/linear search
 Trust test=-1.93D+00 RLast= 5.45D-01 DXMaxT set to 2.52D-01
 ITU= -1  1  0
 Use linear search instead of GDIIS.
     Eigenvalues ---    0.00234   0.00381   0.00474   0.00839   0.01066
     Eigenvalues ---    0.01674   0.02364   0.02626   0.04629   0.04767
     Eigenvalues ---    0.05115   0.05374   0.05566   0.05610   0.05768
     Eigenvalues ---    0.05896   0.06191   0.11621   0.11774   0.14074
     Eigenvalues ---    0.14097   0.15109   0.15364   0.15916   0.16000
     Eigenvalues ---    0.16000   0.16000   0.16031   0.18592   0.22139
     Eigenvalues ---    0.22788   0.24891   0.26815   0.27860   0.28900
     Eigenvalues ---    0.29648   0.30704   0.33434   0.33824   0.34178
     Eigenvalues ---    0.34437   0.34848   0.35104   0.35214   0.44990
     Eigenvalues ---    0.46134   0.52829   0.53052   0.53317   0.59441
     Eigenvalues ---    1.01417
 Quartic linear search produced a step of -0.77025.
 Iteration  1 RMS(Cart)=  0.08264663 RMS(Int)=  0.00378292
 Iteration  2 RMS(Cart)=  0.00461313 RMS(Int)=  0.00005844
 Iteration  3 RMS(Cart)=  0.00000776 RMS(Int)=  0.00005799
 Iteration  4 RMS(Cart)=  0.00000000 RMS(Int)=  0.00005799
 Variable       Old X    -DE/DX   Delta X   Delta X   Delta X     New X
                                 (Linear)    (Quad)   (Total)
    R1        2.91078  -0.00554  -0.00630  -0.00738  -0.01367   2.89711
    R2        2.11494  -0.00973  -0.02251  -0.00295  -0.02546   2.08948
    R3        2.11675  -0.00981  -0.02355  -0.00291  -0.02646   2.09029
    R4        2.10845  -0.00874  -0.02135  -0.00205  -0.02340   2.08505
    R5        2.90701   0.00670   0.00389   0.00595   0.00984   2.91685
    R6        2.92741  -0.00294  -0.00049   0.00087   0.00038   2.92778
    R7        2.87687   0.00388  -0.00071   0.00029  -0.00043   2.87645
    R8        2.66465  -0.00423  -0.00426  -0.00064  -0.00490   2.65975
    R9        2.10070  -0.00470  -0.01313  -0.00093  -0.01406   2.08664
   R10        2.11108  -0.00531  -0.01272  -0.00252  -0.01525   2.09583
   R11        1.84496  -0.00347  -0.00456   0.00044  -0.00412   1.84084
   R12        2.63658  -0.00054   0.00219  -0.00298  -0.00080   2.63579
   R13        2.09931  -0.00523  -0.01253  -0.00154  -0.01407   2.08524
   R14        2.12012  -0.00550  -0.01509  -0.00105  -0.01614   2.10399
   R15        1.84293  -0.00026  -0.00208   0.00031  -0.00177   1.84116
   R16        2.52262  -0.00069  -0.00465   0.00204  -0.00261   2.52001
   R17        2.28973  -0.00355  -0.00392   0.00011  -0.00382   2.28592
   R18        1.84324  -0.00008  -0.00411   0.00215  -0.00196   1.84129
    A1        1.95486  -0.00142  -0.01131   0.00197  -0.00932   1.94554
    A2        1.91794  -0.00051  -0.00005  -0.00168  -0.00174   1.91620
    A3        1.94931  -0.00090  -0.00919   0.00064  -0.00853   1.94078
    A4        1.87449   0.00105   0.00798  -0.00023   0.00774   1.88224
    A5        1.88030   0.00117   0.00746  -0.00060   0.00690   1.88719
    A6        1.88393   0.00079   0.00627  -0.00017   0.00609   1.89002
    A7        1.90682  -0.00081   0.00504  -0.00194   0.00322   1.91004
    A8        1.91306   0.00578   0.00315  -0.00357  -0.00055   1.91251
    A9        1.95775  -0.00741  -0.01012  -0.01501  -0.02517   1.93258
   A10        1.93134  -0.00707  -0.01024   0.00423  -0.00606   1.92528
   A11        1.86975   0.01029   0.01673   0.01717   0.03398   1.90373
   A12        1.88491  -0.00095  -0.00475  -0.00035  -0.00532   1.87959
   A13        1.98316   0.00503  -0.00001   0.00542   0.00542   1.98858
   A14        1.87742   0.00209   0.00808   0.00380   0.01191   1.88932
   A15        1.91996  -0.00363  -0.00714   0.00124  -0.00589   1.91407
   A16        1.87788  -0.00728  -0.01605  -0.00045  -0.01653   1.86135
   A17        1.93279   0.00313   0.00629  -0.00687  -0.00059   1.93220
   A18        1.86769   0.00029   0.00939  -0.00337   0.00598   1.87367
   A19        1.83216   0.00519   0.01432   0.00102   0.01535   1.84751
   A20        1.96885  -0.00280  -0.00045   0.00783   0.00739   1.97624
   A21        1.90549   0.00240   0.00431  -0.00189   0.00244   1.90793
   A22        1.86703   0.00073   0.00404   0.00400   0.00808   1.87511
   A23        1.87938  -0.00053  -0.01005   0.00343  -0.00665   1.87274
   A24        1.97683   0.00024  -0.01052  -0.01087  -0.02139   1.95544
   A25        1.86273   0.00024   0.01391  -0.00299   0.01090   1.87364
   A26        1.85091   0.00720   0.01361  -0.00050   0.01310   1.86401
   A27        1.98099  -0.00434  -0.00494  -0.00059  -0.00570   1.97529
   A28        2.18144   0.00941  -0.00009   0.00458   0.00431   2.18576
   A29        2.12053  -0.00502   0.00519  -0.00348   0.00153   2.12206
   A30        1.83497   0.00757   0.03459   0.00501   0.03960   1.87456
    D1        1.01105   0.00458   0.00862   0.00302   0.01167   1.02272
    D2        3.13003  -0.00102   0.00114   0.00477   0.00588   3.13591
    D3       -1.05949  -0.00311  -0.00919  -0.00777  -0.01692  -1.07641
    D4       -1.07094   0.00452   0.00589   0.00317   0.00907  -1.06187
    D5        1.04804  -0.00109  -0.00159   0.00492   0.00329   1.05132
    D6       -3.14148  -0.00317  -0.01192  -0.00762  -0.01952   3.12219
    D7        3.12199   0.00445   0.00397   0.00409   0.00807   3.13005
    D8       -1.04222  -0.00116  -0.00350   0.00584   0.00228  -1.03994
    D9        1.05145  -0.00324  -0.01384  -0.00670  -0.02053   1.03092
   D10       -3.03743  -0.00492  -0.12873  -0.01067  -0.13943   3.10633
   D11        1.16908  -0.00029  -0.11414  -0.01595  -0.13013   1.03894
   D12       -0.85936   0.00012  -0.12602  -0.01474  -0.14080  -1.00017
   D13        1.13790  -0.00711  -0.12939  -0.00765  -0.13700   1.00090
   D14       -0.93878  -0.00247  -0.11480  -0.01293  -0.12771  -1.06649
   D15       -2.96722  -0.00206  -0.12669  -0.01172  -0.13837  -3.10560
   D16       -0.91284  -0.00814  -0.12777  -0.01958  -0.14734  -1.06019
   D17       -2.98952  -0.00351  -0.11318  -0.02486  -0.13805  -3.12757
   D18        1.26522  -0.00310  -0.12507  -0.02365  -0.14872   1.11650
   D19        3.05034  -0.00206  -0.05112   0.06132   0.01017   3.06051
   D20        0.96164  -0.00124  -0.04111   0.05328   0.01213   0.97376
   D21       -1.04783  -0.00311  -0.06188   0.05562  -0.00628  -1.05411
   D22       -1.12870  -0.00383  -0.04935   0.05927   0.00997  -1.11873
   D23        3.06578  -0.00300  -0.03934   0.05124   0.01193   3.07771
   D24        1.05632  -0.00487  -0.06011   0.05358  -0.00648   1.04984
   D25        0.91272   0.00407  -0.03769   0.08211   0.04440   0.95712
   D26       -1.17599   0.00490  -0.02768   0.07407   0.04636  -1.12963
   D27        3.09773   0.00303  -0.04846   0.07641   0.02795   3.12568
   D28       -0.92109  -0.00033   0.00894  -0.00008   0.00875  -0.91235
   D29        2.24335  -0.00247  -0.00295  -0.02511  -0.02820   2.21515
   D30       -3.01338  -0.00162  -0.00204   0.00005  -0.00186  -3.01524
   D31        0.15106  -0.00376  -0.01393  -0.02497  -0.03881   0.11225
   D32        1.18890   0.00163   0.00354  -0.01410  -0.01053   1.17837
   D33       -1.92985  -0.00051  -0.00835  -0.03913  -0.04748  -1.97732
   D34        1.21598  -0.00244  -0.06189   0.03888  -0.02298   1.19300
   D35       -2.99080  -0.00171  -0.06260   0.04659  -0.01608  -3.00688
   D36       -0.95518  -0.00390  -0.05736   0.03854  -0.01879  -0.97397
   D37        0.91783  -0.00275  -0.02616   0.03384   0.00767   0.92551
   D38        3.02154  -0.00184  -0.02781   0.03863   0.01077   3.03232
   D39       -1.20624  -0.00175  -0.02324   0.03080   0.00762  -1.19862
   D40       -3.07546  -0.00124  -0.00686  -0.01271  -0.01953  -3.09499
   D41        0.04418   0.00103   0.00455   0.01145   0.01595   0.06013
         Item               Value     Threshold  Converged?
 Maximum Force            0.010292     0.000015     NO 
 RMS     Force            0.004249     0.000010     NO 
 Maximum Displacement     0.328427     0.000060     NO 
 RMS     Displacement     0.083030     0.000040     NO 
 GradGradGradGradGradGradGradGradGradGradGradGradGradGradGradGradGradGrad

                    Distance matrix (angstroms):
                    1          2          3          4          5
     1  C    0.000000
     2  C    1.533085   0.000000
     3  C    2.511523   1.543529   0.000000
     4  O    3.788351   2.475154   1.407478   0.000000
     5  C    2.518460   1.549316   2.538312   2.963807   0.000000
     6  O    3.774737   2.459784   3.010272   2.745486   1.394798
     7  C    2.513798   1.522149   2.497019   2.956071   2.480071
     8  O    2.848434   2.385988   3.699831   4.233616   2.938869
     9  O    3.516579   2.429971   2.768121   2.808067   3.398401
    10  H    1.105706   2.194059   2.761573   4.094663   3.497205
    11  H    1.106133   2.173060   2.754636   4.060489   2.755890
    12  H    1.103361   2.188853   3.486088   4.641606   2.770775
    13  H    2.722074   2.160848   1.104205   2.022556   2.762109
    14  H    2.727611   2.182853   1.109067   2.077238   3.501400
    15  H    4.048755   2.680014   1.918087   0.974132   3.338615
    16  H    2.715712   2.179230   3.491630   3.994997   1.103463
    17  H    2.728162   2.161882   2.746499   3.279796   1.113382
    18  H    3.983889   2.555823   2.561711   1.951305   1.918408
    19  H    3.756224   3.219947   4.367435   4.718015   3.770428
                    6          7          8          9         10
     6  O    0.000000
     7  C    2.858172   0.000000
     8  O    3.429989   1.333534   0.000000
     9  O    3.391509   1.209655   2.220664   0.000000
    10  H    4.631076   2.797979   3.197423   3.558353   0.000000
    11  H    4.078592   3.472378   3.873034   4.433788   1.787645
    12  H    4.051242   2.772047   2.560463   3.911183   1.788626
    13  H    3.378485   3.447140   4.523399   3.857327   3.076288
    14  H    4.024718   2.769527   3.966076   2.807896   2.511136
    15  H    2.993076   2.619545   3.909340   2.112486   4.233181
    16  H    2.019522   2.747272   2.668234   3.820455   3.746592
    17  H    2.085783   3.437026   3.938372   4.327910   3.744179
    18  H    0.974301   3.040032   3.919000   3.312803   4.712418
    19  H    4.009743   1.872171   0.974368   2.261564   3.952715
                   11         12         13         14         15
    11  H    0.000000
    12  H    1.790799   0.000000
    13  H    2.499469   3.742031   0.000000
    14  H    3.076515   3.748207   1.783206   0.000000
    15  H    4.545908   4.809825   2.814589   2.264723   0.000000
    16  H    3.050235   2.505307   3.746459   4.334400   4.236766
    17  H    2.496633   3.098419   2.504371   3.747426   3.906508
    18  H    4.224318   4.490655   2.918375   3.582174   2.320295
    19  H    4.810055   3.473028   5.290236   4.530426   4.212208
                   16         17         18         19
    16  H    0.000000
    17  H    1.786072   0.000000
    18  H    2.819876   2.370765   0.000000
    19  H    3.505903   4.821071   4.458144   0.000000
 Framework group  C1[X(C5H10O4)]
 Deg. of freedom    51
                         Standard orientation:                         
 ---------------------------------------------------------------------
 Center     Atomic      Atomic             Coordinates (Angstroms)
 Number     Number       Type             X           Y           Z
 ---------------------------------------------------------------------
      1          6           0       -0.838779    1.593330   -1.126204
      2          6           0       -0.069356    0.534676   -0.327711
      3          6           0        1.161950    0.075201   -1.137187
      4          8           0        1.964690   -0.868526   -0.469369
      5          6           0        0.372928    1.130196    1.032480
      6          8           0        0.991910    0.198538    1.865748
      7          6           0       -0.953257   -0.670569   -0.039540
      8          8           0       -2.117410   -0.344980    0.523533
      9          8           0       -0.671708   -1.819210   -0.293743
     10          1           0       -1.164984    1.202127   -2.107599
     11          1           0       -0.189082    2.469574   -1.309558
     12          1           0       -1.733503    1.934344   -0.577950
     13          1           0        1.800161    0.956302   -1.325911
     14          1           0        0.836272   -0.314625   -2.123087
     15          1           0        1.432605   -1.683001   -0.419882
     16          1           0       -0.512409    1.512771    1.568621
     17          1           0        1.032435    2.000918    0.816809
     18          1           0        1.711210   -0.207391    1.348938
     19          1           0       -2.593477   -1.174600    0.709231
 ---------------------------------------------------------------------
 Rotational constants (GHZ):           1.8505622           1.4750471           1.3997272
   146 basis functions,   265 primitive gaussians,   155 cartesian basis functions
    36 alpha electrons       36 beta electrons
       nuclear repulsion energy       515.6557409463 Hartrees.
 NAtoms=   19 NActive=   19 NUniq=   19 SFac= 1.00D+00 NAtFMM=   60 NAOKFM=F Big=F
 Nuclear repulsion after empirical dispersion term =      515.6434008399 Hartrees.
   1 Symmetry operations used in ECPInt.
 ECPInt:  NShTT=    2775 NPrTT=   11173 LenC2=    2754 LenP2D=    8774.
 LDataN:  DoStor=T MaxTD1= 4 Len=   56
 Lowest energy guess from the checkpoint file:  "35.chk"
 B after Tr=    -0.000000    0.000000    0.000000
         Rot=    0.996887    0.077538   -0.012250    0.007354 Ang=   9.04 deg.
 B after Tr=    -0.000000   -0.000000    0.000000
         Rot=    0.999601   -0.015134   -0.009074    0.022034 Ang=  -3.24 deg.
     Accept linear search using points  3 and  4.
     Accept linear search using points  2 and  3.
     Accept linear search using points  1 and  2.
     Minimum is close to point  2 DX= -4.62D-02 DF= -3.50D-07 DXR=  5.41D-02 DFR=  2.38D-03 which will be used.
     Accept linear search using points  1 and  2.
     Accept linear search using points  1 and  2.
     Minimum is close to point  2 DX= -1.70D-04 DF= -1.93D-12 DXR=  1.70D-04 DFR=  2.87D-08 which will be used.
 SCF Done:  E(RwB97XD) =  -496.909184758     a.u. after    7 cycles
            Convg  =    0.1560D-08                    35 Fock formations.
              S**2 =  0.0000                  -V/T =  2.0083
   1 Symmetry operations used in ECPInt.
 ECPInt:  NShTT=    2775 NPrTT=   11173 LenC2=    2754 LenP2D=    8774.
 LDataN:  DoStor=T MaxTD1= 5 Len=  102
 Calling FoFJK, ICntrl=      2127 FMM=F ISym2X=0 I1Cent= 0 IOpClX= 0 NMat=1 NMatS=1 NMatT=0.

 GradGradGradGradGradGradGradGradGradGradGradGradGradGradGradGradGradGrad
 Using GEDIIS/GDIIS optimizer.
 FormGI is forming the generalized inverse of G from B-inverse, IUseBI=4.
 Internal  Forces:  Max     0.002975047 RMS     0.000949974
 Step number   4 out of a maximum of   99
 All quantities printed in internal units (Hartrees-Bohrs-Radians)
 Mixed Optimization -- En-DIIS/RFO-DIIS
 Trust test= 2.57D-01 RLast= 2.80D-01 DXMaxT set to 2.52D-01
 ITU=  0 -1  1  0
 Use linear search instead of GDIIS.
     Eigenvalues ---    0.00337   0.00380   0.00480   0.00744   0.01317
     Eigenvalues ---    0.01632   0.02619   0.02798   0.04665   0.04782
     Eigenvalues ---    0.05164   0.05466   0.05604   0.05658   0.05812
     Eigenvalues ---    0.05880   0.06802   0.11726   0.11813   0.14112
     Eigenvalues ---    0.14475   0.15215   0.15469   0.15984   0.16000
     Eigenvalues ---    0.16000   0.16048   0.16572   0.18701   0.22607
     Eigenvalues ---    0.23596   0.24848   0.27251   0.28127   0.29317
     Eigenvalues ---    0.29627   0.33108   0.33861   0.34150   0.34435
     Eigenvalues ---    0.34880   0.35098   0.35211   0.36634   0.45007
     Eigenvalues ---    0.45968   0.52670   0.53016   0.53326   0.59096
     Eigenvalues ---    1.01570
 Quartic linear search produced a step of -0.41907.
 Iteration  1 RMS(Cart)=  0.03761506 RMS(Int)=  0.00083512
 Iteration  2 RMS(Cart)=  0.00107780 RMS(Int)=  0.00003512
 Iteration  3 RMS(Cart)=  0.00000045 RMS(Int)=  0.00003512
 Variable       Old X    -DE/DX   Delta X   Delta X   Delta X     New X
                                 (Linear)    (Quad)   (Total)
    R1        2.89711   0.00015   0.00230  -0.00350  -0.00120   2.89591
    R2        2.08948  -0.00129  -0.00158  -0.00102  -0.00260   2.08689
    R3        2.09029  -0.00134  -0.00172  -0.00095  -0.00268   2.08761
    R4        2.08505  -0.00133  -0.00181  -0.00063  -0.00244   2.08261
    R5        2.91685  -0.00264  -0.00201  -0.00031  -0.00232   2.91453
    R6        2.92778  -0.00071  -0.00043  -0.00040  -0.00083   2.92696
    R7        2.87645  -0.00211  -0.00021  -0.00228  -0.00249   2.87395
    R8        2.65975  -0.00020  -0.00027  -0.00015  -0.00042   2.65933
    R9        2.08664  -0.00069  -0.00125  -0.00008  -0.00133   2.08532
   R10        2.09583  -0.00087  -0.00053  -0.00125  -0.00178   2.09405
   R11        1.84084  -0.00077  -0.00075   0.00014  -0.00062   1.84022
   R12        2.63579  -0.00025   0.00152  -0.00211  -0.00059   2.63520
   R13        2.08524  -0.00073  -0.00092  -0.00054  -0.00146   2.08378
   R14        2.10399  -0.00052  -0.00145   0.00019  -0.00126   2.10273
   R15        1.84116   0.00010  -0.00039   0.00044   0.00005   1.84121
   R16        2.52001   0.00081  -0.00144   0.00209   0.00065   2.52067
   R17        2.28592  -0.00108  -0.00053   0.00002  -0.00051   2.28540
   R18        1.84129  -0.00047  -0.00142   0.00129  -0.00013   1.84116
    A1        1.94554  -0.00025  -0.00225   0.00155  -0.00069   1.94484
    A2        1.91620   0.00028   0.00070  -0.00022   0.00048   1.91668
    A3        1.94078  -0.00006  -0.00143   0.00101  -0.00042   1.94036
    A4        1.88224   0.00002   0.00110  -0.00071   0.00039   1.88263
    A5        1.88719   0.00010   0.00117  -0.00102   0.00015   1.88734
    A6        1.89002  -0.00008   0.00086  -0.00073   0.00013   1.89014
    A7        1.91004   0.00050   0.00139  -0.00047   0.00090   1.91094
    A8        1.91251  -0.00021   0.00194   0.00116   0.00310   1.91561
    A9        1.93258   0.00088   0.00504  -0.00437   0.00067   1.93325
   A10        1.92528   0.00028  -0.00303   0.00301  -0.00001   1.92528
   A11        1.90373  -0.00194  -0.00514  -0.00069  -0.00581   1.89792
   A12        1.87959   0.00048  -0.00036   0.00139   0.00108   1.88068
   A13        1.98858  -0.00243  -0.00227  -0.00131  -0.00359   1.98499
   A14        1.88932   0.00109  -0.00059   0.00455   0.00397   1.89329
   A15        1.91407  -0.00025  -0.00142  -0.00080  -0.00222   1.91184
   A16        1.86135   0.00064  -0.00180   0.00297   0.00118   1.86253
   A17        1.93220   0.00113   0.00367  -0.00386  -0.00020   1.93200
   A18        1.87367  -0.00002   0.00260  -0.00122   0.00139   1.87505
   A19        1.84751   0.00143   0.00136   0.00257   0.00393   1.85143
   A20        1.97624  -0.00138  -0.00334   0.00208  -0.00126   1.97498
   A21        1.90793   0.00087   0.00132  -0.00048   0.00085   1.90878
   A22        1.87511  -0.00030  -0.00119   0.00167   0.00048   1.87559
   A23        1.87274  -0.00037  -0.00268   0.00004  -0.00264   1.87010
   A24        1.95544   0.00131   0.00324  -0.00111   0.00214   1.95757
   A25        1.87364  -0.00006   0.00300  -0.00247   0.00053   1.87416
   A26        1.86401   0.00156   0.00191   0.00206   0.00397   1.86798
   A27        1.97529   0.00097  -0.00030   0.00153   0.00105   1.97633
   A28        2.18576  -0.00298  -0.00186  -0.00162  -0.00366   2.18210
   A29        2.12206   0.00202   0.00218   0.00045   0.00245   2.12450
   A30        1.87456   0.00024   0.00222   0.00028   0.00250   1.87707
    D1        1.02272  -0.00060  -0.00020   0.00092   0.00071   1.02343
    D2        3.13591  -0.00008  -0.00184   0.00506   0.00322   3.13913
    D3       -1.07641   0.00092   0.00209   0.00482   0.00692  -1.06950
    D4       -1.06187  -0.00065  -0.00060   0.00096   0.00035  -1.06151
    D5        1.05132  -0.00012  -0.00224   0.00510   0.00286   1.05418
    D6        3.12219   0.00087   0.00169   0.00486   0.00655   3.12874
    D7        3.13005  -0.00069  -0.00122   0.00137   0.00014   3.13020
    D8       -1.03994  -0.00017  -0.00286   0.00551   0.00265  -1.03729
    D9        1.03092   0.00083   0.00107   0.00527   0.00634   1.03727
   D10        3.10633   0.00024  -0.01161   0.02705   0.01544   3.12177
   D11        1.03894   0.00018  -0.00756   0.02103   0.01347   1.05241
   D12       -1.00017  -0.00027  -0.00956   0.02034   0.01079  -0.98938
   D13        1.00090  -0.00000  -0.01299   0.02403   0.01103   1.01192
   D14       -1.06649  -0.00005  -0.00894   0.01800   0.00905  -1.05743
   D15       -3.10560  -0.00051  -0.01094   0.01732   0.00637  -3.09923
   D16       -1.06019   0.00042  -0.00777   0.02097   0.01321  -1.04698
   D17       -3.12757   0.00037  -0.00373   0.01495   0.01124  -3.11634
   D18        1.11650  -0.00008  -0.00572   0.01426   0.00856   1.12506
   D19        3.06051  -0.00081  -0.03207  -0.03617  -0.06824   2.99227
   D20        0.97376  -0.00005  -0.02745  -0.03723  -0.06468   0.90908
   D21       -1.05411  -0.00027  -0.03103  -0.03497  -0.06601  -1.12012
   D22       -1.11873  -0.00014  -0.03103  -0.03411  -0.06514  -1.18387
   D23        3.07771   0.00061  -0.02640  -0.03518  -0.06158   3.01613
   D24        1.04984   0.00040  -0.02999  -0.03291  -0.06291   0.98693
   D25        0.95712  -0.00204  -0.03912  -0.03240  -0.07151   0.88561
   D26       -1.12963  -0.00128  -0.03449  -0.03346  -0.06795  -1.19758
   D27        3.12568  -0.00150  -0.03808  -0.03120  -0.06928   3.05640
   D28       -0.91235  -0.00080   0.00120  -0.02510  -0.02388  -0.93622
   D29        2.21515   0.00041   0.01021   0.00380   0.01401   2.22916
   D30       -3.01524  -0.00073  -0.00033  -0.02135  -0.02168  -3.03692
   D31        0.11225   0.00048   0.00868   0.00755   0.01620   0.12846
   D32        1.17837  -0.00024   0.00634  -0.02538  -0.01903   1.15934
   D33       -1.97732   0.00096   0.01535   0.00352   0.01886  -1.95847
   D34        1.19300  -0.00107  -0.02405   0.01480  -0.00924   1.18376
   D35       -3.00688  -0.00072  -0.02732   0.02169  -0.00563  -3.01251
   D36       -0.97397   0.00021  -0.02333   0.01992  -0.00342  -0.97739
   D37        0.92551  -0.00105  -0.01745   0.00436  -0.01308   0.91243
   D38        3.03232  -0.00106  -0.01964   0.00507  -0.01459   3.01773
   D39       -1.19862  -0.00062  -0.01584   0.00146  -0.01438  -1.21300
   D40       -3.09499   0.00043   0.00445   0.01191   0.01639  -3.07859
   D41        0.06013  -0.00068  -0.00421  -0.01578  -0.02003   0.04010
         Item               Value     Threshold  Converged?
 Maximum Force            0.002975     0.000015     NO 
 RMS     Force            0.000950     0.000010     NO 
 Maximum Displacement     0.160148     0.000060     NO 
 RMS     Displacement     0.037663     0.000040     NO 
 GradGradGradGradGradGradGradGradGradGradGradGradGradGradGradGradGradGrad

                    Distance matrix (angstroms):
[...]
 ,0.02592022,0.02385569,-0.14413843,0.02650031,0.05360922,0.35901855,0.
 00443386,-0.00016465,0.00426634,0.01795425,-0.01307890,-0.01485211,0.0
 6331120,-0.15160977,-0.07277937,0.11978854,0.49524075,-0.00098689,0.00
 083608,0.00044519,0.00001331,0.00187673,0.01249696,0.07124435,-0.05305
 462,-0.13547243,-0.05731874,0.16556232,0.19508023,-0.00754925,-0.00517
 227,0.01648589,-0.08836511,-0.01472101,0.01318372,0.01402538,0.0124329
 9,-0.02769640,0.00009337,-0.00221784,0.00684257,0.61299733,0.00723135,
 0.01255972,-0.01800280,-0.01600784,-0.11504431,0.04442681,-0.00276965,
 -0.00825440,0.01995123,-0.00215527,0.00188374,-0.00593344,-0.03321784,
 0.56946706,0.00991318,0.00467276,-0.02159639,0.00345396,0.03509887,-0.
 11954048,-0.00469746,0.01789169,-0.01787890,0.00311012,-0.00176431,-0.
 00815100,0.07433115,0.01975212,0.49561329,0.00029433,-0.00334677,0.003
 53336,-0.00811614,0.00905019,0.01880074,-0.00553469,0.00405394,0.00250
 776,0.00426445,0.00283962,-0.00994268,-0.11854640,0.06172224,0.0568764
 8,0.35435052,-0.00047945,-0.00023638,0.00202686,-0.00049491,0.01448126
 ,0.00148697,0.00479619,-0.00515846,-0.00440264,0.00189767,-0.00002236,
 0.01492769,0.05499869,-0.14958885,-0.09075574,-0.26208564,0.31982373,0
 .00120429,0.00623713,-0.00592087,0.02279964,-0.02334522,-0.03110875,-0
 .00018051,-0.00126946,0.00415646,-0.00499364,0.00835845,-0.00779608,0.
 02901976,-0.06431665,-0.18479462,0.06899619,0.01098416,0.37567242,0.01
 861741,0.01154935,0.00311135,-0.12511159,-0.04557310,-0.01845814,-0.02
 691531,-0.02095656,-0.01525139,0.00495883,-0.00071095,0.00148552,-0.00
 758870,-0.01736137,0.00719567,0.00017178,0.00243281,-0.00451630,0.6059
 7998,-0.00326308,-0.02012262,-0.00952384,-0.04057245,-0.12827147,-0.02
 722723,-0.00364997,0.02463342,0.00552774,-0.00479787,-0.01403923,-0.00
 647733,-0.01844492,-0.01922215,0.01339285,0.00524401,-0.00687563,-0.00
 555034,-0.10398063,1.02168087,-0.01074946,-0.02036144,-0.00973143,-0.0
 1569961,-0.01973802,-0.10596086,-0.01621307,-0.01317450,-0.00849937,0.
 00337565,0.00006371,-0.00094964,0.01803841,0.02819501,0.02242213,-0.00
 222471,-0.00549673,-0.00287156,0.16728122,-0.00554603,0.32310794,-0.00
 349073,0.00081431,0.00046412,-0.02626284,0.00284848,-0.01680103,-0.000
 63862,-0.00527918,-0.00071278,-0.00183610,-0.00106129,0.00026450,-0.00
 128662,0.00182730,-0.00439404,-0.00001414,-0.00104394,0.00194949,-0.27
 436026,0.05233914,-0.09434774,0.46207896,-0.00097740,-0.00147876,-0.00
 077444,-0.02430594,0.00947789,-0.01205323,-0.00108559,-0.00810189,-0.0
 0226880,0.00170384,0.00385856,0.00150577,-0.00005708,-0.00159662,-0.00
 097236,-0.00069273,0.00156624,0.00044315,0.02448913,-0.14297365,0.0058
 6548,0.06430687,0.51810550,-0.00106546,0.00015305,0.00040116,-0.018754
 50,0.00095701,0.00117145,-0.00106925,-0.00288620,0.00039533,-0.0014099
 3,-0.00062164,0.00035971,-0.00172397,-0.00064947,-0.00512449,0.0012234
 3,0.00063786,0.00213029,-0.10127436,0.01967306,-0.11556453,0.21562218,
 0.08070918,0.16261179,-0.00336629,-0.00309080,0.00018022,0.01771563,-0
 .01279008,-0.00660794,-0.00291437,0.00478510,0.00413447,-0.01297547,-0
 .00857572,-0.00371729,-0.00103127,0.00109640,0.00137512,0.00080339,-0.
 00260027,0.00114124,-0.14692140,0.13709119,-0.02468212,-0.02992064,0.0
 8194507,-0.02384831,0.16483832,-0.00694917,-0.00292843,0.00122364,0.00
 804978,-0.04203641,0.00232058,0.00731091,-0.00631229,0.00070718,-0.000
 79883,0.00873245,0.00223232,0.00131013,-0.00414622,-0.00971758,-0.0020
 8147,0.00460388,0.00242459,0.13272852,-0.73723054,0.02305770,0.0650136
 1,-0.03765749,0.02693128,-0.19379042,0.83124392,0.00191459,0.00121963,
 0.00036238,-0.00580078,-0.01173870,0.02236256,0.00164813,-0.00002517,-
 0.00145778,-0.00116820,-0.00084743,0.00296140,-0.00153041,-0.00589666,
 -0.00687048,0.00075265,0.00374386,0.00081753,-0.02396617,0.02813695,-0
 .08897090,-0.02473988,0.03399976,0.02132783,0.04746454,-0.04680478,0.0
 5338121,-0.07348778,-0.04053307,0.06515158,-0.00551210,-0.00853046,0.0
 1179715,-0.00010427,-0.00097935,0.00173139,0.00032120,-0.00004782,-0.0
 0094393,-0.00112183,0.00324510,0.00043326,-0.00034670,-0.00021260,0.00
 147976,0.00042770,-0.00103642,-0.00058412,-0.00015039,0.00010034,0.000
 18657,-0.00020058,0.00052737,-0.00004044,0.07403095,-0.04162589,-0.116
 86753,0.11103488,0.00663861,0.01125210,-0.01845021,0.00006383,0.000728
 45,-0.00089189,-0.00032249,0.00007684,0.00024926,0.00140500,-0.0034398
 6,-0.00069244,0.00105792,0.00048817,-0.00175027,-0.00001458,0.00160831
 ,-0.00087478,0.00016454,0.00000572,0.00014140,0.00010396,0.00008593,0.
 00039409,0.04184599,0.12162867,0.06558475,0.10964367,-0.22562321,0.004
 92713,0.00912732,-0.01599831,-0.00115172,0.00089476,0.00004674,-0.0002
 0586,-0.00037160,0.00055845,0.00064504,-0.00411708,-0.00024781,0.00130
 478,0.00015715,-0.00160624,0.00143228,0.00173576,-0.00021832,-0.000742
 68,-0.00022006,0.00015876,-0.00019507,-0.00068644,0.00008139,-0.074097
 55,-0.11602538,0.24158655,-0.14266641,-0.12048191,-0.04715018,0.010667
 17,0.01452998,0.00603526,0.00062454,0.00107414,0.00054644,0.00033253,-
 0.00050082,-0.00032223,0.00066539,0.00051817,0.00017302,0.00002340,-0.
 00015620,-0.00021424,-0.00437981,0.00107734,0.00144959,0.00096921,-0.0
 0062453,-0.00022934,0.00100183,0.00094703,-0.00022003,-0.00492947,-0.0
 0460967,-0.00333932,0.14970358,-0.11963916,-0.20048304,-0.05780520,-0.
 01102716,-0.01574845,-0.00693396,-0.00150304,-0.00039812,-0.00050361,0
 .00036881,0.00078493,0.00045432,-0.00088797,0.00033735,0.00140545,0.00
 046014,0.00030364,0.00023197,0.00472366,0.00045235,-0.00146467,-0.0006
 5855,0.00018352,0.00007937,-0.00081608,-0.00182456,0.00012922,-0.00766
 295,-0.00997208,-0.00568512,0.12802259,0.21390238,-0.04605622,-0.05733
 733,-0.07095228,-0.01262025,-0.01553400,-0.00722544,-0.00085323,0.0004
 8314,0.00034629,0.00020683,0.00036472,-0.00013254,-0.00137980,-0.00156
 257,0.00009107,0.00013949,0.00102852,0.00033767,0.00377545,0.00015345,
 -0.00200163,-0.00074080,-0.00048759,-0.00001071,-0.00068666,-0.0019808
 2,0.00026518,0.01586711,0.01945225,0.01016640,0.04782835,0.06667323,0.
 07282206,-0.22653304,0.08401824,-0.10233405,-0.01277659,0.00520893,-0.
 00693939,0.00036561,0.00075207,0.00321118,-0.00095347,0.00111346,-0.00
 008697,-0.00031271,0.00057816,-0.00139090,0.00060549,-0.00053016,0.000
 22869,-0.00112822,-0.00003127,-0.00054744,0.00023399,-0.00135664,-0.00
 041674,0.00046575,-0.00007859,0.00008683,0.01071610,-0.00472525,0.0056
 2304,-0.01177242,0.00783654,-0.00661453,0.24043054,0.08192111,-0.08678
 965,0.04857128,0.01586235,-0.00871616,0.00946619,-0.00037521,-0.001577
 16,-0.00364081,0.00193161,-0.00091400,-0.00005934,-0.00076052,0.000312
 30,0.00097708,-0.00034864,0.00000321,-0.00009674,0.00361346,-0.0010196
 8,0.00216916,-0.00137427,0.00039300,-0.00036812,-0.00097141,0.00070438
 ,-0.00057711,0.01283336,-0.00559847,0.00561934,-0.01955341,0.01179744,
 -0.01170251,-0.09232932,0.09012962,-0.10446728,0.05056902,-0.10804470,
 0.01824510,-0.00758273,0.01019612,0.00035265,-0.00136628,-0.00341862,0
 .00163938,-0.00124163,0.00027884,0.00120991,-0.00080175,0.00125170,-0.
 00049474,0.00024090,0.00015732,0.00004878,-0.00006652,0.00111721,0.000
 02720,-0.00072136,-0.00073710,-0.00015163,0.00021910,-0.00013627,-0.02
 078587,0.00727847,-0.00956674,-0.00453579,0.00358455,-0.00382700,0.108
 81198,-0.05031605,0.11308744,0.00047170,-0.00127368,-0.00040579,-0.015
 34051,-0.01859734,-0.00708708,-0.15219322,-0.12853898,-0.04588894,0.01
 398871,0.02342922,0.00952914,0.00056085,-0.00158622,0.00160636,0.00036
 713,0.00021667,-0.00016691,-0.00193841,0.00359004,-0.00153939,-0.00173
 589,-0.00130941,-0.00093131,0.00027448,-0.00028550,-0.00022675,-0.0000
 4022,0.00003513,-0.00001035,-0.00037873,0.00103407,0.00029168,0.000291
 55,0.00024829,0.00008913,0.16059593,0.00016308,0.00090055,0.00041519,0
 .00770611,0.00842963,0.00417391,-0.12090925,-0.19629078,-0.05114008,-0
 .00693623,-0.02259257,-0.01189454,0.00085327,0.00086360,0.00021511,-0.
 00022070,0.00026834,-0.00011006,0.00227214,-0.00254988,0.00136856,0.00
 037605,0.00100618,0.00018839,-0.00073171,0.00097498,-0.00010097,-0.000
 03584,-0.00007369,-0.00009777,0.00003295,-0.00002751,0.00004542,-0.000
 10106,0.00019765,0.00008355,0.12331769,0.21871434,0.00095095,-0.000385
 96,0.00015663,-0.01272843,-0.01202588,-0.00553928,-0.03929586,-0.04620
 175,-0.07028260,-0.00896035,-0.02324898,-0.00835979,-0.00068575,-0.002
 29680,0.00033498,0.00015967,0.00074387,-0.00005558,-0.00186387,0.00341
 412,-0.00059257,-0.00095133,-0.00090361,-0.00060907,0.00026391,-0.0003
 8362,0.00081380,-0.00001178,0.00017448,0.00002444,0.00014851,0.0001497
 3,0.00048099,0.00014182,0.00010491,-0.00012778,0.04497689,0.06377609,0
 .07654536,0.00138230,-0.00036140,-0.00113764,0.00643333,0.01424675,-0.
 02185989,-0.07287384,-0.04007437,0.05740437,-0.00949828,-0.00108925,0.
 02508359,-0.00566188,0.00180396,-0.00087913,0.00114817,-0.00128592,0.0
 0033994,0.00073592,0.00193626,-0.00068132,0.00015197,-0.00017886,0.000
 28242,0.00037872,-0.00096759,-0.00012399,-0.00039630,0.00008971,0.0004
 0621,-0.00004815,0.00003063,0.00014601,0.00007266,-0.00026550,0.000045
 33,-0.00341898,-0.00933475,0.01510997,0.08214428,-0.00054287,0.0001079
 6,0.00073076,-0.00425486,-0.00484607,0.00861321,-0.04252318,-0.1224285
 3,0.10832937,0.01419423,0.01067614,-0.02759949,0.00329337,-0.00115978,
 0.00047748,-0.00070953,0.00084713,-0.00001878,-0.00011487,-0.00129396,
 -0.00070632,0.00018072,0.00020337,0.00004946,-0.00065737,0.00056558,-0
 .00041621,0.00078785,-0.00017800,-0.00032675,-0.00006416,-0.00002141,0
 .00009170,0.00003353,0.00012594,-0.00027762,-0.00495297,-0.00907367,0.
 01861796,0.03442734,0.12460646,0.00070717,-0.00072275,0.00031630,0.004
 19762,0.01038234,-0.01350232,0.05531315,0.10332919,-0.21310315,0.01436
 442,-0.00280496,-0.02110110,-0.00377864,0.00043735,-0.00022105,-0.0000
 5723,-0.00008400,-0.00016067,0.00042352,0.00265674,-0.00036453,0.00032
 569,-0.00043671,0.00015625,-0.00000056,-0.00141550,0.00120720,-0.00033
 360,0.00021796,0.00067776,-0.00014785,0.00003066,0.00000155,-0.0002208
 1,-0.00014994,0.00019826,-0.00303623,-0.00409987,0.00964510,-0.0700713
 1,-0.10858736,0.23571277,-0.00134274,-0.00040223,-0.00019724,0.0004243
 2,0.00109686,0.00064598,0.01468979,0.02228840,0.00614855,-0.18099770,-
 0.22084396,-0.03968326,0.00032921,0.00015308,-0.00100499,-0.00151228,0
 .00024781,-0.00014358,-0.00718149,0.01652313,-0.00203183,0.00447487,-0
 .00451463,0.00267124,0.00381275,-0.00927442,-0.00051323,0.00012702,0.0
 0006819,0.00005985,0.00019221,-0.00051233,-0.00028919,-0.00015277,0.00
 018058,0.00007721,-0.00174394,0.00319910,0.00273555,-0.00053397,0.0002
 8369,0.00172103,0.16939310,-0.00056235,-0.00001725,-0.00076783,-0.0014
 0503,-0.00028851,0.00155277,-0.01274858,-0.02784548,-0.01017036,-0.180
 55713,-0.31164493,-0.07788312,0.00036745,-0.00152521,-0.00068068,-0.00
 041907,0.00177906,-0.00072543,0.00436638,0.00316358,0.00095304,0.00008
 524,-0.00130702,0.00003026,-0.00334116,-0.00552101,-0.00055993,0.00001
 075,-0.00000451,0.00010138,0.00009829,0.00006885,0.00006761,-0.0001427
 5,0.00037842,0.00017332,0.00345263,-0.00032568,-0.00197732,-0.00092989
 ,0.00233129,0.00113995,0.19287064,0.34328340,-0.00057764,0.00000368,-0
 .00015225,0.00113903,0.00082961,0.00068671,-0.01225708,-0.02781448,-0.
 00726483,-0.01831078,-0.05850910,-0.03880318,-0.00065849,0.00133077,0.
 00119162,-0.00059930,-0.00217299,-0.00145508,-0.00134247,0.00130773,0.
 00086093,0.00013512,-0.00005092,0.00053445,-0.00090192,-0.00093629,-0.
 00438845,0.00014873,-0.00003840,-0.00015308,0.00004241,-0.00002071,-0.
 00004498,-0.00003370,0.00013629,0.00004077,0.00317640,-0.00315697,-0.0
 0244251,-0.00148240,-0.00030266,0.00007553,0.02913734,0.08556301,0.051
 03553,0.00106803,-0.00051166,0.00014463,0.00809317,-0.00512468,0.00551
 662,-0.00076212,-0.00092646,0.00198580,-0.00000739,0.00011656,-0.00097
 689,-0.21727334,0.08944610,-0.09451697,-0.01216127,0.01324639,-0.00002
 331,0.00018892,0.00021803,-0.00028268,-0.00021160,-0.00089603,0.000506
 84,0.00016092,-0.00027950,0.00010879,0.00014174,-0.00009426,-0.0000603
 8,-0.00006687,0.00014598,-0.00005255,0.00007520,-0.00001083,0.00001015
 ,0.00018449,0.00006168,0.00022791,0.00069902,-0.00013910,0.00027483,-0
 .00005958,-0.00011384,0.00012330,0.23305003,0.00039219,0.00048335,-0.0
 0140506,0.01300082,-0.00836016,0.00962812,-0.00272339,-0.00098941,0.00
 211869,-0.00007628,-0.00020503,0.00014573,0.08286803,-0.09844273,0.047
 75537,0.02301944,-0.01541538,0.00385404,0.00375549,-0.00059562,0.00143
 485,-0.00106753,0.00048569,-0.00071787,-0.00087455,0.00033297,-0.00013
 732,-0.00015997,-0.00017672,-0.00020306,-0.00021892,0.00002149,0.00009
 986,-0.00026281,0.00058241,0.00015108,0.00021479,0.00018779,0.00017378
 ,0.00085576,-0.00009046,0.00077217,0.00014286,0.00029164,-0.00009909,-
 0.10304318,0.11096603,-0.00137663,0.00054996,0.00071994,-0.01926884,0.
 01019410,-0.01181894,0.00371281,0.00213086,-0.00441807,-0.00011499,-0.
 00007252,0.00172206,-0.10094043,0.05546479,-0.10455835,0.02786933,-0.0
 1952780,0.01048678,-0.00205404,-0.00009510,-0.00061444,0.00055022,-0.0
 0057341,0.00034715,0.00042895,-0.00008306,0.00027369,0.00020870,-0.000
 16367,0.00032114,-0.00001907,-0.00003259,-0.00010453,0.00095377,-0.000
 25505,-0.00058487,0.00034632,-0.00006587,0.00026979,-0.00134480,0.0009
 5873,-0.00070251,-0.00004584,-0.00004446,-0.00023319,0.09335730,-0.049
 60240,0.11408549,-0.00001158,-0.00035359,-0.00056051,-0.00610486,-0.00
 687191,-0.00397771,0.00020341,0.00136729,-0.00074988,0.00024505,-0.000
 12614,-0.00010472,-0.16251185,-0.10908935,-0.04704426,0.01715206,0.015
 13202,0.00902295,-0.00027197,0.00099172,0.00171688,-0.00020547,-0.0006
 8219,0.00011203,0.00021522,-0.00133140,-0.00021817,0.00018136,0.000287
 70,0.00011406,-0.00012775,0.00028535,0.00084394,0.00001957,-0.00012275
 ,-0.00003494,0.00061493,-0.00003283,0.00024831,0.00010512,0.00020563,0
 .00011469,-0.00024524,0.00004484,-0.00001623,-0.01356213,-0.01731198,-
 0.00527295,0.16278693,0.00052213,0.00004762,-0.00051822,-0.01585709,-0
 .01474591,-0.00199962,-0.00114129,-0.00022454,-0.00213404,0.00072065,0
 .00010652,0.00112411,-0.10656792,-0.16405163,-0.04330815,-0.00290045,-
 0.01968309,-0.01792301,0.00114023,0.00059203,0.00434689,-0.00052148,0.
 00024241,-0.00067931,-0.00008896,-0.00119670,-0.00082129,0.00018499,0.
 00031954,0.00025495,-0.00009387,0.00067703,0.00030598,0.00002382,0.000
 03991,0.00010870,0.00087903,0.00000111,0.00088101,0.00013558,0.0005619
 4,0.00006750,-0.00035911,0.00020285,-0.00035506,0.00808878,0.01159286,
 0.00399729,0.11737454,0.18493581,-0.00025059,0.00082565,0.00152609,0.0
 1838601,0.02085739,0.00320214,0.00163319,0.00007796,0.00094773,-0.0003
 5303,-0.00011935,0.00101087,-0.04731376,-0.04406469,-0.06700780,-0.007
 44615,-0.02924224,-0.01527880,-0.00002751,-0.00026077,-0.00740310,0.00
 071280,-0.00000342,0.00121316,-0.00013581,0.00210177,0.00208636,-0.000
 31937,-0.00005204,0.00016964,-0.00009624,-0.00041369,-0.00033978,0.000
 06012,-0.00007282,-0.00007568,-0.00043524,-0.00018909,-0.00031861,0.00
 007812,-0.00024925,0.00022449,0.00025831,0.00020456,-0.00030537,-0.009
 60099,-0.00958429,-0.00168873,0.04591813,0.05830389,0.08300098,-0.0001
 8458,0.00084097,-0.00065079,0.00139690,-0.00009926,-0.00182842,0.00239
 673,-0.00282502,0.00185898,-0.00621967,0.00153521,-0.00097052,-0.01782
 967,0.01435192,-0.00430691,-0.23343527,0.17530822,-0.12606134,-0.00274
 669,-0.00080477,0.00045678,0.00058866,0.00001533,0.00023306,0.00012829
 ,0.00046453,-0.00060082,0.00033353,-0.00024957,-0.00033054,0.00001448,
 -0.00017858,-0.00005833,0.00003431,-0.00004965,0.00005361,-0.00025021,
 0.00002161,-0.00021747,-0.00076999,0.00053814,0.00026697,0.00138908,-0
 .00097199,0.00238694,0.00046831,0.00170355,0.00284753,0.00133534,-0.00
 166806,-0.00106897,0.25359890,0.00003050,-0.00069704,0.00105162,-0.000
 54848,0.00182630,-0.00035936,-0.00286992,0.00630209,0.00121542,0.00099
 960,-0.00712051,-0.00615543,0.02439283,-0.01883924,0.00623231,0.165217
 12,-0.14723089,0.08251765,-0.00156393,0.00391060,-0.00098651,0.0008423
 9,-0.00084160,0.00085158,0.00163718,-0.00214716,-0.00048044,-0.0002684
 9,0.00012134,0.00027698,-0.00001092,-0.00010730,-0.00019247,0.00013264
 ,-0.00014172,-0.00009896,0.00000850,-0.00067600,-0.00062127,0.00099738
 ,-0.00094265,-0.00071824,-0.00099823,-0.00304739,0.00433328,-0.0001956
 6,-0.00066319,-0.00270602,0.00014329,0.00054796,0.00189325,-0.18785630
 ,0.16966249,-0.00060588,0.00033758,-0.00083098,0.00212688,0.00019347,0
 .00055926,0.00546544,-0.00568660,-0.00855460,-0.00146436,-0.00168190,0
 .00587442,0.02658756,-0.02176511,0.01461436,-0.16136002,0.11599488,-0.
 14209387,0.00215265,-0.00133850,0.00130821,-0.00132160,0.00035585,-0.0
 0094782,-0.00179370,0.00076660,-0.00061757,0.00006267,0.00001563,-0.00
 016989,0.00006471,-0.00004368,0.00014876,-0.00043995,0.00029783,0.0002
 5726,-0.00020709,0.00049911,0.00016235,-0.00132064,0.00059252,0.001032
 03,0.00110364,0.00312058,0.00077709,0.00321949,-0.00421661,-0.00373697
 ,-0.00025024,-0.00149019,-0.00100560,0.12799131,-0.08595950,0.13305219
 ,0.00030469,0.00065650,0.00013465,-0.00347428,0.00492075,-0.00396513,-
 0.00027946,-0.00208246,-0.00074718,0.00061282,0.00065187,0.00059114,0.
 00040711,0.00021376,-0.00023365,0.00048617,0.00061262,0.00011788,-0.03
 253670,-0.04242947,-0.02273504,-0.12838436,-0.13587956,-0.07011461,0.0
 0753473,-0.00051497,0.00717334,0.00001003,-0.00011888,0.00003635,0.000
 17528,-0.00002194,0.00025271,0.00031845,-0.00042924,-0.00014018,-0.000
 30965,0.00029870,-0.00024866,-0.00005010,0.00001441,-0.00006286,-0.001
 06266,-0.00010444,-0.00010927,-0.00002553,-0.00021432,0.00016265,0.000
 18186,0.00012849,0.00000099,-0.00024844,-0.00008950,-0.00001088,0.1563
 4002,0.00015849,-0.00006595,0.00002679,0.00207406,0.00070585,0.0004453
 5,0.00033759,0.00020378,0.00013980,-0.00006944,0.00003202,0.00014298,0
 .00012562,-0.00011278,0.00002017,0.00014038,0.00004637,0.00005482,-0.0
 0079517,0.01815325,0.00089459,-0.17779241,-0.34157105,-0.12447928,0.00
 166965,-0.00624331,0.00078252,-0.00006879,-0.00000422,-0.00007805,0.00
 001392,0.00005349,0.00003140,-0.00013952,0.00009254,0.00006421,0.00011
 805,0.00006560,0.00000924,-0.00003583,0.00000871,-0.00001453,-0.000149
 45,0.00002789,-0.00004771,0.00001167,-0.00000552,-0.00007378,0.0000897
 9,0.00003428,-0.00001281,-0.00007629,0.00008388,0.00000804,0.17438767,
 0.32849515,0.00022545,0.00063051,0.00043220,-0.00315217,0.00169940,0.0
 0322525,-0.00042967,-0.00060548,0.00026571,0.00045988,0.00029938,-0.00
 002237,-0.00063638,-0.00015106,0.00047223,-0.00003907,-0.00029059,-0.0
 0061634,-0.01815219,-0.01991276,-0.00507354,-0.07529943,-0.10341329,-0
 .06781360,0.00773256,0.00002330,-0.00349909,0.00004975,-0.00001934,-0.
 00020766,-0.00001399,0.00016472,-0.00002107,-0.00009296,-0.00010357,-0
 .00006614,-0.00008084,0.00008990,-0.00010565,0.00000516,0.00002326,-0.
 00009190,-0.00064952,-0.00009734,0.00004027,0.00003812,-0.00016801,0.0
 0023458,0.00013861,-0.00016143,0.00004201,-0.00000107,-0.00009387,0.00
 017138,0.08989775,0.12208626,0.07263373\\-0.00000175,0.00000001,-0.000
 00168,-0.00000036,0.00000046,-0.00000059,-0.00000048,0.00000103,0.0000
 0158,0.00000045,0.00000102,0.00000323,0.00000074,-0.00000056,0.0000004
 4,0.00000212,-0.00000043,0.00000067,0.00000076,-0.00000072,-0.00000047
 ,0.00000124,-0.00000121,-0.00000221,0.00000115,-0.00000037,0.00000024,
 -0.00000257,0.00000050,-0.00000180,-0.00000256,0.00000063,-0.00000125,
 -0.00000138,-0.00000047,-0.00000277,-0.00000169,0.00000145,0.00000194,
 -0.00000163,0.00000114,0.00000125,0.00000081,0.00000030,0.00000252,0.0
 0000119,-0.00000096,-0.00000140,0.00000006,0.00000007,0.00000021,0.000
 00202,-0.00000008,0.00000250,0.00000188,-0.00000182,-0.00000240\\\@


 Spring appears, and we are once more children.
                                  -- Anonymous
 File lengths (MBytes):  RWF=     56 Int=      0 D2E=      0 Chk=      3 Scr=      1
 Normal termination of Gaussian 16 at Mon Feb  6 10:26:52 2023.
real 697.78
user 2646.33
sys 14.77
