 Entering Gaussian System, Link 0=g16
 Input=gaussian_test.inp
 Output=gaussian_test.log
 Initial command:
 /sw/restricted/lms/sw/Gaussian/g16_B01/g16/l1.exe "/scratch/user/peterchao1/peterchao1/6991764_1675632234000000321139546/Gau-213232.inp" -scrdir="/scratch/user/peterchao1/peterchao1/6991764_1675632234000000321139546/"
 Entering Link 1 = /sw/restricted/lms/sw/Gaussian/g16_B01/g16/l1.exe PID=    213288.
  
 Copyright (c) 1988-2017, Gaussian, Inc.  All Rights Reserved.
  
 This is part of the Gaussian(R) 16 program.  It is based on
 the Gaussian(R) 09 system (copyright 2009, Gaussian, Inc.),
 the Gaussian(R) 03 system (copyright 2003, Gaussian, Inc.),
 the Gaussian(R) 98 system (copyright 1998, Gaussian, Inc.),
 the Gaussian(R) 94 system (copyright 1995, Gaussian, Inc.),
 the Gaussian 92(TM) system (copyright 1992, Gaussian, Inc.),
 the Gaussian 90(TM) system (copyright 1990, Gaussian, Inc.),
 the Gaussian 88(TM) system (copyright 1988, Gaussian, Inc.),
 the Gaussian 86(TM) system (copyright 1986, Carnegie Mellon
 University), and the Gaussian 82(TM) system (copyright 1983,
 Carnegie Mellon University). Gaussian is a federally registered
 trademark of Gaussian, Inc.
  
 This software contains proprietary and confidential information,
 including trade secrets, belonging to Gaussian, Inc.
  
 This software is provided under written license and may be
 used, copied, transmitted, or stored only in accord with that
 written license.
  
 The following legend is applicable only to US Government
 contracts under FAR:
  
                    RESTRICTED RIGHTS LEGEND
  
 Use, reproduction and disclosure by the US Government is
 subject to restrictions as set forth in subparagraphs (a)
 and (c) of the Commercial Computer Software - Restricted
 Rights clause in FAR 52.227-19.
  
 Gaussian, Inc.
 340 Quinnipiac St., Bldg. 40, Wallingford CT 06492
  
  
 ---------------------------------------------------------------
 Warning -- This program may not be used in any manner that
 competes with the business of Gaussian, Inc. or will provide
 assistance to any competitor of Gaussian, Inc.  The licensee
 of this program is prohibited from giving any competitor of
 Gaussian, Inc. access to this program.  By using this program,
 the user acknowledges that Gaussian, Inc. is engaged in the
 business of creating and licensing software in the field of
 computational chemistry and represents and warrants to the
 licensee that it is not a competitor of Gaussian, Inc. and that
 it will not use this program in any manner prohibited above.
 ---------------------------------------------------------------
  

 Cite this work as:
 Gaussian 16, Revision B.01,
 M. J. Frisch, G. W. Trucks, H. B. Schlegel, G. E. Scuseria, 
 M. A. Robb, J. R. Cheeseman, G. Scalmani, V. Barone, 
 G. A. Petersson, H. Nakatsuji, X. Li, M. Caricato, A. V. Marenich, 
 J. Bloino, B. G. Janesko, R. Gomperts, B. Mennucci, H. P. Hratchian, 
 J. V. Ortiz, A. F. Izmaylov, J. L. Sonnenberg, D. Williams-Young, 
 F. Ding, F. Lipparini, F. Egidi, J. Goings, B. Peng, A. Petrone, 
 T. Henderson, D. Ranasinghe, V. G. Zakrzewski, J. Gao, N. Rega, 
 G. Zheng, W. Liang, M. Hada, M. Ehara, K. Toyota, R. Fukuda, 
 J. Hasegawa, M. Ishida, T. Nakajima, Y. Honda, O. Kitao, H. Nakai, 
 T. Vreven, K. Throssell, J. A. Montgomery, Jr., J. E. Peralta, 
 F. Ogliaro, M. J. Bearpark, J. J. Heyd, E. N. Brothers, K. N. Kudin, 
 V. N. Staroverov, T. A. Keith, R. Kobayashi, J. Normand, 
 K. Raghavachari, A. P. Rendell, J. C. Burant, S. S. Iyengar, 
 J. Tomasi, M. Cossi, J. M. Millam, M. Klene, C. Adamo, R. Cammi, 
 J. W. Ochterski, R. L. Martin, K. Morokuma, O. Farkas, 
 J. B. Foresman, and D. J. Fox, Gaussian, Inc., Wallingford CT, 2016.
 
 ******************************************
 Gaussian 16:  ES64L-G16RevB.01 20-Dec-2017
                 5-Feb-2023 
 ******************************************
 %nprocshared=4
 Will use up to    4 processors via shared memory.
 %mem=8000mb
 %chk=12.chk
 %nprocshared=4
 Will use up to    4 processors via shared memory.
 %mem=8000mb
 ----------------------------------------------------------------------
 #T wB97XD/def2svpp opt=tight freq int(grid=ultrafine) scf=(verytight,q
 c) Volume=tight
 ----------------------------------------------------------------------
 -----
 Dimer
 -----
 Symbolic Z-matrix:
 Charge =  0 Multiplicity = 1
 C                    -4.1872    0.71176   0.00538 
 C                    -3.37674  -0.57596   0.00251 
 C                    -1.88884  -0.32119  -0.00134 
 O                    -1.18393  -1.42553  -0.0023 
 O                    -1.39825   0.79202  -0.00321 
 H                    -5.25038   0.48741   0.00953 
 H                    -3.95578   1.30551  -0.87501 
 H                    -3.94896   1.30574   0.88379 
 H                    -3.607    -1.183    -0.87589 
 H                    -3.60229  -1.18387   0.88152 
 H                    -0.19302  -1.24995  -0.00413 
 C                     4.18737  -0.71151   0.00535 
 C                     3.37668   0.57608   0.0035 
 C                     1.88881   0.32109  -0.00186 
 O                     1.18383   1.42539  -0.00316 
 O                     1.39827  -0.79214  -0.00417 
 H                     5.2505   -0.48694   0.00995 
 H                     3.95629  -1.30448  -0.87565 
 H                     3.9491   -1.3064    0.88315 
 H                     3.6077    1.18446  -0.87377 
 H                     3.60128   1.18274   0.88364 
 H                     0.19293   1.24972  -0.00453 
 
 Add virtual bond connecting atoms O16        and H11        Dist= 3.13D+00.
 Add virtual bond connecting atoms H22        and O5         Dist= 3.13D+00.

 GradGradGradGradGradGradGradGradGradGradGradGradGradGradGradGradGradGrad
 Initialization pass.
                           ----------------------------
                           !    Initial Parameters    !
                           ! (Angstroms and Degrees)  !
 --------------------------                            --------------------------
 ! Name  Definition              Value          Derivative Info.                !
 --------------------------------------------------------------------------------
 ! R1    R(1,2)                  1.5215         estimate D2E/DX2                !
 ! R2    R(1,6)                  1.0866         estimate D2E/DX2                !
 ! R3    R(1,7)                  1.0868         estimate D2E/DX2                !
 ! R4    R(1,8)                  1.0868         estimate D2E/DX2                !
 ! R5    R(2,3)                  1.5096         estimate D2E/DX2                !
 ! R6    R(2,9)                  1.0923         estimate D2E/DX2                !
 ! R7    R(2,10)                 1.0923         estimate D2E/DX2                !
 ! R8    R(3,4)                  1.3101         estimate D2E/DX2                !
 ! R9    R(3,5)                  1.2165         estimate D2E/DX2                !
 ! R10   R(4,11)                 1.0063         estimate D2E/DX2                !
 ! R11   R(5,22)                 1.6557         estimate D2E/DX2                !
 ! R12   R(11,16)                1.6558         estimate D2E/DX2                !
 ! R13   R(12,13)                1.5215         estimate D2E/DX2                !
 ! R14   R(12,17)                1.0866         estimate D2E/DX2                !
 ! R15   R(12,18)                1.0868         estimate D2E/DX2                !
 ! R16   R(12,19)                1.0868         estimate D2E/DX2                !
 ! R17   R(13,14)                1.5096         estimate D2E/DX2                !
 ! R18   R(13,20)                1.0923         estimate D2E/DX2                !
 ! R19   R(13,21)                1.0923         estimate D2E/DX2                !
 ! R20   R(14,15)                1.3101         estimate D2E/DX2                !
 ! R21   R(14,16)                1.2165         estimate D2E/DX2                !
 ! R22   R(15,22)                1.0064         estimate D2E/DX2                !
 ! A1    A(2,1,6)              110.2704         estimate D2E/DX2                !
 ! A2    A(2,1,7)              110.3298         estimate D2E/DX2                !
 ! A3    A(2,1,8)              110.3226         estimate D2E/DX2                !
 ! A4    A(6,1,7)              108.9194         estimate D2E/DX2                !
 ! A5    A(6,1,8)              108.9187         estimate D2E/DX2                !
 ! A6    A(7,1,8)              108.0268         estimate D2E/DX2                !
 ! A7    A(1,2,3)              112.4693         estimate D2E/DX2                !
 ! A8    A(1,2,9)              111.074          estimate D2E/DX2                !
 ! A9    A(1,2,10)             111.0704         estimate D2E/DX2                !
 ! A10   A(3,2,9)              107.4291         estimate D2E/DX2                !
 ! A11   A(3,2,10)             107.428          estimate D2E/DX2                !
 ! A12   A(9,2,10)             107.1174         estimate D2E/DX2                !
 ! A13   A(2,3,4)              112.8345         estimate D2E/DX2                !
 ! A14   A(2,3,5)              123.4994         estimate D2E/DX2                !
 ! A15   A(4,3,5)              123.6661         estimate D2E/DX2                !
 ! A16   A(3,4,11)             112.5029         estimate D2E/DX2                !
 ! A17   A(3,5,22)             129.8309         estimate D2E/DX2                !
 ! A18   A(13,12,17)           110.2678         estimate D2E/DX2                !
 ! A19   A(13,12,18)           110.3306         estimate D2E/DX2                !
 ! A20   A(13,12,19)           110.327          estimate D2E/DX2                !
 ! A21   A(17,12,18)           108.9183         estimate D2E/DX2                !
 ! A22   A(17,12,19)           108.9173         estimate D2E/DX2                !
 ! A23   A(18,12,19)           108.0266         estimate D2E/DX2                !
 ! A24   A(12,13,14)           112.4708         estimate D2E/DX2                !
 ! A25   A(12,13,20)           111.0775         estimate D2E/DX2                !
 ! A26   A(12,13,21)           111.0671         estimate D2E/DX2                !
 ! A27   A(14,13,20)           107.4392         estimate D2E/DX2                !
 ! A28   A(14,13,21)           107.4175         estimate D2E/DX2                !
 ! A29   A(20,13,21)           107.116          estimate D2E/DX2                !
 ! A30   A(13,14,15)           112.8295         estimate D2E/DX2                !
 ! A31   A(13,14,16)           123.505          estimate D2E/DX2                !
 ! A32   A(15,14,16)           123.6655         estimate D2E/DX2                !
 ! A33   A(14,15,22)           112.5011         estimate D2E/DX2                !
 ! A34   A(11,16,14)           129.8306         estimate D2E/DX2                !
 ! A35   L(4,11,16,5,-1)       173.9975         estimate D2E/DX2                !
 ! A36   L(5,22,15,16,-1)      174.0051         estimate D2E/DX2                !
 ! A37   L(4,11,16,5,-2)       179.8931         estimate D2E/DX2                !
 ! A38   L(5,22,15,16,-2)      180.1294         estimate D2E/DX2                !
 ! D1    D(6,1,2,3)           -179.9194         estimate D2E/DX2                !
 ! D2    D(6,1,2,9)             59.6339         estimate D2E/DX2                !
 ! D3    D(6,1,2,10)           -59.4764         estimate D2E/DX2                !
 ! D4    D(7,1,2,3)             59.72           estimate D2E/DX2                !
 ! D5    D(7,1,2,9)            -60.7267         estimate D2E/DX2                !
 ! D6    D(7,1,2,10)          -179.837          estimate D2E/DX2                !
 ! D7    D(8,1,2,3)            -59.5643         estimate D2E/DX2                !
 ! D8    D(8,1,2,9)            179.9889         estimate D2E/DX2                !
 ! D9    D(8,1,2,10)            60.8786         estimate D2E/DX2                !
 ! D10   D(1,2,3,4)            179.9278         estimate D2E/DX2                !
 ! D11   D(1,2,3,5)             -0.0656         estimate D2E/DX2                !
 ! D12   D(9,2,3,4)            -57.5465         estimate D2E/DX2                !
 ! D13   D(9,2,3,5)            122.46           estimate D2E/DX2                !
 ! D14   D(10,2,3,4)            57.4073         estimate D2E/DX2                !
 ! D15   D(10,2,3,5)          -122.5861         estimate D2E/DX2                !
 ! D16   D(2,3,4,11)          -179.9545         estimate D2E/DX2                !
 ! D17   D(5,3,4,11)             0.0389         estimate D2E/DX2                !
 ! D18   D(2,3,5,22)           179.8694         estimate D2E/DX2                !
 ! D19   D(4,3,5,22)            -0.1233         estimate D2E/DX2                !
 ! D20   D(3,4,16,14)            0.1377         estimate D2E/DX2                !
 ! D21   D(3,5,15,14)            0.0519         estimate D2E/DX2                !
 ! D22   D(17,12,13,14)       -179.9584         estimate D2E/DX2                !
 ! D23   D(17,12,13,20)         59.5783         estimate D2E/DX2                !
 ! D24   D(17,12,13,21)        -59.5303         estimate D2E/DX2                !
 ! D25   D(18,12,13,14)         59.6836         estimate D2E/DX2                !
 ! D26   D(18,12,13,20)        -60.7797         estimate D2E/DX2                !
 ! D27   D(18,12,13,21)       -179.8883         estimate D2E/DX2                !
 ! D28   D(19,12,13,14)        -59.6039         estimate D2E/DX2                !
 ! D29   D(19,12,13,20)        179.9329         estimate D2E/DX2                !
 ! D30   D(19,12,13,21)         60.8243         estimate D2E/DX2                !
 ! D31   D(12,13,14,15)        179.9847         estimate D2E/DX2                !
 ! D32   D(12,13,14,16)          0.012          estimate D2E/DX2                !
 ! D33   D(20,13,14,15)        -57.4773         estimate D2E/DX2                !
 ! D34   D(20,13,14,16)        122.55           estimate D2E/DX2                !
 ! D35   D(21,13,14,15)         57.4748         estimate D2E/DX2                !
 ! D36   D(21,13,14,16)       -122.4979         estimate D2E/DX2                !
 ! D37   D(13,14,15,22)       -179.8643         estimate D2E/DX2                !
 ! D38   D(16,14,15,22)          0.1084         estimate D2E/DX2                !
 ! D39   D(13,14,16,11)        179.7356         estimate D2E/DX2                !
 ! D40   D(15,14,16,11)         -0.2341         estimate D2E/DX2                !
 --------------------------------------------------------------------------------
 Number of steps in this run=    110 maximum allowed number of steps=    132.
 GradGradGradGradGradGradGradGradGradGradGradGradGradGradGradGradGradGrad

                    Distance matrix (angstroms):
                    1          2          3          4          5
     1  C    0.000000
     2  C    1.521536   0.000000
     3  C    2.519820   1.509558   0.000000
     4  O    3.686150   2.351641   1.310137   0.000000
     5  O    2.790119   2.405375   1.216522   2.227880   0.000000
     6  H    1.086604   2.154381   3.457447   4.493947   3.864181
     7  H    1.086819   2.155289   2.771593   3.987906   2.750399
     8  H    1.086828   2.155205   2.770285   3.986279   2.748968
     9  H    2.168722   1.092288   2.111780   2.587133   3.088824
    10  H    2.168678   1.092289   2.111768   2.586121   3.089448
    11  H    4.449929   3.254286   1.933496   1.006343   2.371122
    12  C    8.494648   7.565320   6.088733   5.418548   5.784441
    13  C    7.565100   6.850978   5.341427   4.980521   4.779817
    14  C    6.088558   5.341414   3.831860   3.534454   3.320620
    15  O    5.418237   4.980383   3.534380   3.705939   2.658624
    16  O    5.784399   4.779905   3.320676   2.658743   3.214045
    17  H    9.513520   8.627701   7.141272   6.502532   6.770654
    18  H    8.435507   7.421263   5.991391   5.215280   5.816142
    19  H    8.428690   7.414648   5.986192   5.210199   5.812325
    20  H    7.858554   7.255989   5.765424   5.525504   5.096218
    21  H    7.851983   7.249981   5.760768   5.521429   5.092590
    22  H    4.413049   4.009448   2.607974   3.008767   1.655696
                    6          7          8          9         10
     6  H    0.000000
     7  H    1.768529   0.000000
     8  H    1.768528   1.758815   0.000000
     9  H    2.504987   2.512834   3.067123   0.000000
    10  H    2.503952   3.067148   2.513636   1.757417   0.000000
    11  H    5.347481   4.631114   4.628939   3.524159   3.523047
    12  C    9.513599   8.435300   8.428570   7.858181   7.852995
    13  C    8.627525   7.420842   7.414339   7.255305   7.250820
    14  C    7.141138   5.990886   5.986107   5.764555   5.761720
    15  O    6.502235   5.214412   5.210235   5.524251   5.522484
    16  O    6.770676   5.815874   5.812271   5.095622   5.093475
    17  H   10.545990   9.420810   9.413150   8.928856   8.922848
    18  H    9.421104   8.331441   8.508927   7.564259   7.761071
    19  H    9.413367   8.508841   8.318814   7.759129   7.552383
    20  H    8.929268   7.564456   7.759313   7.593205   7.789353
    21  H    8.921858   7.759971   7.551247   7.787937   7.582369
    22  H    5.496448   4.239414   4.236448   4.595302   4.594684
                   11         12         13         14         15
    11  H    0.000000
    12  C    4.413365   0.000000
    13  C    4.009638   1.521539   0.000000
    14  C    2.608099   2.519858   1.509575   0.000000
    15  O    3.008846   3.686142   2.351593   1.310141   0.000000
    16  O    1.655835   2.790278   2.405451   1.216520   2.227876
    17  H    5.496752   1.086602   2.154350   3.457459   4.493882
    18  H    4.240194   1.086818   2.155301   2.771364   3.987473
    19  H    4.236462   1.086826   2.155262   2.770697   3.986845
    20  H    4.596533   2.168768   1.092288   2.111927   2.586730
    21  H    4.593784   2.168656   1.092311   2.111662   2.586383
    22  H    2.529291   4.449952   3.254255   1.933488   1.006355
                   16         17         18         19         20
    16  O    0.000000
    17  H    3.864327   0.000000
    18  H    2.750527   1.768515   0.000000
    19  H    2.749280   1.768511   1.758812   0.000000
    20  H    3.089457   2.504655   2.513233   3.067193   0.000000
    21  H    3.088955   2.504213   3.067148   2.513322   1.757419
    22  H    2.371088   5.347452   4.630948   4.629316   3.524279
                   21         22
    21  H    0.000000
    22  H    3.522815   0.000000
 Framework group  C1[X(C6H12O4)]
 Deg. of freedom    60
                         Standard orientation:                         
 ---------------------------------------------------------------------
 Center     Atomic      Atomic             Coordinates (Angstroms)
 Number     Number       Type             X           Y           Z
 ---------------------------------------------------------------------
      1          6           0        4.192411   -0.680401    0.005112
      2          6           0        3.372338    0.601216    0.002243
      3          6           0        1.886386    0.335323   -0.001601
      4          8           0        1.173229    1.434351   -0.002567
      5          8           0        1.404138   -0.781530   -0.003471
      6          1           0        5.253887   -0.448108    0.009270
      7          1           0        3.965443   -1.275874   -0.875271
      8          1           0        3.958625   -1.276150    0.883531
      9          1           0        3.598048    1.209957   -0.876154
     10          1           0        3.593333    1.210800    0.881256
     11          1           0        0.183664    1.251365   -0.004393
     12          6           0       -4.192570    0.680162    0.005089
     13          6           0       -3.372275   -0.601319    0.003233
     14          6           0       -1.886350   -0.335210   -0.002120
     15          8           0       -1.173127   -1.434202   -0.003425
     16          8           0       -1.404155    0.781663   -0.004436
     17          1           0       -5.253993    0.447643    0.009686
     18          1           0       -3.965933    1.274848   -0.875909
     19          1           0       -3.958762    1.276817    0.882887
     20          1           0       -3.598738   -1.211415   -0.874030
     21          1           0       -3.592329   -1.209650    0.883376
     22          1           0       -0.183567   -1.251124   -0.004793
 ---------------------------------------------------------------------
 Rotational constants (GHZ):           3.8863149           0.4746739           0.4274676
   164 basis functions,   298 primitive gaussians,   174 cartesian basis functions
    40 alpha electrons       40 beta electrons
       nuclear repulsion energy       545.4042651139 Hartrees.
 NAtoms=   22 NActive=   22 NUniq=   22 SFac= 1.00D+00 NAtFMM=   60 NAOKFM=F Big=F
 Nuclear repulsion after empirical dispersion term =      545.3943142167 Hartrees.
   1 Symmetry operations used in ECPInt.
 ECPInt:  NShTT=    3570 NPrTT=   14362 LenC2=    3398 LenP2D=    9877.
 LDataN:  DoStor=T MaxTD1= 4 Len=   56
 ExpMin= 1.22D-01 ExpMax= 2.27D+03 ExpMxC= 3.41D+02 IAcc=3 IRadAn=         5 AccDes= 0.00D+00
 Harris functional with IExCor= 4639 and IRadAn=       5 diagonalized for initial guess.
 HarFok:  IExCor= 4639 AccDes= 0.00D+00 IRadAn=         5 IDoV= 1 UseB2=F ITyADJ=14
 ICtDFT=  3500011 ScaDFX=  1.000000  1.000000  1.000000  1.000000
 FoFCou: FMM=F IPFlag=           0 FMFlag=      100000 FMFlg1=           0
         NFxFlg=           0 DoJE=T BraDBF=F KetDBF=T FulRan=T
         wScrn=  0.000000 ICntrl=       500 IOpCl=  0 I1Cent=   200000004 NGrid=           0
         NMat0=    1 NMatS0=      1 NMatT0=    0 NMatD0=    1 NMtDS0=    0 NMtDT0=    0
 Petite list used in FoFCou.
     Accept linear search using points  2 and  3.
     Accept linear search using points  1 and  2.
     Accept linear search using points  2 and  3.
     Minimum is close to point  2 DX=  1.84D-04 DF= -4.55D-13 DXR=  1.84D-04 DFR=  3.94D-08 which will be used.
 SCF Done:  E(RwB97XD) =  -536.237031508     a.u. after    8 cycles
            Convg  =    0.3622D-09                    38 Fock formations.
              S**2 =  0.0000                  -V/T =  2.0082

 **********************************************************************

            Population analysis using the SCF Density.

 **********************************************************************

 Orbital symmetries:
       Occupied  (A) (A) (A) (A) (A) (A) (A) (A) (A) (A) (A) (A)
                 (A) (A) (A) (A) (A) (A) (A) (A) (A) (A) (A) (A)
                 (A) (A) (A) (A) (A) (A) (A) (A) (A) (A) (A) (A)
                 (A) (A) (A) (A)
       Virtual   (A) (A) (A) (A) (A) (A) (A) (A) (A) (A) (A) (A)
                 (A) (A) (A) (A) (A) (A) (A) (A) (A) (A) (A) (A)
                 (A) (A) (A) (A) (A) (A) (A) (A) (A) (A) (A) (A)
                 (A) (A) (A) (A) (A) (A) (A) (A) (A) (A) (A) (A)
                 (A) (A) (A) (A) (A) (A) (A) (A) (A) (A) (A) (A)
                 (A) (A) (A) (A) (A) (A) (A) (A) (A) (A) (A) (A)
                 (A) (A) (A) (A) (A) (A) (A) (A) (A) (A) (A) (A)
                 (A) (A) (A) (A) (A) (A) (A) (A) (A) (A) (A) (A)
                 (A) (A) (A) (A) (A) (A) (A) (A) (A) (A) (A) (A)
                 (A) (A) (A) (A) (A) (A) (A) (A) (A) (A) (A) (A)
                 (A) (A) (A) (A)
 The electronic state is 1-A.
 Alpha  occ. eigenvalues --  -19.28806 -19.28804 -19.25859 -19.25856 -10.43884
 Alpha  occ. eigenvalues --  -10.43883 -10.30729 -10.30729 -10.28397 -10.28396
 Alpha  occ. eigenvalues --   -1.20960  -1.19822  -1.11637  -1.10355  -0.88691
 Alpha  occ. eigenvalues --   -0.88263  -0.77385  -0.76296  -0.68676  -0.68136
 Alpha  occ. eigenvalues --   -0.61771  -0.59321  -0.58142  -0.57839  -0.57819
 Alpha  occ. eigenvalues --   -0.56671  -0.51471  -0.51198  -0.51019  -0.48836
 Alpha  occ. eigenvalues --   -0.46412  -0.46218  -0.45355  -0.44218  -0.44088
 Alpha  occ. eigenvalues --   -0.44005  -0.41481  -0.40534  -0.38190  -0.36881
 Alpha virt. eigenvalues --    0.08142   0.08545   0.14265   0.14533   0.19452
 Alpha virt. eigenvalues --    0.19579   0.20191   0.20221   0.20998   0.21579
 Alpha virt. eigenvalues --    0.23754   0.24651   0.24758   0.24805   0.29702
 Alpha virt. eigenvalues --    0.30753   0.31819   0.33371   0.36521   0.37109
 Alpha virt. eigenvalues --    0.42446   0.45923   0.50806   0.50837   0.53382
 Alpha virt. eigenvalues --    0.53450   0.54561   0.56897   0.56939   0.58977
 Alpha virt. eigenvalues --    0.59322   0.62408   0.62823   0.65160   0.69017
 Alpha virt. eigenvalues --    0.69816   0.71937   0.73350   0.73652   0.75891
 Alpha virt. eigenvalues --    0.76219   0.76595   0.76714   0.77113   0.78696
 Alpha virt. eigenvalues --    0.78714   0.79303   0.79767   0.80596   0.81918
 Alpha virt. eigenvalues --    0.81922   0.82132   0.82292   0.85044   0.91046
 Alpha virt. eigenvalues --    0.95218   1.01637   1.04478   1.05553   1.08758
 Alpha virt. eigenvalues --    1.11818   1.13098   1.14772   1.22220   1.22566
 Alpha virt. eigenvalues --    1.24969   1.42814   1.44529   1.45005   1.45805
 Alpha virt. eigenvalues --    1.46304   1.48951   1.57110   1.59108   1.61196
 Alpha virt. eigenvalues --    1.64108   1.65043   1.68068   1.77993   1.78187
 Alpha virt. eigenvalues --    1.83911   1.84382   1.91628   1.92078   1.96757
 Alpha virt. eigenvalues --    1.96835   2.04013   2.05413   2.10127   2.10154
 Alpha virt. eigenvalues --    2.13059   2.14829   2.26618   2.27499   2.27562
 Alpha virt. eigenvalues --    2.30598   2.34837   2.34856   2.38451   2.40255
 Alpha virt. eigenvalues --    2.51610   2.53477   2.64603   2.64807   2.65107
 Alpha virt. eigenvalues --    2.66075   2.70977   2.71180   2.75540   2.77694
 Alpha virt. eigenvalues --    2.96494   3.01832   3.02282   3.02452   3.17587
 Alpha virt. eigenvalues --    3.19390   3.26311   3.26378   3.40635   3.41505
 Alpha virt. eigenvalues --    3.66916   3.68418   3.73815   3.74055
          Condensed to atoms (all electrons):
 Mulliken charges:
               1
     1  C   -0.298871
     2  C   -0.266478
     3  C    0.237335
     4  O   -0.367141
     5  O   -0.323461
     6  H    0.120385
     7  H    0.127193
     8  H    0.127182
     9  H    0.144607
    10  H    0.144567
    11  H    0.354704
    12  C   -0.298877
    13  C   -0.266485
    14  C    0.237332
    15  O   -0.367151
    16  O   -0.323461
    17  H    0.120382
    18  H    0.127190
    19  H    0.127185
    20  H    0.144590
    21  H    0.144586
    22  H    0.354688
 Sum of Mulliken charges =   0.00000
 Mulliken charges with hydrogens summed into heavy atoms:
               1
     1  C    0.075890
     2  C    0.022696
     3  C    0.237335
     4  O   -0.012437
     5  O   -0.323461
    12  C    0.075880
    13  C    0.022691
    14  C    0.237332
    15  O   -0.012463
    16  O   -0.323461
 Electronic spatial extent (au):  <R**2>=           2590.0135
 Charge=              0.0000 electrons
 Dipole moment (field-independent basis, Debye):
    X=              0.0004    Y=              0.0000    Z=              0.0087  Tot=              0.0087
 Evaluate density.
 Using the total density.
 Monte-Carlo method of calculating molar volume:
 based on  0.001 e/bohr**3 density envelope.
 Number of points per bohr**3 =  100 CutOff= 1.00D-04
 Using the SCF density.
 There are      1804 points.  Will hold      1804 in memory.
 LenV=  1048226133 MDV=  1048576000.
 Box volume = 5871.363 fraction occupied=0.232
 Integrated density= 6.9905403360851565D+01 error=-1.0094596639148435D+01
 Molar volume = 1363.693 bohr**3/mol (121.694 cm**3/mol)
 Recommended a0 for SCRF calculation =  4.51 angstrom (  8.52 bohr)
   1 Symmetry operations used in ECPInt.
 ECPInt:  NShTT=    3570 NPrTT=   14362 LenC2=    3398 LenP2D=    9877.
 LDataN:  DoStor=T MaxTD1= 5 Len=  102
 Calling FoFJK, ICntrl=      2127 FMM=F ISym2X=0 I1Cent= 0 IOpClX= 0 NMat=1 NMatS=1 NMatT=0.

 GradGradGradGradGradGradGradGradGradGradGradGradGradGradGradGradGradGrad
 FormGI is forming the generalized inverse of G from B-inverse, IUseBI=4.
 Internal  Forces:  Max     0.010640134 RMS     0.003366146
 Step number   1 out of a maximum of  110
 All quantities printed in internal units (Hartrees-Bohrs-Radians)
 Mixed Optimization -- RFO/linear search
 Second derivative matrix not updated -- first step.
 ITU=  0
     Eigenvalues ---    0.00481   0.00481   0.00516   0.00639   0.00640
     Eigenvalues ---    0.01335   0.01713   0.01885   0.02078   0.03240
     Eigenvalues ---    0.03615   0.04172   0.04172   0.04916   0.05326
     Eigenvalues ---    0.05326   0.05383   0.05708   0.05708   0.05744
     Eigenvalues ---    0.05745   0.08097   0.09366   0.09510   0.09510
     Eigenvalues ---    0.12835   0.12835   0.16000   0.16000   0.16000
     Eigenvalues ---    0.16000   0.16000   0.16000   0.16000   0.21251
     Eigenvalues ---    0.21945   0.21945   0.22986   0.25000   0.25000
     Eigenvalues ---    0.30219   0.30219   0.31393   0.31395   0.34547
     Eigenvalues ---    0.34549   0.34550   0.34550   0.35182   0.35182
     Eigenvalues ---    0.35183   0.35183   0.35208   0.35208   0.44301
     Eigenvalues ---    0.46589   0.62538   0.64454   0.92575   0.96941
 Linear search not attempted -- first point.
 Iteration  1 RMS(Cart)=  0.02108846 RMS(Int)=  0.00028970
 Iteration  2 RMS(Cart)=  0.00058643 RMS(Int)=  0.00005016
 Iteration  3 RMS(Cart)=  0.00000006 RMS(Int)=  0.00005016
 Variable       Old X    -DE/DX   Delta X   Delta X   Delta X     New X
                                 (Linear)    (Quad)   (Total)
    R1        2.87529   0.00289   0.00000   0.00943   0.00943   2.88471
    R2        2.05338   0.01064   0.00000   0.02987   0.02987   2.08325
    R3        2.05379   0.01018   0.00000   0.02861   0.02861   2.08240
    R4        2.05381   0.01018   0.00000   0.02859   0.02859   2.08240
    R5        2.85265   0.00099   0.00000   0.00311   0.00311   2.85576
    R6        2.06412   0.00769   0.00000   0.02199   0.02199   2.08611
    R7        2.06413   0.00768   0.00000   0.02197   0.02197   2.08609
    R8        2.47580   0.00061   0.00000   0.00088   0.00088   2.47668
    R9        2.29889   0.00592   0.00000   0.00612   0.00611   2.30501
   R10        1.90171  -0.00265   0.00000  -0.00581  -0.00580   1.89591
   R11        3.12881  -0.00105   0.00000  -0.01138  -0.01140   3.11741
   R12        3.12907  -0.00106   0.00000  -0.01339  -0.01338   3.11570
   R13        2.87529   0.00288   0.00000   0.00942   0.00942   2.88471
   R14        2.05338   0.01064   0.00000   0.02987   0.02987   2.08326
   R15        2.05379   0.01019   0.00000   0.02862   0.02862   2.08241
   R16        2.05380   0.01018   0.00000   0.02859   0.02859   2.08240
   R17        2.85268   0.00098   0.00000   0.00307   0.00307   2.85576
   R18        2.06412   0.00768   0.00000   0.02197   0.02197   2.08610
   R19        2.06417   0.00767   0.00000   0.02194   0.02194   2.08611
   R20        2.47581   0.00061   0.00000   0.00101   0.00101   2.47682
   R21        2.29889   0.00592   0.00000   0.00604   0.00605   2.30494
   R22        1.90173  -0.00265   0.00000  -0.00546  -0.00547   1.89627
    A1        1.92458   0.00019   0.00000   0.00040   0.00039   1.92497
    A2        1.92562   0.00176   0.00000   0.01113   0.01108   1.93670
    A3        1.92549   0.00177   0.00000   0.01120   0.01115   1.93665
    A4        1.90100  -0.00111   0.00000  -0.00755  -0.00755   1.89345
    A5        1.90099  -0.00111   0.00000  -0.00752  -0.00752   1.89347
    A6        1.88542  -0.00161   0.00000  -0.00827  -0.00835   1.87707
    A7        1.96296   0.00312   0.00000   0.01856   0.01846   1.98141
    A8        1.93861   0.00034   0.00000   0.00757   0.00758   1.94618
    A9        1.93854   0.00035   0.00000   0.00772   0.00772   1.94627
   A10        1.87499  -0.00154   0.00000  -0.00744  -0.00760   1.86739
   A11        1.87497  -0.00154   0.00000  -0.00738  -0.00755   1.86743
   A12        1.86955  -0.00102   0.00000  -0.02182  -0.02189   1.84766
   A13        1.96933   0.00100   0.00000   0.00742   0.00742   1.97675
   A14        2.15547  -0.00271   0.00000  -0.00716  -0.00716   2.14831
   A15        2.15838   0.00171   0.00000  -0.00025  -0.00025   2.15813
   A16        1.96355  -0.00418   0.00000  -0.04280  -0.04278   1.92077
   A17        2.26598  -0.00077   0.00000  -0.01989  -0.01992   2.24606
   A18        1.92454   0.00020   0.00000   0.00045   0.00044   1.92498
   A19        1.92563   0.00176   0.00000   0.01112   0.01107   1.93670
   A20        1.92557   0.00176   0.00000   0.01112   0.01108   1.93665
   A21        1.90098  -0.00111   0.00000  -0.00754  -0.00754   1.89344
   A22        1.90097  -0.00111   0.00000  -0.00750  -0.00750   1.89347
   A23        1.88542  -0.00161   0.00000  -0.00826  -0.00835   1.87707
   A24        1.96298   0.00311   0.00000   0.01854   0.01844   1.98142
   A25        1.93867   0.00034   0.00000   0.00756   0.00756   1.94623
   A26        1.93849   0.00035   0.00000   0.00774   0.00774   1.94622
   A27        1.87517  -0.00154   0.00000  -0.00748  -0.00765   1.86752
   A28        1.87479  -0.00154   0.00000  -0.00734  -0.00751   1.86728
   A29        1.86953  -0.00102   0.00000  -0.02180  -0.02186   1.84767
   A30        1.96925   0.00102   0.00000   0.00740   0.00739   1.97664
   A31        2.15557  -0.00273   0.00000  -0.00736  -0.00736   2.14820
   A32        2.15837   0.00171   0.00000  -0.00003  -0.00003   2.15834
   A33        1.96351  -0.00417   0.00000  -0.04009  -0.04012   1.92340
   A34        2.26597  -0.00077   0.00000  -0.02154  -0.02151   2.24446
   A35        3.03683   0.00324   0.00000   0.06490   0.06493   3.10175
   A36        3.03696   0.00323   0.00000   0.05971   0.05968   3.09664
   A37        3.13973   0.00003   0.00000   0.00344   0.00344   3.14317
   A38        3.14385  -0.00003   0.00000  -0.00282  -0.00281   3.14104
    D1       -3.14019  -0.00001   0.00000  -0.00045  -0.00045  -3.14063
    D2        1.04081  -0.00042   0.00000  -0.00906  -0.00911   1.03170
    D3       -1.03806   0.00041   0.00000   0.00834   0.00839  -1.02967
    D4        1.04231   0.00011   0.00000   0.00153   0.00155   1.04386
    D5       -1.05988  -0.00030   0.00000  -0.00708  -0.00711  -1.06699
    D6       -3.13875   0.00053   0.00000   0.01031   0.01039  -3.12836
    D7       -1.03959  -0.00012   0.00000  -0.00234  -0.00236  -1.04196
    D8        3.14140  -0.00054   0.00000  -0.01095  -0.01102   3.13038
    D9        1.06253   0.00030   0.00000   0.00644   0.00648   1.06901
   D10        3.14033   0.00001   0.00000   0.00038   0.00038   3.14072
   D11       -0.00115   0.00000   0.00000   0.00008   0.00008  -0.00106
   D12       -1.00438   0.00135   0.00000   0.01656   0.01648  -0.98790
   D13        2.13733   0.00135   0.00000   0.01625   0.01618   2.15351
   D14        1.00195  -0.00135   0.00000  -0.01601  -0.01594   0.98601
   D15       -2.13953  -0.00135   0.00000  -0.01631  -0.01624  -2.15577
   D16       -3.14080  -0.00001   0.00000  -0.00030  -0.00029  -3.14109
   D17        0.00068  -0.00001   0.00000   0.00000   0.00001   0.00069
   D18        3.13931   0.00001   0.00000   0.00052   0.00053   3.13984
   D19       -0.00215   0.00001   0.00000   0.00018   0.00019  -0.00196
   D20        0.00240   0.00000   0.00000   0.00125   0.00127   0.00367
   D21        0.00091   0.00001   0.00000   0.00133   0.00134   0.00225
   D22       -3.14087  -0.00001   0.00000  -0.00024  -0.00024  -3.14111
   D23        1.03984  -0.00042   0.00000  -0.00877  -0.00882   1.03102
   D24       -1.03900   0.00042   0.00000   0.00859   0.00864  -1.03036
   D25        1.04167   0.00011   0.00000   0.00170   0.00172   1.04339
   D26       -1.06081  -0.00030   0.00000  -0.00683  -0.00686  -1.06767
   D27       -3.13964   0.00053   0.00000   0.01052   0.01060  -3.12905
   D28       -1.04028  -0.00012   0.00000  -0.00212  -0.00214  -1.04243
   D29        3.14042  -0.00053   0.00000  -0.01065  -0.01073   3.12969
   D30        1.06158   0.00030   0.00000   0.00670   0.00673   1.06832
   D31        3.14133   0.00002   0.00000   0.00072   0.00072  -3.14114
   D32        0.00021  -0.00000   0.00000  -0.00011  -0.00011   0.00010
   D33       -1.00317   0.00136   0.00000   0.01684   0.01676  -0.98641
   D34        2.13890   0.00134   0.00000   0.01601   0.01593   2.15483
   D35        1.00312  -0.00134   0.00000  -0.01570  -0.01563   0.98750
   D36       -2.13799  -0.00136   0.00000  -0.01653  -0.01646  -2.15445
   D37       -3.13922  -0.00003   0.00000  -0.00133  -0.00131  -3.14054
   D38        0.00189  -0.00001   0.00000  -0.00050  -0.00048   0.00141
   D39        3.13698   0.00003   0.00000   0.00093   0.00094   3.13792
   D40       -0.00409   0.00001   0.00000   0.00001   0.00002  -0.00406
         Item               Value     Threshold  Converged?
 Maximum Force            0.010640     0.000015     NO 
 RMS     Force            0.003366     0.000010     NO 
 Maximum Displacement     0.072003     0.000060     NO 
 RMS     Displacement     0.020869     0.000040     NO 
 GradGradGradGradGradGradGradGradGradGradGradGradGradGradGradGradGradGrad

                    Distance matrix (angstroms):
                    1          2          3          4          5
     1  C    0.000000
     2  C    1.526525   0.000000
     3  C    2.540811   1.511202   0.000000
     4  O    3.706608   2.359165   1.310604   0.000000
     5  O    2.811952   2.405038   1.219758   2.230966   0.000000
     6  H    1.102410   2.170917   3.487827   4.520807   3.899909
     7  H    1.101959   2.179066   2.813438   4.029928   2.789535
     8  H    1.101959   2.179029   2.812559   4.028834   2.788732
     9  H    2.187373   1.103923   2.116013   2.587269   3.097595
    10  H    2.187424   1.103912   2.116034   2.586527   3.098269
    11  H    4.442790   3.240594   1.904187   1.003273   2.331657
    12  C    8.529083   7.582456   6.102197   5.431584   5.796806
    13  C    7.583007   6.849154   5.337973   4.975997   4.775945
    14  C    6.102582   5.337978   3.826813   3.532272   3.312324
    15  O    5.432789   4.976867   3.532991   3.708102   2.652496
    16  O    5.796579   4.775438   3.311939   2.651533   3.204910
    17  H    9.559168   8.657794   7.167556   6.530576   6.793230
    18  H    8.484758   7.452344   6.019665   5.240725   5.846439
    19  H    8.482701   7.449881   6.017559   5.237796   5.845427
    20  H    7.871327   7.252779   5.762388   5.526417   5.088760
    21  H    7.869642   7.250815   5.760746   5.524210   5.088108
    22  H    4.433557   3.997925   2.593234   2.983716   1.649665
                    6          7          8          9         10
     6  H    0.000000
     7  H    1.788861   0.000000
     8  H    1.788871   1.777886   0.000000
     9  H    2.527124   2.549783   3.104062   0.000000
    10  H    2.526459   3.104112   2.550535   1.761669   0.000000
    11  H    5.352492   4.641282   4.639822   3.513146   3.512400
    12  C    9.559004   8.485040   8.482970   7.870055   7.869246
    13  C    8.658254   7.453134   7.450655   7.252061   7.251065
    14  C    7.167869   6.020122   6.018186   5.761661   5.761159
    15  O    6.531765   5.241648   5.239454   5.526300   5.525814
    16  O    6.792901   5.846379   5.845326   5.087715   5.087861
    17  H   10.603659   9.479687   9.477198   8.954762   8.953587
    18  H    9.479215   8.396595   8.581099   7.586101   7.789290
    19  H    9.476737   8.581111   8.393222   7.787128   7.582835
    20  H    8.955985   7.587650   7.788533   7.590941   7.791474
    21  H    8.953907   7.789996   7.583454   7.790576   7.587544
    22  H    5.531071   4.279077   4.277057   4.587454   4.587126
                   11         12         13         14         15
    11  H    0.000000
    12  C    4.432895   0.000000
    13  C    3.996423   1.526522   0.000000
    14  C    2.591383   2.540814   1.511201   0.000000
    15  O    2.981395   3.706621   2.359138   1.310675   0.000000
    16  O    1.648755   2.811829   2.404940   1.219722   2.231126
    17  H    5.530356   1.102411   2.170918   3.487833   4.520792
    18  H    4.279207   1.101962   2.179068   2.813244   4.029479
    19  H    4.276353   1.101958   2.179023   2.812768   4.029368
    20  H    4.586652   2.187395   1.103914   2.116106   2.586712
    21  H    4.584547   2.187396   1.103920   2.115928   2.586939
    22  H    2.460638   4.444621   3.241824   1.906094   1.003461
                   16         17         18         19         20
    16  O    0.000000
    17  H    3.899788   0.000000
    18  H    2.789446   1.788858   0.000000
    19  H    2.788597   1.788870   1.777889   0.000000
    20  H    3.097981   2.526913   2.550064   3.104069   0.000000
    21  H    3.097708   2.526676   3.104102   2.550246   1.761670
    22  H    2.334481   5.354028   4.642978   4.642311   3.513656
                   21         22
    21  H    0.000000
    22  H    3.513239   0.000000
 Framework group  C1[X(C6H12O4)]
 Deg. of freedom    60
                         Standard orientation:                         
 ---------------------------------------------------------------------
 Center     Atomic      Atomic             Coordinates (Angstroms)
 Number     Number       Type             X           Y           Z
 ---------------------------------------------------------------------
      1          6           0        4.210525   -0.677418    0.000733
      2          6           0        3.371908    0.598121    0.000425
      3          6           0        1.882743    0.340987   -0.000272
      4          8           0        1.167861    1.439451    0.000521
      5          8           0        1.400423   -0.779359   -0.001645
      6          1           0        5.284547   -0.428860    0.002230
      7          1           0        3.995135   -1.291097   -0.888829
      8          1           0        3.992870   -1.292093    0.889055
      9          1           0        3.591231    1.226478   -0.880320
     10          1           0        3.590444    1.226482    0.881349
     11          1           0        0.190317    1.213695    0.000483
     12          6           0       -4.210124    0.678282    0.000643
     13          6           0       -3.372061   -0.597617    0.001509
     14          6           0       -1.882785   -0.341141   -0.000287
     15          8           0       -1.168469   -1.440060   -0.000079
     16          8           0       -1.400102    0.779009   -0.002138
     17          1           0       -5.284256    0.430194    0.002526
     18          1           0       -3.994590    1.290975   -0.889566
     19          1           0       -3.992090    1.293751    0.888319
     20          1           0       -3.592237   -1.227122   -0.878192
     21          1           0       -3.590282   -1.224638    0.883475
     22          1           0       -0.190030   -1.217369   -0.000314
 ---------------------------------------------------------------------
 Rotational constants (GHZ):           3.8716704           0.4728505           0.4258700
   164 basis functions,   298 primitive gaussians,   174 cartesian basis functions
    40 alpha electrons       40 beta electrons
       nuclear repulsion energy       544.0963072973 Hartrees.
 NAtoms=   22 NActive=   22 NUniq=   22 SFac= 1.00D+00 NAtFMM=   60 NAOKFM=F Big=F
 Nuclear repulsion after empirical dispersion term =      544.0863647814 Hartrees.
   1 Symmetry operations used in ECPInt.
 ECPInt:  NShTT=    3570 NPrTT=   14362 LenC2=    3396 LenP2D=    9861.
 LDataN:  DoStor=T MaxTD1= 4 Len=   56
 Initial guess from the checkpoint file:  "12.chk"
 B after Tr=     0.000000   -0.000000   -0.000000
         Rot=    1.000000    0.000010   -0.000009   -0.000618 Ang=   0.07 deg.
 ExpMin= 1.22D-01 ExpMax= 2.27D+03 ExpMxC= 3.41D+02 IAcc=3 IRadAn=         5 AccDes= 0.00D+00
 Harris functional with IExCor= 4639 and IRadAn=       5 diagonalized for initial guess.
 HarFok:  IExCor= 4639 AccDes= 0.00D+00 IRadAn=         5 IDoV= 1 UseB2=F ITyADJ=14
 ICtDFT=  3500011 ScaDFX=  1.000000  1.000000  1.000000  1.000000
 FoFCou: FMM=F IPFlag=           0 FMFlag=      100000 FMFlg1=           0
         NFxFlg=           0 DoJE=T BraDBF=F KetDBF=T FulRan=T
         wScrn=  0.000000 ICntrl=       500 IOpCl=  0 I1Cent=   200000004 NGrid=           0
         NMat0=    1 NMatS0=      1 NMatT0=    0 NMatD0=    1 NMtDS0=    0 NMtDT0=    0
 Petite list used in FoFCou.
     Accept linear search using points  3 and  4.
     Accept linear search using points  2 and  3.
     Accept linear search using points  1 and  2.
     Minimum is close to point  2 DX= -1.35D-04 DF= -1.36D-12 DXR=  1.35D-04 DFR=  1.78D-08 which will be used.
 SCF Done:  E(RwB97XD) =  -536.239070438     a.u. after    5 cycles
            Convg  =    0.2063D-09                    33 Fock formations.
              S**2 =  0.0000                  -V/T =  2.0086
   1 Symmetry operations used in ECPInt.
 ECPInt:  NShTT=    3570 NPrTT=   14362 LenC2=    3396 LenP2D=    9861.
 LDataN:  DoStor=T MaxTD1= 5 Len=  102
 Calling FoFJK, ICntrl=      2127 FMM=F ISym2X=0 I1Cent= 0 IOpClX= 0 NMat=1 NMatS=1 NMatT=0.

 GradGradGradGradGradGradGradGradGradGradGradGradGradGradGradGradGradGrad
 Using GEDIIS/GDIIS optimizer.
 FormGI is forming the generalized inverse of G from B-inverse, IUseBI=4.
 Internal  Forces:  Max     0.002630485 RMS     0.000598744
 Step number   2 out of a maximum of  110
 All quantities printed in internal units (Hartrees-Bohrs-Radians)
 Mixed Optimization -- En-DIIS/RFO-DIIS
 Trust test= 9.75D-01 RLast= 1.61D-01 DXMaxT set to 4.83D-01
 ITU=  1  0
 Use linear search instead of GDIIS.
     Eigenvalues ---    0.00481   0.00481   0.00511   0.00639   0.00640
     Eigenvalues ---    0.01282   0.01704   0.01884   0.02051   0.03223
     Eigenvalues ---    0.03616   0.04018   0.04018   0.04859   0.05095
     Eigenvalues ---    0.05245   0.05412   0.05632   0.05633   0.05662
     Eigenvalues ---    0.05662   0.08025   0.09324   0.09660   0.09732
     Eigenvalues ---    0.12971   0.12971   0.15782   0.16000   0.16000
     Eigenvalues ---    0.16000   0.16000   0.16000   0.16496   0.21243
     Eigenvalues ---    0.21882   0.21913   0.22867   0.24763   0.25000
     Eigenvalues ---    0.29944   0.30219   0.31318   0.31394   0.34547
     Eigenvalues ---    0.34549   0.34550   0.34564   0.35182   0.35182
     Eigenvalues ---    0.35183   0.35199   0.35208   0.36826   0.44257
     Eigenvalues ---    0.47073   0.62526   0.64445   0.92540   0.96116
 Quartic linear search produced a step of  0.00713.
 Iteration  1 RMS(Cart)=  0.00612443 RMS(Int)=  0.00001560
 Iteration  2 RMS(Cart)=  0.00004975 RMS(Int)=  0.00000269
 Iteration  3 RMS(Cart)=  0.00000000 RMS(Int)=  0.00000269
 Variable       Old X    -DE/DX   Delta X   Delta X   Delta X     New X
                                 (Linear)    (Quad)   (Total)
    R1        2.88471  -0.00263   0.00007  -0.00847  -0.00841   2.87631
    R2        2.08325  -0.00006   0.00021   0.00073   0.00094   2.08419
    R3        2.08240  -0.00004   0.00020   0.00076   0.00096   2.08336
    R4        2.08240  -0.00004   0.00020   0.00076   0.00096   2.08337
    R5        2.85576  -0.00100   0.00002  -0.00312  -0.00310   2.85266
    R6        2.08611   0.00026   0.00016   0.00143   0.00159   2.08770
    R7        2.08609   0.00026   0.00016   0.00143   0.00159   2.08768
    R8        2.47668   0.00049   0.00001   0.00084   0.00085   2.47753
    R9        2.30501   0.00173   0.00004   0.00195   0.00199   2.30700
   R10        1.89591   0.00112  -0.00004   0.00239   0.00234   1.89826
   R11        3.11741  -0.00076  -0.00008  -0.01062  -0.01071   3.10671
   R12        3.11570  -0.00078  -0.00010  -0.00925  -0.00934   3.10635
   R13        2.88471  -0.00263   0.00007  -0.00848  -0.00841   2.87630
   R14        2.08326  -0.00006   0.00021   0.00072   0.00094   2.08419
   R15        2.08241  -0.00004   0.00020   0.00076   0.00096   2.08337
   R16        2.08240  -0.00004   0.00020   0.00076   0.00096   2.08336
   R17        2.85576  -0.00101   0.00002  -0.00313  -0.00311   2.85265
   R18        2.08610   0.00026   0.00016   0.00143   0.00158   2.08768
   R19        2.08611   0.00026   0.00016   0.00143   0.00159   2.08770
   R20        2.47682   0.00039   0.00001   0.00059   0.00059   2.47741
   R21        2.30494   0.00178   0.00004   0.00207   0.00211   2.30705
   R22        1.89627   0.00092  -0.00004   0.00167   0.00163   1.89790
    A1        1.92497  -0.00000   0.00000  -0.00016  -0.00015   1.92482
    A2        1.93670   0.00017   0.00008   0.00148   0.00156   1.93825
    A3        1.93665   0.00018   0.00008   0.00153   0.00161   1.93826
    A4        1.89345  -0.00010  -0.00005  -0.00103  -0.00109   1.89236
    A5        1.89347  -0.00011  -0.00005  -0.00104  -0.00110   1.89237
    A6        1.87707  -0.00015  -0.00006  -0.00090  -0.00096   1.87611
    A7        1.98141   0.00016   0.00013   0.00285   0.00297   1.98439
    A8        1.94618   0.00009   0.00005   0.00113   0.00118   1.94736
    A9        1.94627   0.00009   0.00006   0.00115   0.00120   1.94746
   A10        1.86739   0.00001  -0.00005   0.00098   0.00092   1.86830
   A11        1.86743   0.00001  -0.00005   0.00104   0.00098   1.86841
   A12        1.84766  -0.00040  -0.00016  -0.00788  -0.00804   1.83962
   A13        1.97675   0.00051   0.00005   0.00205   0.00210   1.97885
   A14        2.14831  -0.00072  -0.00005  -0.00333  -0.00338   2.14493
   A15        2.15813   0.00021  -0.00000   0.00129   0.00128   2.15941
   A16        1.92077   0.00134  -0.00030   0.00908   0.00877   1.92954
   A17        2.24606  -0.00135  -0.00014  -0.00893  -0.00908   2.23698
   A18        1.92498  -0.00001   0.00000  -0.00019  -0.00019   1.92479
   A19        1.93670   0.00017   0.00008   0.00148   0.00156   1.93826
   A20        1.93665   0.00018   0.00008   0.00155   0.00163   1.93827
   A21        1.89344  -0.00010  -0.00005  -0.00102  -0.00108   1.89236
   A22        1.89347  -0.00011  -0.00005  -0.00103  -0.00109   1.89238
   A23        1.87707  -0.00015  -0.00006  -0.00090  -0.00096   1.87611
   A24        1.98142   0.00015   0.00013   0.00279   0.00291   1.98434
   A25        1.94623   0.00010   0.00005   0.00115   0.00120   1.94743
   A26        1.94622   0.00008   0.00006   0.00114   0.00119   1.94741
   A27        1.86752   0.00001  -0.00005   0.00093   0.00087   1.86839
   A28        1.86728   0.00002  -0.00005   0.00114   0.00108   1.86836
   A29        1.84767  -0.00040  -0.00016  -0.00789  -0.00804   1.83962
   A30        1.97664   0.00043   0.00005   0.00179   0.00184   1.97848
   A31        2.14820  -0.00073  -0.00005  -0.00333  -0.00338   2.14482
   A32        2.15834   0.00030  -0.00000   0.00154   0.00154   2.15988
   A33        1.92340   0.00114  -0.00029   0.00576   0.00548   1.92887
   A34        2.24446  -0.00134  -0.00015  -0.00746  -0.00761   2.23684
   A35        3.10175  -0.00031   0.00046  -0.00350  -0.00304   3.09871
   A36        3.09664   0.00002   0.00043   0.00225   0.00267   3.09931
   A37        3.14317  -0.00004   0.00002  -0.00727  -0.00725   3.13592
   A38        3.14104   0.00003  -0.00002   0.00579   0.00578   3.14682
    D1       -3.14063  -0.00000  -0.00000  -0.00054  -0.00054  -3.14118
    D2        1.03170  -0.00019  -0.00006  -0.00471  -0.00478   1.02692
    D3       -1.02967   0.00019   0.00006   0.00373   0.00379  -1.02588
    D4        1.04386   0.00002   0.00001  -0.00010  -0.00009   1.04377
    D5       -1.06699  -0.00017  -0.00005  -0.00427  -0.00432  -1.07132
    D6       -3.12836   0.00021   0.00007   0.00417   0.00424  -3.12412
    D7       -1.04196  -0.00002  -0.00002  -0.00095  -0.00097  -1.04292
    D8        3.13038  -0.00021  -0.00008  -0.00512  -0.00520   3.12518
    D9        1.06901   0.00017   0.00005   0.00332   0.00337   1.07237
   D10        3.14072  -0.00000   0.00000   0.00010   0.00011   3.14082
   D11       -0.00106   0.00000   0.00000   0.00034   0.00034  -0.00072
   D12       -0.98790   0.00022   0.00012   0.00411   0.00423  -0.98367
   D13        2.15351   0.00023   0.00012   0.00435   0.00446   2.15797
   D14        0.98601  -0.00022  -0.00011  -0.00397  -0.00409   0.98192
   D15       -2.15577  -0.00022  -0.00012  -0.00373  -0.00385  -2.15962
   D16       -3.14109  -0.00002  -0.00000  -0.00107  -0.00107   3.14102
   D17        0.00069  -0.00002   0.00000  -0.00131  -0.00131  -0.00062
   D18        3.13984   0.00001   0.00000  -0.00021  -0.00020   3.13964
   D19       -0.00196   0.00001   0.00000   0.00006   0.00006  -0.00190
   D20        0.00367  -0.00001   0.00001  -0.00162  -0.00161   0.00206
   D21        0.00225   0.00000   0.00001  -0.00127  -0.00126   0.00099
   D22       -3.14111  -0.00001  -0.00000  -0.00029  -0.00029  -3.14140
   D23        1.03102  -0.00019  -0.00006  -0.00438  -0.00444   1.02657
   D24       -1.03036   0.00019   0.00006   0.00406   0.00412  -1.02624
   D25        1.04339   0.00002   0.00001   0.00016   0.00017   1.04356
   D26       -1.06767  -0.00017  -0.00005  -0.00393  -0.00398  -1.07165
   D27       -3.12905   0.00021   0.00008   0.00450   0.00458  -3.12447
   D28       -1.04243  -0.00003  -0.00002  -0.00070  -0.00072  -1.04315
   D29        3.12969  -0.00021  -0.00008  -0.00479  -0.00487   3.12482
   D30        1.06832   0.00017   0.00005   0.00364   0.00369   1.07201
   D31       -3.14114  -0.00001   0.00001  -0.00023  -0.00022  -3.14136
   D32        0.00010   0.00001  -0.00000   0.00048   0.00047   0.00058
   D33       -0.98641   0.00022   0.00012   0.00374   0.00386  -0.98255
   D34        2.15483   0.00023   0.00011   0.00444   0.00456   2.15939
   D35        0.98750  -0.00023  -0.00011  -0.00433  -0.00444   0.98306
   D36       -2.15445  -0.00021  -0.00012  -0.00362  -0.00374  -2.15819
   D37       -3.14054  -0.00001  -0.00001   0.00001   0.00000  -3.14053
   D38        0.00141  -0.00002  -0.00000  -0.00070  -0.00070   0.00071
   D39        3.13792   0.00001   0.00001   0.00036   0.00037   3.13828
   D40       -0.00406   0.00003   0.00000   0.00114   0.00114  -0.00293
         Item               Value     Threshold  Converged?
 Maximum Force            0.002630     0.000015     NO 
 RMS     Force            0.000599     0.000010     NO 
 Maximum Displacement     0.017714     0.000060     NO 
 RMS     Displacement     0.006110     0.000040     NO 
 GradGradGradGradGradGradGradGradGradGradGradGradGradGradGradGradGradGrad

                    Distance matrix (angstroms):
                    1          2          3          4          5
     1  C    0.000000
     2  C    1.522076   0.000000
     3  C    2.538182   1.509563   0.000000
     4  O    3.704448   2.359738   1.311051   0.000000
     5  O    2.808618   2.402276   1.220811   2.233047   0.000000
     6  H    1.102907   2.167270   3.485201   4.518265   3.897066
     7  H    1.102469   2.176651   2.813077   4.030088   2.787628
     8  H    1.102470   2.176654   2.812712   4.029427   2.787457
     9  H    2.184927   1.104763   2.115897   2.587527   3.098109
    10  H    2.184991   1.104751   2.115967   2.586903   3.098650
    11  H    4.446938   3.245188   1.911195   1.004514   2.342726
    12  C    8.526407   7.579086   6.100540   5.426887   5.799510
    13  C    7.578934   6.842263   5.332723   4.966226   4.775965
    14  C    6.100464   5.332734   3.823196   3.523116   3.315263
    15  O    5.427007   4.966443   3.523382   3.694223   2.647761
    16  O    5.799837   4.776336   3.315580   2.647744   3.216833
    17  H    9.555727   8.653984   7.165312   6.526034   6.794455
    18  H    8.488262   7.455139   6.023553   5.240792   5.854784
    19  H    8.481199   7.448240   6.018462   5.236009   5.851314
    20  H    7.870135   7.248725   5.759141   5.519141   5.089116
    21  H    7.862863   7.241991   5.754151   5.514936   5.085416
    22  H    4.426701   3.987069   2.583361   2.971573   1.644000
                    6          7          8          9         10
     6  H    0.000000
     7  H    1.788977   0.000000
     8  H    1.788982   1.778082   0.000000
     9  H    2.522896   2.550341   3.103315   0.000000
    10  H    2.522601   3.103347   2.550809   1.757641   0.000000
    11  H    5.355623   4.648113   4.647610   3.516390   3.516253
    12  C    9.555787   8.487926   8.481346   7.869924   7.863569
    13  C    8.653867   7.454630   7.448283   7.248296   7.242580
    14  C    7.165263   6.023040   6.018718   5.758580   5.754835
    15  O    6.526165   5.240209   5.236718   5.518538   5.516042
    16  O    6.794815   5.854836   5.851818   5.089067   5.086260
    17  H   10.599910   9.481788   9.474223   8.954871   8.947631
    18  H    9.482168   8.405704   8.585745   7.591900   7.789115
    19  H    9.474169   8.585268   8.393035   7.787859   7.578512
    20  H    8.955082   7.591773   7.788213   7.591118   7.786098
    21  H    8.946974   7.788110   7.577971   7.785153   7.578155
    22  H    5.524392   4.275482   4.274093   4.578830   4.578312
                   11         12         13         14         15
    11  H    0.000000
    12  C    4.426347   0.000000
    13  C    3.986804   1.522072   0.000000
    14  C    2.583125   2.538128   1.509555   0.000000
    15  O    2.971812   3.704167   2.359395   1.310989   0.000000
    16  O    1.643812   2.808438   2.402225   1.220838   2.233297
    17  H    5.524038   1.102906   2.167243   3.485144   4.517912
    18  H    4.275630   1.102470   2.176653   2.812930   4.029546
    19  H    4.273233   1.102468   2.176658   2.812755   4.029549
    20  H    4.579302   2.184964   1.104752   2.115948   2.586742
    21  H    4.577367   2.184959   1.104761   2.115929   2.586920
    22  H    2.456073   4.446250   3.244498   1.910570   1.004326
                   16         17         18         19         20
    16  O    0.000000
    17  H    3.896890   0.000000
    18  H    2.787694   1.788977   0.000000
    19  H    2.787005   1.788985   1.778083   0.000000
    20  H    3.098540   2.522792   2.550519   3.103339   0.000000
    21  H    3.098175   2.522662   3.103334   2.550645   1.757639
    22  H    2.342460   5.354909   4.647450   4.646993   3.515858
                   21         22
    21  H    0.000000
    22  H    3.515476   0.000000
 Framework group  C1[X(C6H12O4)]
 Deg. of freedom    60
                         Standard orientation:                         
 ---------------------------------------------------------------------
 Center     Atomic      Atomic             Coordinates (Angstroms)
 Number     Number       Type             X           Y           Z
 ---------------------------------------------------------------------
      1          6           0        4.210016   -0.671556    0.006021
      2          6           0        3.368741    0.596893    0.003141
      3          6           0        1.881469    0.338481   -0.001945
      4          8           0        1.162887    1.435063   -0.003479
      5          8           0        1.403708   -0.784960   -0.004315
      6          1           0        5.283469   -0.418403    0.010122
      7          1           0        4.000707   -1.287645   -0.883958
      8          1           0        3.994005   -1.288058    0.894111
      9          1           0        3.590534    1.229480   -0.875007
     10          1           0        3.584601    1.229656    0.882624
     11          1           0        0.182888    1.214529   -0.007407
     12          6           0       -4.209979    0.671312    0.005991
     13          6           0       -3.368551   -0.597032    0.004072
     14          6           0       -1.881336   -0.338366   -0.002228
     15          8           0       -1.163008   -1.435040   -0.004125
     16          8           0       -1.403874    0.785230   -0.004870
     17          1           0       -5.283390    0.417999    0.010817
     18          1           0       -4.001146    1.286497   -0.884726
     19          1           0       -3.993672    1.288774    0.893340
     20          1           0       -3.590845   -1.230777   -0.873100
     21          1           0       -3.583728   -1.228697    0.884524
     22          1           0       -0.183292   -1.214093   -0.007326
 ---------------------------------------------------------------------
 Rotational constants (GHZ):           3.8852700           0.4732165           0.4263232
   164 basis functions,   298 primitive gaussians,   174 cartesian basis functions
    40 alpha electrons       40 beta electrons
       nuclear repulsion energy       544.3124149351 Hartrees.
 NAtoms=   22 NActive=   22 NUniq=   22 SFac= 1.00D+00 NAtFMM=   60 NAOKFM=F Big=F
 Nuclear repulsion after empirical dispersion term =      544.3024683362 Hartrees.
   1 Symmetry operations used in ECPInt.
 ECPInt:  NShTT=    3570 NPrTT=   14362 LenC2=    3398 LenP2D=    9867.
 LDataN:  DoStor=T MaxTD1= 4 Len=   56
 Initial guess from the checkpoint file:  "12.chk"
 B after Tr=    -0.000000    0.000000    0.000000
         Rot=    1.000000   -0.000009    0.000004   -0.000356 Ang=  -0.04 deg.
     Minimum is close to point  4 DX=  9.69D-03 DF= -3.49D-09 DXR=  8.01D-03 DFR=  6.41D-05 which will be used.
     Minimum is close to point  2 DX=  8.50D-05 DF= -2.27D-13 DXR=  8.50D-05 DFR=  1.05D-08 which will be used.
 QCLLim is confused:  Bigger=T Turned=T
 NLin=  5 IMin12=  1  2 I12=  0  2 IX=  1 XLMin= 0.000D+00 XLMax= 0.000D+00
 X = 0.000D+00 1.000D+00 2.000D+00 4.000D+00 8.000D+00
 DE= 0.000D+00 1.592D-12 2.274D-12 2.933D-11 1.789D-10
 QCLLim is confused:  Bigger=T Turned=T
 NLin=  6 IMin12=  1  2 I12=  0  2 IX=  1 XLMin= 0.000D+00 XLMax= 0.000D+00
 X = 0.000D+00 1.000D+00 2.000D+00 4.000D+00 8.000D+00 1.600D+01
 DE= 0.000D+00 1.592D-12 2.274D-12 2.933D-11 1.789D-10 8.329D-10
 QCLLim is confused:  Bigger=T Turned=T
 NLin=  7 IMin12=  1  2 I12=  0  2 IX=  1 XLMin= 0.000D+00 XLMax= 0.000D+00
 X = 0.000D+00 1.000D+00 2.000D+00 4.000D+00 8.000D+00 1.600D+01 3.200D+01
 DE= 0.000D+00 1.592D-12 2.274D-12 2.933D-11 1.789D-10 8.329D-10 3.570D-09
 Search did not lower the energy significantly.
 No lower point found -- using Newton-Raphson step.
 SCF Done:  E(RwB97XD) =  -536.239173646     a.u. after    4 cycles
            Convg  =    0.9670D-10                    46 Fock formations.
              S**2 =  0.0000                  -V/T =  2.0086
   1 Symmetry operations used in ECPInt.
 ECPInt:  NShTT=    3570 NPrTT=   14362 LenC2=    3398 LenP2D=    9867.
 LDataN:  DoStor=T MaxTD1= 5 Len=  102
 Calling FoFJK, ICntrl=      2127 FMM=F ISym2X=0 I1Cent= 0 IOpClX= 0 NMat=1 NMatS=1 NMatT=0.

 GradGradGradGradGradGradGradGradGradGradGradGradGradGradGradGradGradGrad
 Using GEDIIS/GDIIS optimizer.
 FormGI is forming the generalized inverse of G from B-inverse, IUseBI=4.
 Internal  Forces:  Max     0.000895187 RMS     0.000271149
 Step number   3 out of a maximum of  110
 All quantities printed in internal units (Hartrees-Bohrs-Radians)
 Mixed Optimization -- En-DIIS/RFO-DIIS
 Swapping is turned off.
 Trust test= 1.32D+00 RLast= 3.64D-02 DXMaxT set to 4.83D-01
 ITU=  1  1  0
     Eigenvalues ---    0.00481   0.00481   0.00525   0.00639   0.00640
     Eigenvalues ---    0.01288   0.01707   0.01886   0.02048   0.03218
     Eigenvalues ---    0.03604   0.03765   0.03982   0.03982   0.04973
     Eigenvalues ---    0.05233   0.05602   0.05617   0.05657   0.05657
     Eigenvalues ---    0.05668   0.06939   0.09334   0.09653   0.09770
     Eigenvalues ---    0.13000   0.13000   0.14118   0.16000   0.16000
     Eigenvalues ---    0.16000   0.16000   0.16018   0.16137   0.21270
     Eigenvalues ---    0.21841   0.21899   0.22813   0.24854   0.25011
     Eigenvalues ---    0.30219   0.31243   0.31389   0.32089   0.34548
     Eigenvalues ---    0.34549   0.34550   0.34608   0.35182   0.35182
     Eigenvalues ---    0.35183   0.35199   0.35208   0.37236   0.44301
     Eigenvalues ---    0.46294   0.62520   0.68034   0.92572   0.95191
 En-DIIS/RFO-DIIS/Sim-DIIS IScMMF=       -3 using points:     3    2
 RFO step:  Lambda=-8.30773343D-05.
 DidBck=F Rises=F RFO-DIIS coefs:    1.58459   -0.58459
 Iteration  1 RMS(Cart)=  0.02321301 RMS(Int)=  0.00013016
 Iteration  2 RMS(Cart)=  0.00042252 RMS(Int)=  0.00002181
 Iteration  3 RMS(Cart)=  0.00000004 RMS(Int)=  0.00002181
 Variable       Old X    -DE/DX   Delta X   Delta X   Delta X     New X
                                 (Linear)    (Quad)   (Total)
    R1        2.87631  -0.00035  -0.00491   0.00024  -0.00468   2.87163
    R2        2.08419  -0.00035   0.00055  -0.00089  -0.00034   2.08385
    R3        2.08336  -0.00033   0.00056  -0.00087  -0.00030   2.08306
    R4        2.08337  -0.00033   0.00056  -0.00087  -0.00030   2.08306
    R5        2.85266  -0.00030  -0.00181  -0.00068  -0.00249   2.85017
    R6        2.08770  -0.00014   0.00093  -0.00038   0.00055   2.08825
    R7        2.08768  -0.00014   0.00093  -0.00037   0.00055   2.08823
    R8        2.47753  -0.00090   0.00049  -0.00222  -0.00173   2.47580
    R9        2.30700   0.00057   0.00116   0.00064   0.00181   2.30880
   R10        1.89826   0.00064   0.00137   0.00132   0.00269   1.90095
   R11        3.10671  -0.00073  -0.00626  -0.01085  -0.01711   3.08960
   R12        3.10635  -0.00069  -0.00546  -0.01148  -0.01694   3.08941
   R13        2.87630  -0.00035  -0.00492   0.00027  -0.00464   2.87166
   R14        2.08419  -0.00035   0.00055  -0.00088  -0.00034   2.08385
   R15        2.08337  -0.00033   0.00056  -0.00086  -0.00030   2.08307
   R16        2.08336  -0.00033   0.00056  -0.00087  -0.00031   2.08306
   R17        2.85265  -0.00026  -0.00182  -0.00052  -0.00233   2.85031
   R18        2.08768  -0.00014   0.00093  -0.00037   0.00056   2.08824
   R19        2.08770  -0.00015   0.00093  -0.00039   0.00054   2.08824
   R20        2.47741  -0.00081   0.00035  -0.00193  -0.00158   2.47583
   R21        2.30705   0.00053   0.00123   0.00051   0.00175   2.30880
   R22        1.89790   0.00075   0.00096   0.00200   0.00295   1.90086
    A1        1.92482   0.00009  -0.00009   0.00086   0.00077   1.92559
    A2        1.93825   0.00009   0.00091   0.00083   0.00174   1.93999
    A3        1.93826   0.00010   0.00094   0.00083   0.00177   1.94003
    A4        1.89236  -0.00010  -0.00064  -0.00085  -0.00149   1.89087
    A5        1.89237  -0.00010  -0.00064  -0.00086  -0.00150   1.89087
    A6        1.87611  -0.00010  -0.00056  -0.00093  -0.00149   1.87462
    A7        1.98439   0.00011   0.00174   0.00122   0.00294   1.98733
    A8        1.94736   0.00004   0.00069   0.00077   0.00146   1.94882
    A9        1.94746   0.00004   0.00070   0.00073   0.00143   1.94889
   A10        1.86830  -0.00005   0.00054  -0.00051   0.00002   1.86832
   A11        1.86841  -0.00005   0.00057  -0.00052   0.00004   1.86845
   A12        1.83962  -0.00011  -0.00470  -0.00201  -0.00671   1.83291
   A13        1.97885   0.00003   0.00123   0.00040   0.00165   1.98050
   A14        2.14493  -0.00018  -0.00198  -0.00015  -0.00210   2.14283
   A15        2.15941   0.00015   0.00075  -0.00025   0.00044   2.15985
   A16        1.92954   0.00039   0.00512  -0.00192   0.00313   1.93267
   A17        2.23698  -0.00082  -0.00531  -0.00783  -0.01321   2.22377
   A18        1.92479   0.00010  -0.00011   0.00095   0.00084   1.92564
   A19        1.93826   0.00009   0.00091   0.00083   0.00174   1.94000
   A20        1.93827   0.00009   0.00095   0.00079   0.00174   1.94001
   A21        1.89236  -0.00010  -0.00063  -0.00088  -0.00151   1.89085
   A22        1.89238  -0.00010  -0.00064  -0.00088  -0.00151   1.89087
   A23        1.87611  -0.00010  -0.00056  -0.00093  -0.00150   1.87461
   A24        1.98434   0.00013   0.00170   0.00141   0.00310   1.98744
   A25        1.94743   0.00003   0.00070   0.00069   0.00139   1.94882
   A26        1.94741   0.00004   0.00069   0.00071   0.00140   1.94881
   A27        1.86839  -0.00006   0.00051  -0.00049   0.00001   1.86840
   A28        1.86836  -0.00006   0.00063  -0.00065  -0.00003   1.86833
   A29        1.83962  -0.00011  -0.00470  -0.00201  -0.00672   1.83291
   A30        1.97848   0.00015   0.00108   0.00113   0.00224   1.98072
   A31        2.14482  -0.00016  -0.00198  -0.00001  -0.00196   2.14287
   A32        2.15988   0.00002   0.00090  -0.00113  -0.00028   2.15960
   A33        1.92887   0.00049   0.00320   0.00074   0.00387   1.93274
   A34        2.23684  -0.00073  -0.00445  -0.00829  -0.01282   2.22402
   A35        3.09871   0.00030  -0.00178   0.01133   0.00948   3.10819
   A36        3.09931   0.00021   0.00156   0.00750   0.00898   3.10829
   A37        3.13592   0.00013  -0.00424   0.03655   0.03233   3.16825
   A38        3.14682  -0.00011   0.00338  -0.03000  -0.02662   3.12020
    D1       -3.14118  -0.00000  -0.00032  -0.00030  -0.00062   3.14139
    D2        1.02692  -0.00004  -0.00279  -0.00110  -0.00389   1.02303
    D3       -1.02588   0.00004   0.00222   0.00045   0.00267  -1.02321
    D4        1.04377  -0.00000  -0.00005  -0.00034  -0.00039   1.04337
    D5       -1.07132  -0.00004  -0.00253  -0.00114  -0.00367  -1.07499
    D6       -3.12412   0.00004   0.00248   0.00041   0.00289  -3.12123
    D7       -1.04292  -0.00000  -0.00057  -0.00027  -0.00084  -1.04377
    D8        3.12518  -0.00005  -0.00304  -0.00107  -0.00412   3.12106
    D9        1.07237   0.00004   0.00197   0.00048   0.00244   1.07482
   D10        3.14082   0.00000   0.00006   0.00006   0.00012   3.14094
   D11       -0.00072  -0.00000   0.00020  -0.00028  -0.00008  -0.00080
   D12       -0.98367   0.00009   0.00247   0.00148   0.00395  -0.97972
   D13        2.15797   0.00009   0.00261   0.00114   0.00375   2.16172
   D14        0.98192  -0.00009  -0.00239  -0.00130  -0.00369   0.97824
   D15       -2.15962  -0.00009  -0.00225  -0.00163  -0.00389  -2.16351
   D16        3.14102   0.00002  -0.00063   0.00326   0.00261  -3.13956
   D17       -0.00062   0.00002  -0.00077   0.00360   0.00281   0.00219
   D18        3.13964   0.00001  -0.00012   0.00166   0.00152   3.14116
   D19       -0.00190   0.00001   0.00003   0.00128   0.00130  -0.00060
   D20        0.00206   0.00001  -0.00094   0.00880   0.00783   0.00989
   D21        0.00099   0.00001  -0.00074   0.00919   0.00844   0.00943
   D22       -3.14140   0.00000  -0.00017  -0.00007  -0.00025   3.14154
   D23        1.02657  -0.00005  -0.00260  -0.00098  -0.00358   1.02300
   D24       -1.02624   0.00004   0.00241   0.00064   0.00305  -1.02319
   D25        1.04356   0.00000   0.00010  -0.00014  -0.00004   1.04352
   D26       -1.07165  -0.00005  -0.00233  -0.00104  -0.00337  -1.07502
   D27       -3.12447   0.00004   0.00268   0.00057   0.00325  -3.12121
   D28       -1.04315   0.00000  -0.00042  -0.00003  -0.00045  -1.04360
   D29        3.12482  -0.00005  -0.00285  -0.00093  -0.00378   3.12104
   D30        1.07201   0.00004   0.00216   0.00068   0.00284   1.07485
   D31       -3.14136   0.00001  -0.00013   0.00056   0.00043  -3.14093
   D32        0.00058  -0.00001   0.00028  -0.00058  -0.00031   0.00027
   D33       -0.98255   0.00010   0.00225   0.00202   0.00428  -0.97828
   D34        2.15939   0.00008   0.00266   0.00088   0.00354   2.16293
   D35        0.98306  -0.00008  -0.00259  -0.00081  -0.00340   0.97966
   D36       -2.15819  -0.00010  -0.00219  -0.00195  -0.00414  -2.16233
   D37       -3.14053  -0.00001   0.00000  -0.00214  -0.00215   3.14050
   D38        0.00071   0.00001  -0.00041  -0.00098  -0.00140  -0.00069
   D39        3.13828   0.00002   0.00021  -0.00002   0.00018   3.13847
   D40       -0.00293   0.00000   0.00067  -0.00129  -0.00063  -0.00356
         Item               Value     Threshold  Converged?
 Maximum Force            0.000895     0.000015     NO 
 RMS     Force            0.000271     0.000010     NO 
 Maximum Displacement     0.086851     0.000060     NO 
 RMS     Displacement     0.023034     0.000040     NO 
 GradGradGradGradGradGradGradGradGradGradGradGradGradGradGradGradGradGrad

                    Distance matrix (angstroms):
                    1          2          3          4          5
     1  C    0.000000
     2  C    1.519601   0.000000
     3  C    2.537441   1.508247   0.000000
     4  O    3.702836   2.359136   1.310138   0.000000
     5  O    2.807951   2.400546   1.221767   2.233332   0.000000
     6  H    1.102725   2.165516   3.484093   4.516255   3.896226
     7  H    1.102309   2.175599   2.814392   4.030649   2.788336
     8  H    1.102309   2.175624   2.814593   4.030456   2.789184
     9  H    2.184005   1.105052   2.114980   2.585922   3.098190
    10  H    2.184050   1.105045   2.115072   2.585431   3.098791
    11  H    4.448463   3.246770   1.913511   1.005939   2.346248
    12  C    8.526972   7.576006   6.099523   5.421759   5.803687
    13  C    7.576084   6.833845   5.325715   4.953348   4.774902
    14  C    6.099465   5.325642   3.817462   3.509932   3.317224
    15  O    5.421684   4.953267   3.509864   3.673995   2.640362
    16  O    5.803333   4.774551   3.316991   2.640239   3.227814
    17  H    9.554931   8.649816   7.162984   6.520323   6.796440
    18  H    8.478883   7.444080   6.018547   5.234765   5.856652
    19  H    8.499901   7.461959   6.030899   5.241321   5.867865
    20  H    7.851106   7.226917   5.741987   5.500960   5.076984
    21  H    7.873381   7.244958   5.754633   5.506982   5.089629
    22  H    4.420060   3.972219   2.567676   2.950390   1.634947
                    6          7          8          9         10
     6  H    0.000000
     7  H    1.787738   0.000000
     8  H    1.787733   1.776851   0.000000
     9  H    2.521210   2.552214   3.103177   0.000000
    10  H    2.521332   3.103190   2.552239   1.753601   0.000000
    11  H    5.356558   4.652388   4.651575   3.517668   3.516408
    12  C    9.554885   8.478800   8.500105   7.850824   7.873325
    13  C    8.649865   7.444049   7.462250   7.226707   7.245011
    14  C    7.162907   6.018352   6.031034   5.741728   5.754649
    15  O    6.520240   5.234258   5.241722   5.500441   5.507270
    16  O    6.796061   5.856347   5.867520   5.076664   5.089179
    17  H   10.597864   9.469450   9.492988   8.933678   8.958095
    18  H    9.469466   8.387663   8.594400   7.564283   7.789749
    19  H    9.492743   8.594116   8.429535   7.785080   7.605212
    20  H    8.933924   7.564469   7.785564   7.557278   7.775532
    21  H    8.958146   7.789705   7.605479   7.775289   7.592961
    22  H    5.517069   4.273035   4.273531   4.563671   4.563956
                   11         12         13         14         15
    11  H    0.000000
    12  C    4.420170   0.000000
    13  C    3.972291   1.519614   0.000000
    14  C    2.567737   2.537601   1.508319   0.000000
    15  O    2.950360   3.703080   2.359374   1.310153   0.000000
    16  O    1.634848   2.808206   2.400630   1.221762   2.233194
    17  H    5.517183   1.102728   2.165562   3.484255   4.516536
    18  H    4.274261   1.102311   2.175614   2.814630   4.030575
    19  H    4.272513   1.102306   2.175617   2.814670   4.030956
    20  H    4.564775   2.184016   1.105047   2.115097   2.585683
    21  H    4.563027   2.184011   1.105047   2.115048   2.586185
    22  H    2.436063   4.448656   3.246949   1.913536   1.005889
                   16         17         18         19         20
    16  O    0.000000
    17  H    3.896477   0.000000
    18  H    2.789088   1.787728   0.000000
    19  H    2.788977   1.787733   1.776846   0.000000
    20  H    3.098660   2.521251   2.552244   3.103170   0.000000
    21  H    3.098441   2.521315   3.103168   2.552181   1.753595
    22  H    2.346072   5.356778   4.651792   4.652517   3.516821
                   21         22
    21  H    0.000000
    22  H    3.517665   0.000000
 Framework group  C1[X(C6H12O4)]
 Deg. of freedom    60
                         Standard orientation:                         
 ---------------------------------------------------------------------
 Center     Atomic      Atomic             Coordinates (Angstroms)
 Number     Number       Type             X           Y           Z
 ---------------------------------------------------------------------
      1          6           0        4.211444   -0.663813   -0.022172
      2          6           0        3.364194    0.597620   -0.010195
      3          6           0        1.879068    0.335085    0.006633
      4          8           0        1.156055    1.427601    0.017662
      5          8           0        1.406581   -0.791619    0.009408
      6          1           0        5.283352   -0.405229   -0.034410
      7          1           0        3.993411   -1.281035   -0.909067
      8          1           0        4.014387   -1.283860    0.867657
      9          1           0        3.570420    1.235799   -0.888454
     10          1           0        3.590919    1.233001    0.865026
     11          1           0        0.175065    1.205329    0.030579
     12          6           0       -4.211511    0.663996   -0.022420
     13          6           0       -3.364338   -0.597489   -0.008979
     14          6           0       -1.879091   -0.335181    0.007252
     15          8           0       -1.156010   -1.427674    0.017976
     16          8           0       -1.406381    0.791425    0.009602
     17          1           0       -5.283455    0.405518   -0.033982
     18          1           0       -3.993703    1.279998   -0.910221
     19          1           0       -4.014114    1.285231    0.866501
     20          1           0       -3.570894   -1.236867   -0.886281
     21          1           0       -3.590912   -1.231617    0.867192
     22          1           0       -0.175023   -1.205445    0.027558
 ---------------------------------------------------------------------
 Rotational constants (GHZ):           3.9059846           0.4736011           0.4268927
   164 basis functions,   298 primitive gaussians,   174 cartesian basis functions
    40 alpha electrons       40 beta electrons
       nuclear repulsion energy       544.6585366590 Hartrees.
 NAtoms=   22 NActive=   22 NUniq=   22 SFac= 1.00D+00 NAtFMM=   60 NAOKFM=F Big=F
 Nuclear repulsion after empirical dispersion term =      544.6485865665 Hartrees.
   1 Symmetry operations used in ECPInt.
 ECPInt:  NShTT=    3570 NPrTT=   14362 LenC2=    3397 LenP2D=    9871.
 LDataN:  DoStor=T MaxTD1= 4 Len=   56
 Initial guess from the checkpoint file:  "12.chk"
 B after Tr=     0.000000   -0.000000   -0.000000
         Rot=    1.000000    0.000056   -0.000019   -0.000483 Ang=   0.06 deg.
 ExpMin= 1.22D-01 ExpMax= 2.27D+03 ExpMxC= 3.41D+02 IAcc=3 IRadAn=         5 AccDes= 0.00D+00
 Harris functional with IExCor= 4639 and IRadAn=       5 diagonalized for initial guess.
 HarFok:  IExCor= 4639 AccDes= 0.00D+00 IRadAn=         5 IDoV= 1 UseB2=F ITyADJ=14
 ICtDFT=  3500011 ScaDFX=  1.000000  1.000000  1.000000  1.000000
 FoFCou: FMM=F IPFlag=           0 FMFlag=      100000 FMFlg1=           0
         NFxFlg=           0 DoJE=T BraDBF=F KetDBF=T FulRan=T
         wScrn=  0.000000 ICntrl=       500 IOpCl=  0 I1Cent=   200000004 NGrid=           0
         NMat0=    1 NMatS0=      1 NMatT0=    0 NMatD0=    1 NMtDS0=    0 NMtDT0=    0
 Petite list used in FoFCou.
     Accept linear search using points  1 and  2.
     Minimum is close to point  2 DX= -1.11D-04 DF= -1.14D-12 DXR=  1.11D-04 DFR=  1.29D-08 which will be used.
 SCF Done:  E(RwB97XD) =  -536.239205302     a.u. after    5 cycles
            Convg  =    0.1209D-08                    33 Fock formations.
              S**2 =  0.0000                  -V/T =  2.0086
   1 Symmetry operations used in ECPInt.
 ECPInt:  NShTT=    3570 NPrTT=   14362 LenC2=    3397 LenP2D=    9871.
 LDataN:  DoStor=T MaxTD1= 5 Len=  102
 Calling FoFJK, ICntrl=      2127 FMM=F ISym2X=0 I1Cent= 0 IOpClX= 0 NMat=1 NMatS=1 NMatT=0.

 GradGradGradGradGradGradGradGradGradGradGradGradGradGradGradGradGradGrad
 Using GEDIIS/GDIIS optimizer.
 FormGI is forming the generalized inverse of G from B-inverse, IUseBI=4.
[...]
 -0.00000001,-0.00004799,-0.00003529,-0.00000002,0.00026648,0.00024680,
 0.00000010,-0.00051570,-0.00020063,-0.00000009,-0.00067481,-0.00033218
 ,-0.00000015,-0.00001884,0.00000493,0.,0.00001078,0.00000312,0.0000044
 4,0.00001078,0.00000313,-0.00000443,-0.00001813,0.00000197,-0.00000232
 ,-0.00001813,0.00000197,0.00000232,0.00085410,0.00038046,0.00000016,0.
 04169846,0.53348576,0.,0.,-0.00000325,-0.00000002,-0.00000002,0.000010
 02,0.00000010,0.00000012,0.00000222,-0.00000016,-0.00000007,-0.0000413
 8,-0.00000029,-0.00000014,-0.00002657,0.,0.,0.00000096,0.,0.00000158,-
 0.00000001,0.,-0.00000158,-0.00000001,-0.00000149,-0.00000029,-0.00000
 037,0.00000147,0.00000029,-0.00000036,0.00000028,0.00000011,0.00005106
 ,0.00001284,-0.00001731,0.59122844,-0.00002205,-0.00004798,-0.00000002
 ,-0.00010634,-0.00010992,-0.00000006,0.00031982,0.00060147,0.00000022,
 -0.00054669,-0.00030867,-0.00000008,-0.00146342,-0.00071474,-0.0000003
 0,-0.00003987,0.00001084,0.,0.00002141,0.00000710,0.00000580,0.0000214
 1,0.00000711,-0.00000579,-0.00003971,0.00000242,-0.00000207,-0.0000397
 1,0.00000242,0.00000207,0.00118923,0.00072113,0.00000015,-0.12268735,0
 .06427571,0.00002010,0.51081820,-0.00008084,-0.00003529,-0.00000003,-0
 .00010991,0.00034621,0.00000006,0.00106142,-0.00326775,-0.00000092,-0.
 00417876,0.00080657,0.00000019,0.00235580,0.00248329,0.00000112,-0.000
 02663,0.00003045,0.00000001,-0.00000296,0.00000793,-0.00000832,-0.0000
 0296,0.00000793,0.00000833,0.00004852,0.00002804,0.00001099,0.00004855
 ,0.00002806,-0.00001096,0.00520079,0.00124767,-0.00000002,0.06050049,-
 0.18744655,-0.00003144,-0.00223273,0.57454940,-0.00000003,-0.00000002,
 0.00001002,-0.00000005,0.00000007,0.00010241,0.00000037,-0.00000101,0.
 00009125,-0.00000130,0.00000049,-0.00080938,0.00000069,0.00000091,-0.0
 0055921,-0.00000001,0.00000001,-0.00000235,-0.00000144,0.00000325,-0.0
 0000178,0.00000145,-0.00000324,-0.00000178,0.00001212,0.00000234,0.000
 00063,-0.00001210,-0.00000232,0.00000062,0.00000157,-0.00000030,0.0024
 0991,0.00001880,-0.00003127,-0.08460024,-0.00000551,-0.00000241,0.5722
 1393,0.00001576,0.00026647,0.00000012,0.00031981,0.00106141,0.00000045
 ,-0.00611655,-0.00961304,-0.00000356,-0.00566153,0.00375872,0.00000080
 ,0.00880133,0.00351327,0.00000184,0.00026735,0.00000664,0.00000002,-0.
 00018779,-0.00002087,-0.00007575,-0.00018777,-0.00002096,0.00007568,0.
 00028745,-0.00003027,0.00006875,0.00028748,-0.00003021,-0.00006877,0.0
 0299465,-0.00758958,-0.00000221,-0.02292311,0.00575864,0.00000040,-0.2
 0891986,-0.01402571,-0.00001146,0.75120836,0.00056733,0.00024680,0.000
 00014,0.00060148,-0.00326774,-0.00000095,-0.00961314,0.03597505,0.0000
 0977,0.03435234,-0.01043742,-0.00000040,-0.02270608,-0.02549600,-0.000
 00926,0.00007992,-0.00029871,-0.00000011,0.00016720,-0.00006957,0.0001
 7360,0.00016721,-0.00006940,-0.00017362,-0.00054549,-0.00022566,-0.000
 17818,-0.00054573,-0.00022588,0.00017796,-0.04255143,-0.01133908,-0.00
 000669,0.02825509,0.00896034,0.00000544,-0.01081584,-0.08379277,0.0000
 0433,0.10138542,0.99295429,0.00000017,0.00000010,0.00000222,0.00000020
 ,-0.00000098,0.00009125,-0.00000353,0.00001024,0.00101373,0.00001039,-
 0.00000282,-0.00060266,-0.00000640,-0.00000737,-0.00114904,0.00000004,
 -0.00000009,-0.00000389,-0.00000967,0.00001581,-0.00000807,0.00000975,
 -0.00001585,-0.00000819,-0.00000594,-0.00001545,-0.00000919,0.00000564
 ,0.00001531,-0.00000908,-0.00001318,-0.00000428,0.00066386,0.00000869,
 0.00000406,-0.00169076,-0.00001086,0.00000405,-0.09944837,0.00006590,0
 .00023952,0.24912783,0.00041140,-0.00051569,-0.00000022,-0.00054666,-0
 .00417872,-0.00000133,-0.00566156,0.03435207,0.00001006,0.01427988,-0.
 01117361,-0.00000234,-0.04105096,-0.03255574,-0.00001380,-0.00037386,-
 0.00006390,-0.00000004,0.00032592,0.00002980,0.00014853,0.00032587,0.0
 0002997,-0.00014841,-0.00096294,-0.00019480,-0.00010666,-0.00096316,-0
 .00019493,0.00010640,-0.01476058,-0.00172161,-0.00000147,-0.00792286,-
 0.00553695,-0.00000258,-0.03557114,0.04134741,0.00000979,-0.23727741,0
 .12530598,0.00002805,0.58405841,-0.00013229,-0.00020063,-0.00000008,-0
 .00030867,0.00080659,0.00000047,0.00375876,-0.01043753,-0.00000264,-0.
 01117372,0.00388960,0.00000005,0.00065390,0.01208401,0.00000144,-0.000
 05106,0.00013385,0.00000005,-0.00006299,0.00001864,-0.00008822,-0.0000
 6299,0.00001855,0.00008822,0.00010879,0.00005098,0.00007828,0.00010879
 ,0.00005106,-0.00007826,0.01574150,0.00273629,0.00000241,0.00028549,0.
 00058348,-0.00000032,0.00586849,0.00315703,-0.00000205,0.11547430,-0.3
 0609870,-0.00006530,-0.08198306,0.48085162,0.00000002,-0.00000009,-0.0
 0004138,-0.00000007,0.00000020,-0.00080937,0.00000078,-0.00000050,-0.0
 0060267,-0.00000255,0.00000007,0.00097783,-0.00000354,-0.00000104,0.00
 753518,-0.00000004,0.00000003,0.00001745,0.00001930,-0.00002122,0.0000
 1812,-0.00001930,0.00002122,0.00001819,-0.00011203,-0.00000449,0.00002
 999,0.00011193,0.00000446,0.00002997,0.00000401,0.00000120,-0.00151778
 ,-0.00000063,-0.00000080,0.00153209,-0.00000156,0.00000040,0.01202563,
 0.00002482,-0.00006455,-0.07348813,0.00001366,0.00012984,0.05124767,-0
 .00070500,-0.00067481,-0.00000039,-0.00146344,0.00235583,0.00000056,0.
 00880143,-0.02270631,-0.00000592,-0.04105157,0.00065379,-0.00000338,0.
 00403808,0.01253098,0.00000402,-0.00042434,0.00032879,0.00000010,0.000
 07596,0.00011672,-0.00003717,0.00007593,0.00011670,0.00003730,0.000134
 75,0.00017872,0.00007228,0.00013494,0.00017882,-0.00007212,0.00770595,
 0.01159790,0.00000507,0.00191050,-0.00350128,-0.00000109,-0.01647328,-
 0.04437107,-0.00001641,-0.24154524,-0.21390303,-0.00007751,0.04682422,
 0.01696618,0.00000619,0.25281077,-0.00053257,-0.00033218,-0.00000018,-
 0.00071475,0.00248329,0.00000085,0.00351333,-0.02549605,-0.00000701,-0
 .03255610,0.01208403,-0.00000105,0.01253088,0.01393190,0.00000468,-0.0
 0014629,0.00025466,0.00000009,-0.00007732,0.00006781,-0.00011024,-0.00
 007733,0.00006769,0.00011028,0.00031767,0.00014923,0.00012770,0.000317
 82,0.00014937,-0.00012756,0.03071803,-0.00381763,0.00000507,0.00414406
 ,-0.00207274,0.00000010,-0.01859028,-0.02039671,-0.00001543,-0.2351382
 6,-0.59490246,-0.00017605,0.01612990,-0.10808143,-0.00004292,0.2506019
 2,0.72363382,-0.00000019,-0.00000014,-0.00002657,-0.00000028,0.0000010
 7,-0.00055922,0.00000184,-0.00000911,-0.00114904,-0.00001348,0.0000014
 8,0.00753529,0.00000400,0.00000463,0.00182800,-0.00000007,0.00000010,0
 .00000499,0.00000765,-0.00002573,0.00000788,-0.00000770,0.00002579,0.0
 0000798,-0.00004248,-0.00001662,0.00000961,0.00004268,0.00001674,0.000
 00953,0.00001102,0.00000373,-0.01321404,0.00000139,-0.00000036,-0.0014
 4025,-0.00000856,-0.00001734,0.02426462,-0.00008424,-0.00017457,-0.081
 46279,0.00000595,-0.00004298,0.03270394,0.00009267,0.00023093,0.038383
 22,-0.00000837,-0.00001884,0.,-0.00003987,-0.00002662,-0.00000002,0.00
 026735,0.00007992,0.00000005,-0.00037387,-0.00005106,-0.00000004,-0.00
 042434,-0.00014629,-0.00000008,-0.00001720,0.00000328,0.,0.00000922,0.
 00000280,0.00000236,0.00000922,0.00000281,-0.00000236,-0.00001037,0.00
 000372,-0.00000117,-0.00001037,0.00000372,0.00000117,0.00052667,0.0001
 6997,0.00000009,-0.30668644,-0.06139047,-0.00003786,-0.01489166,-0.005
 62132,-0.00000280,0.00118443,0.00242120,0.00000092,-0.00217355,0.00049
 888,0.,-0.00047684,0.00031838,0.00000003,0.32774895,0.,0.00000493,0.,0
 .00001084,0.00003045,0.00000001,0.00000664,-0.00029871,-0.00000009,-0.
 00006390,0.00013385,0.00000003,0.00032879,0.00025466,0.00000010,0.0000
 0328,0.00000012,0.,-0.00000320,0.,-0.00000182,-0.00000320,0.,0.0000018
 2,0.00000895,0.00000115,0.00000172,0.00000895,0.00000115,-0.00000172,-
 0.00002464,-0.00008119,-0.00000002,-0.06397353,-0.06353112,-0.00000870
 ,0.03024818,0.00730096,0.00000488,0.00028055,-0.00702829,-0.00000258,0
 .00281898,0.00024029,0.00000028,-0.00051748,0.00167683,0.00000039,0.06
 407547,0.06660730,0.,0.,0.00000096,0.,0.,-0.00000235,0.00000002,-0.000
 00010,-0.00000389,-0.00000004,0.00000004,0.00001745,0.00000009,0.00000
 008,0.00000499,0.,0.,0.00000012,0.00000018,-0.00000011,-0.00000016,-0.
 00000018,0.00000011,-0.00000016,0.00000045,-0.00000024,0.00000012,-0.0
 0000044,0.00000024,0.00000012,0.00000002,0.,-0.00003297,-0.00003876,-0
 .00000857,-0.05040336,0.00000952,0.00000266,-0.00131974,0.00000019,-0.
 00000242,0.00058810,0.00000083,0.00000009,0.00004562,-0.00000021,0.000
 00041,0.00042736,0.00004045,0.00001137,0.04582926,0.00000658,0.0000107
 8,0.,0.00002141,-0.00000296,0.00000145,-0.00018778,0.00016721,0.000009
 74,0.00032590,-0.00006298,-0.00001930,0.00007594,-0.00007733,-0.000007
 69,0.00000922,-0.00000320,-0.00000018,-0.00000398,-0.00000140,-0.00000
 005,-0.00000320,-0.00000241,-0.00000026,0.00000073,-0.00000374,-0.0000
 0085,0.00000263,-0.00000275,0.00000055,-0.00037466,-0.00007357,0.00002
 749,-0.06017673,-0.03183391,-0.04659639,0.00363221,0.01057284,0.016711
 12,0.00107118,0.00204329,0.00145264,0.00019926,-0.00064006,-0.00015816
 ,-0.00046761,-0.00089849,-0.00043635,-0.00306614,-0.01589169,-0.025733
 76,0.05980072,0.00000097,0.00000313,-0.00000158,0.00000711,0.00000793,
 -0.00000324,-0.00002094,-0.00006941,-0.00001585,0.00002995,0.00001856,
 0.00002122,0.00011669,0.00006770,0.00002579,0.00000281,0.,0.00000011,-
 0.00000140,-0.00000208,-0.00000083,-0.00000241,0.00000002,0.00000210,0
 .00000370,0.00000229,-0.00000006,0.00000197,-0.00000054,0.00000037,-0.
 00005989,0.00000744,-0.00003659,-0.03005262,-0.13089682,-0.12103072,-0
 .00556169,-0.01543137,-0.02298035,-0.00177472,-0.00105919,-0.00044707,
 0.00027336,0.00031024,0.00017452,0.00029413,0.00125269,0.00041810,-0.0
 0017191,-0.00356864,-0.00417262,0.02955264,0.14135899,-0.00000222,-0.0
 0000443,-0.00000002,-0.00000579,0.00000833,-0.00000178,0.00007570,-0.0
 0017362,-0.00000818,-0.00014844,0.00008822,0.00001818,0.00003728,0.000
 11028,0.00000798,-0.00000236,0.00000182,-0.00000016,0.00000005,0.00000
 083,-0.00000085,-0.00000026,0.00000210,0.00000132,0.00000193,0.0000007
 2,0.00000293,0.00000050,-0.00000039,-0.00000274,0.00013472,-0.00002099
 ,-0.00003213,-0.04434392,-0.12264508,-0.23059950,0.00103853,0.00204373
 ,0.00229727,-0.00127531,-0.00203311,0.00023035,0.00029424,0.00058428,-
 0.00013167,-0.00013881,0.00152085,0.00034462,0.00077416,0.00255398,0.0
 0233847,0.04929749,0.13241412,0.24090201,0.00000658,0.00001078,0.,0.00
 002141,-0.00000296,-0.00000144,-0.00018778,0.00016720,-0.00000968,0.00
 032589,-0.00006299,0.00001930,0.00007595,-0.00007732,0.00000765,0.0000
 0922,-0.00000320,0.00000018,-0.00000320,-0.00000241,0.00000026,-0.0000
 0398,-0.00000140,0.00000005,0.00000263,-0.00000275,-0.00000055,0.00000
 073,-0.00000374,0.00000084,-0.00037466,-0.00007356,-0.00002757,-0.0601
 8851,-0.03188220,0.04659663,0.00363463,0.01058467,-0.01670360,0.001071
 18,0.00204404,-0.00145119,0.00019930,-0.00064017,0.00015779,-0.0004678
 3,-0.00089856,0.00043566,-0.00306937,-0.01590915,0.02572204,0.00076978
 ,0.00456523,-0.00584228,0.05981354,0.00000097,0.00000313,0.00000158,0.
 00000710,0.00000793,0.00000325,-0.00002089,-0.00006955,0.00001581,0.00
 002983,0.00001863,-0.00002122,0.00011672,0.00006780,-0.00002573,0.0000
 0280,0.,-0.00000011,-0.00000241,0.00000002,-0.00000210,-0.00000140,-0.
 00000208,0.00000083,0.00000197,-0.00000054,-0.00000037,0.00000370,0.00
 000229,0.00000006,-0.00005978,0.00000741,0.00003661,-0.03009910,-0.131
 06553,0.12109576,-0.00556403,-0.01544599,0.02296740,-0.00177560,-0.001
 06100,0.00044607,0.00027357,0.00031081,-0.00017418,0.00029400,0.001254
 07,-0.00041757,-0.00017190,-0.00356975,0.00416847,0.00456312,0.0113768
 6,-0.01484712,0.02960413,0.14154243,0.00000222,0.00000444,0.,0.0000058
 0,-0.00000833,-0.00000178,-0.00007574,0.00017360,-0.00000808,0.0001485
 1,-0.00008823,0.00001814,-0.00003719,-0.00011025,0.00000789,0.00000236
 ,-0.00000182,-0.00000016,0.00000026,-0.00000210,0.00000132,-0.00000005
 ,-0.00000083,-0.00000085,-0.00000050,0.00000039,-0.00000274,-0.0000019
 3,-0.00000072,0.00000293,-0.00013482,0.00002100,-0.00003211,0.04434532
 ,0.12270990,-0.23041917,-0.00104223,-0.00205460,0.00230940,0.00127422,
 0.00203253,0.00023192,-0.00029399,-0.00058409,-0.00013215,0.00013900,-
 0.00152037,0.00034337,-0.00077499,-0.00256017,0.00234287,0.00584775,0.
 01486756,-0.01738760,-0.04930068,-0.13247904,0.24070608,-0.00001910,-0
 .00001813,0.00000147,-0.00003971,0.00004854,-0.00001210,0.00028748,-0.
 00054566,0.00000565,-0.00096310,0.00010877,0.00011194,0.00013487,0.000
 31776,0.00004269,-0.00001037,0.00000895,-0.00000044,0.00000073,0.00000
 370,-0.00000193,0.00000263,0.00000197,0.00000050,-0.00000229,0.0000026
 2,0.00000265,0.00000422,0.00000772,-0.00000332,0.00128617,0.00034350,-
 0.00036824,0.00431607,0.01106950,-0.01692696,-0.06102334,-0.03022718,0
 .04707419,-0.00348692,-0.01958202,0.03232538,-0.00039161,0.00144264,-0
 .00285231,-0.00594236,-0.00188126,-0.00392843,0.00043461,-0.00053551,-
 0.00045146,0.00062046,-0.00076372,0.00049575,-0.00213185,0.00372245,0.
 00036767,0.06499807,-0.00000227,0.00000197,0.00000029,0.00000242,0.000
 02806,-0.00000232,-0.00003022,-0.00022585,0.00001532,-0.00019491,0.000
 05105,0.00000447,0.00017880,0.00014934,0.00001673,0.00000372,0.0000011
 5,0.00000024,-0.00000374,0.00000229,-0.00000072,-0.00000275,-0.0000005
 4,-0.00000039,0.00000263,-0.00000327,0.00000206,0.00000772,0.00000016,
 -0.00000225,0.00019391,0.00003567,-0.00003389,-0.00591317,-0.01442918,
 0.02140597,-0.02981330,-0.12975647,0.12157641,-0.00338632,-0.00623214,
 0.00581452,0.00228235,-0.00028723,-0.00050480,-0.00186361,0.00059246,-
 0.00090565,-0.00011901,0.00113304,-0.00018865,-0.00075729,0.00056958,-
 0.00011591,0.00335717,-0.00393505,-0.00059197,0.03172153,0.14173066,0.
 00000120,0.00000232,-0.00000036,0.00000207,-0.00001097,0.00000062,-0.0
 0006876,0.00017797,-0.00000908,0.00010641,-0.00007826,0.00002997,-0.00
 007213,-0.00012757,0.00000953,0.00000117,-0.00000172,0.00000012,0.0000
 0084,0.00000006,0.00000293,0.00000055,0.00000037,-0.00000274,-0.000002
 65,-0.00000206,-0.00000085,-0.00000332,-0.00000225,0.00000082,-0.00009
 904,0.00000658,-0.00009467,-0.00115946,-0.00186164,0.00281865,0.046413
 03,0.12090619,-0.21687849,-0.00245674,0.00014581,0.00117862,0.00014364
 ,-0.00075611,0.00074265,-0.00036189,-0.00131684,-0.00077605,-0.0004124
 8,0.00029366,0.00008563,-0.00027994,0.00004156,0.00074252,0.00007431,-
 0.00068227,0.00128202,-0.04863324,-0.13135977,0.22926202,-0.00001909,-
 0.00001813,-0.00000149,-0.00003971,0.00004853,0.00001212,0.00028746,-0
 .00054556,-0.00000592,-0.00096301,0.00010881,-0.00011202,0.00013482,0.
 00031773,-0.00004248,-0.00001037,0.00000895,0.00000045,0.00000263,0.00
 000197,-0.00000050,0.00000072,0.00000370,0.00000194,0.00000421,0.00000
 771,0.00000333,-0.00000229,0.00000263,-0.00000265,0.00128604,0.0003432
 6,0.00036866,0.00431371,0.01105757,0.01693488,-0.06101096,-0.03017897,
 -0.04707512,-0.00348322,-0.01955966,-0.03233980,-0.00039216,0.00144075
 ,0.00285322,-0.00594242,-0.00188377,0.00392672,0.00043451,-0.00053579,
 0.00045115,-0.00213178,0.00372262,-0.00036553,0.00062051,-0.00076337,-
 0.00049630,0.00187493,0.00484264,0.00650925,0.06498506,-0.00000227,0.0
 0000197,-0.00000029,0.00000242,0.00002805,0.00000234,-0.00003027,-0.00
 022569,-0.00001545,-0.00019482,0.00005099,-0.00000449,0.00017874,0.000
 14925,-0.00001662,0.00000372,0.00000115,-0.00000024,-0.00000275,-0.000
 00054,0.00000039,-0.00000374,0.00000229,0.00000072,0.00000771,0.000000
 15,0.00000225,0.00000263,-0.00000327,-0.00000207,0.00019382,0.00003565
 ,0.00003402,-0.00591110,-0.01441585,-0.02141888,-0.02976489,-0.1295862
 6,-0.12151871,-0.00338731,-0.00622788,-0.00582021,0.00228226,-0.000288
 18,0.00050437,-0.00186390,0.00059090,0.00090653,-0.00011933,0.00113313
 ,0.00018936,0.00335718,-0.00393595,0.00058878,-0.00075749,0.00056954,0
 .00011567,0.00484524,0.01068233,0.01471922,0.03167029,0.14154658,-0.00
 000121,-0.00000232,-0.00000037,-0.00000207,0.00001099,0.00000063,0.000
 06876,-0.00017817,-0.00000919,-0.00010665,0.00007828,0.00002999,0.0000
 7227,0.00012769,0.00000961,-0.00000117,0.00000172,0.00000012,-0.000000
 55,-0.00000036,-0.00000274,-0.00000085,-0.00000006,0.00000293,0.000003
 33,0.00000225,0.00000082,0.00000265,0.00000206,-0.00000085,0.00009933,
 -0.00000646,-0.00009460,0.00115547,0.00185107,0.00280733,-0.04641291,-
 0.12084860,-0.21705936,0.00245344,-0.00015345,0.00117067,-0.00014232,0
 .00075548,0.00074387,0.00035995,0.00131754,-0.00077413,0.00041244,-0.0
 0029299,0.00008567,-0.00007239,0.00067910,0.00128285,0.00027939,-0.000
 04176,0.00074257,-0.00650317,-0.01469824,-0.01850864,0.04863380,0.1313
 0210,0.22945765,-0.00038640,0.00085409,0.00000037,0.00118920,0.0052007
 5,0.00000166,0.00299474,-0.04255110,-0.00001281,-0.01476058,0.01574133
 ,0.00000371,0.00770738,0.03071811,0.00001099,0.00052667,-0.00002464,0.
 00000001,-0.00037469,-0.00005975,-0.00013485,-0.00037462,-0.00005992,0
 .00013468,0.00128596,0.00019381,0.00009933,0.00128623,0.00019393,-0.00
 009905,0.01694266,0.00157636,0.00000166,0.00089607,0.00044882,0.000000
 14,0.00319848,-0.00066146,-0.00000027,-0.03771959,0.04243191,0.0000102
 8,-0.29857582,-0.06729348,-0.00004151,-0.00755262,-0.02519700,-0.00000
 785,0.00063340,-0.00033256,-0.00000008,-0.00012415,-0.00016187,-0.0000
 2545,-0.00012418,-0.00016187,0.00002531,0.00005042,-0.00050628,0.00029
 718,0.00005041,-0.00050614,-0.00029754,0.32323100,-0.00008935,0.000380
 46,0.00000014,0.00072112,0.00124766,-0.00000022,-0.00758949,-0.0113389
 4,-0.00000437,-0.00172159,0.00273624,0.00000116,0.01159810,-0.00381756
 ,0.00000381,0.00016997,-0.00008119,-0.00000002,-0.00007357,0.00000742,
 0.00002099,-0.00007356,0.00000743,-0.00002100,0.00034325,0.00003565,-0
 .00000645,0.00034351,0.00003568,0.00000658,0.00157631,-0.00324651,-0.0
 0000120,0.00134868,0.00077918,0.00000010,0.00177923,-0.00483440,-0.000
 00296,0.04528743,0.01969542,0.00000839,-0.08700666,-0.07984935,-0.0000
 2201,-0.00681299,-0.00308955,0.00000057,0.00025661,-0.00044017,-0.0000
 0014,-0.00001528,-0.00001143,-0.00007740,-0.00001533,-0.00001145,0.000
 07740,-0.00009143,-0.00010802,-0.00009427,-0.00009189,-0.00010836,0.00
 009411,0.04015694,0.08201178,-0.00000012,0.00000017,0.00005106,0.00000
 010,-0.00000002,0.00240988,-0.00000216,-0.00000711,0.00066387,-0.00000
 157,0.00000258,-0.00151776,0.00000522,0.00000531,-0.01321395,0.0000001
 0,-0.00000002,-0.00003297,-0.00002757,0.00003661,-0.00003209,0.0000274
 9,-0.00003659,-0.00003215,0.00036867,0.00003404,-0.00009459,-0.0003682
 1,-0.00003387,-0.00009466,0.00000172,-0.00000119,0.00097566,0.00000042
 ,-0.00000001,0.00077445,0.00000054,-0.00000309,0.00495500,0.00001140,0
 .00000822,0.00358163,-0.00004799,-0.00002054,-0.03094508,-0.00000225,-
 0.00000084,-0.00646833,0.00000013,-0.00000016,-0.00000413,-0.00004290,
 0.00004435,-0.00000389,0.00004288,-0.00004438,-0.00000386,-0.00074628,
 -0.00043147,0.00011477,0.00074629,0.00043120,0.00011517,0.00003409,0.0
 0001681,0.03880199\\-0.00000006,0.00000019,0.00000001,-0.00000025,0.00
 000030,0.00000004,0.00000027,0.00000005,-0.00000027,-0.00000030,0.0000
 0021,0.00000051,-0.00000018,0.,0.00000013,0.00000011,0.00000037,-0.000
 00002,0.00000016,0.00000021,0.00000007,0.00000007,0.00000025,0.0000000
 1,-0.00000002,0.00000018,-0.00000003,-0.00000004,0.00000016,-0.0000001
 1,0.00000020,0.00000007,-0.00000033,0.00000012,-0.00000022,0.00000002,
 0.00000016,-0.00000028,-0.00000021,-0.00000005,-0.00000030,-0.00000027
 ,-0.00000010,-0.00000012,0.00000036,-0.00000030,0.00000007,0.00000026,
 -0.00000010,-0.00000038,-0.00000001,-0.00000011,-0.00000024,0.00000003
 ,-0.00000011,-0.00000020,-0.00000003,0.00000002,-0.00000015,0.00000012
 ,0.00000004,-0.00000019,0.00000003,0.00000046,0.00000002,-0.00000030\\
 \@


 AS FAR AS THE LAWS OF MATHEMATICS REFER TO REALITY,
 THEY ARE NOT CERTAIN; AND AS FAR AS THEY ARE CERTAIN,
 THEY DO NOT REFER TO REALITY.

                                         -- ALBERT EINSTEIN
 File lengths (MBytes):  RWF=     79 Int=      0 D2E=      0 Chk=      3 Scr=      1
 Normal termination of Gaussian 16 at Sun Feb  5 15:36:00 2023.
real 724.75
user 2614.36
sys 19.37
