 Entering Gaussian System, Link 0=g16
 Input=gaussian_test.inp
 Output=gaussian_test.log
 Initial command:
 /sw/restricted/lms/sw/Gaussian/g16_B01/g16/l1.exe "/scratch/user/peterchao1/peterchao1/6097803_1659647584000000894362978/Gau-7172.inp" -scrdir="/scratch/user/peterchao1/peterchao1/6097803_1659647584000000894362978/"
 Entering Link 1 = /sw/restricted/lms/sw/Gaussian/g16_B01/g16/l1.exe PID=      7177.
  
 Copyright (c) 1988-2017, Gaussian, Inc.  All Rights Reserved.
  
 This is part of the Gaussian(R) 16 program.  It is based on
 the Gaussian(R) 09 system (copyright 2009, Gaussian, Inc.),
 the Gaussian(R) 03 system (copyright 2003, Gaussian, Inc.),
 the Gaussian(R) 98 system (copyright 1998, Gaussian, Inc.),
 the Gaussian(R) 94 system (copyright 1995, Gaussian, Inc.),
 the Gaussian 92(TM) system (copyright 1992, Gaussian, Inc.),
 the Gaussian 90(TM) system (copyright 1990, Gaussian, Inc.),
 the Gaussian 88(TM) system (copyright 1988, Gaussian, Inc.),
 the Gaussian 86(TM) system (copyright 1986, Carnegie Mellon
 University), and the Gaussian 82(TM) system (copyright 1983,
 Carnegie Mellon University). Gaussian is a federally registered
 trademark of Gaussian, Inc.
  
 This software contains proprietary and confidential information,
 including trade secrets, belonging to Gaussian, Inc.
  
 This software is provided under written license and may be
 used, copied, transmitted, or stored only in accord with that
 written license.
  
 The following legend is applicable only to US Government
 contracts under FAR:
  
                    RESTRICTED RIGHTS LEGEND
  
 Use, reproduction and disclosure by the US Government is
 subject to restrictions as set forth in subparagraphs (a)
 and (c) of the Commercial Computer Software - Restricted
 Rights clause in FAR 52.227-19.
  
 Gaussian, Inc.
 340 Quinnipiac St., Bldg. 40, Wallingford CT 06492
  
  
 ---------------------------------------------------------------
 Warning -- This program may not be used in any manner that
 competes with the business of Gaussian, Inc. or will provide
 assistance to any competitor of Gaussian, Inc.  The licensee
 of this program is prohibited from giving any competitor of
 Gaussian, Inc. access to this program.  By using this program,
 the user acknowledges that Gaussian, Inc. is engaged in the
 business of creating and licensing software in the field of
 computational chemistry and represents and warrants to the
 licensee that it is not a competitor of Gaussian, Inc. and that
 it will not use this program in any manner prohibited above.
 ---------------------------------------------------------------
  

 Cite this work as:
 Gaussian 16, Revision B.01,
 M. J. Frisch, G. W. Trucks, H. B. Schlegel, G. E. Scuseria, 
 M. A. Robb, J. R. Cheeseman, G. Scalmani, V. Barone, 
 G. A. Petersson, H. Nakatsuji, X. Li, M. Caricato, A. V. Marenich, 
 J. Bloino, B. G. Janesko, R. Gomperts, B. Mennucci, H. P. Hratchian, 
 J. V. Ortiz, A. F. Izmaylov, J. L. Sonnenberg, D. Williams-Young, 
 F. Ding, F. Lipparini, F. Egidi, J. Goings, B. Peng, A. Petrone, 
 T. Henderson, D. Ranasinghe, V. G. Zakrzewski, J. Gao, N. Rega, 
 G. Zheng, W. Liang, M. Hada, M. Ehara, K. Toyota, R. Fukuda, 
 J. Hasegawa, M. Ishida, T. Nakajima, Y. Honda, O. Kitao, H. Nakai, 
 T. Vreven, K. Throssell, J. A. Montgomery, Jr., J. E. Peralta, 
 F. Ogliaro, M. J. Bearpark, J. J. Heyd, E. N. Brothers, K. N. Kudin, 
 V. N. Staroverov, T. A. Keith, R. Kobayashi, J. Normand, 
 K. Raghavachari, A. P. Rendell, J. C. Burant, S. S. Iyengar, 
 J. Tomasi, M. Cossi, J. M. Millam, M. Klene, C. Adamo, R. Cammi, 
 J. W. Ochterski, R. L. Martin, K. Morokuma, O. Farkas, 
 J. B. Foresman, and D. J. Fox, Gaussian, Inc., Wallingford CT, 2016.
 
 ******************************************
 Gaussian 16:  ES64L-G16RevB.01 20-Dec-2017
                 4-Aug-2022 
 ******************************************
 %nprocshared=4
 Will use up to    4 processors via shared memory.
 %mem=8000mb
 ----------------------------------------------------------------------
 #T wB97XD/def2svpp opt=tight freq int(grid=ultrafine) scf=(verytight,q
 c)
 ----------------------------------------------------------------------
 --------------
 Comment gs min
 --------------
 Symbolic Z-matrix:
 Charge =  0 Multiplicity = 1
 C                     1.03549   0.08159  -0.03118 
 C                     2.5701    0.06493  -0.07768 
 N                     3.09305  -0.01851   1.31511 
 C                     3.07624  -1.1612   -0.87778 
 O                     2.66237  -2.38046  -0.25773 
 C                     3.08704   1.36756  -0.7296 
 O                     4.51138   1.42702  -0.67013 
 H                     0.63191  -0.81637   0.45022 
 H                     0.61645   0.13161  -1.04266 
 H                     0.66246   0.94964   0.52492 
 H                     2.62551  -0.79964   1.78111 
 H                     2.78133   0.80661   1.83257 
 H                     4.17018  -1.1792   -0.9511 
 H                     2.67505  -1.15191  -1.8966 
 H                     3.20607  -2.45951   0.54607 
 H                     2.70129   2.25026  -0.20628 
 H                     2.78268   1.43839  -1.77876 
 H                     4.74285   1.067     0.20859 
 

 GradGradGradGradGradGradGradGradGradGradGradGradGradGradGradGradGradGrad
 Initialization pass.
                           ----------------------------
                           !    Initial Parameters    !
                           ! (Angstroms and Degrees)  !
 --------------------------                            --------------------------
 ! Name  Definition              Value          Derivative Info.                !
 --------------------------------------------------------------------------------
 ! R1    R(1,2)                  1.5354         estimate D2E/DX2                !
 ! R2    R(1,8)                  1.0959         estimate D2E/DX2                !
 ! R3    R(1,9)                  1.096          estimate D2E/DX2                !
 ! R4    R(1,10)                 1.0963         estimate D2E/DX2                !
 ! R5    R(2,3)                  1.4901         estimate D2E/DX2                !
 ! R6    R(2,4)                  1.5491         estimate D2E/DX2                !
 ! R7    R(2,6)                  1.5457         estimate D2E/DX2                !
 ! R8    R(3,11)                 1.0227         estimate D2E/DX2                !
 ! R9    R(3,12)                 1.0226         estimate D2E/DX2                !
 ! R10   R(4,5)                  1.4291         estimate D2E/DX2                !
 ! R11   R(4,13)                 1.0965         estimate D2E/DX2                !
 ! R12   R(4,14)                 1.095          estimate D2E/DX2                !
 ! R13   R(5,15)                 0.9736         estimate D2E/DX2                !
 ! R14   R(6,7)                  1.4268         estimate D2E/DX2                !
 ! R15   R(6,16)                 1.0963         estimate D2E/DX2                !
 ! R16   R(6,17)                 1.0947         estimate D2E/DX2                !
 ! R17   R(7,18)                 0.9774         estimate D2E/DX2                !
 ! A1    A(2,1,8)              111.8694         estimate D2E/DX2                !
 ! A2    A(2,1,9)              110.7743         estimate D2E/DX2                !
 ! A3    A(2,1,10)             111.3482         estimate D2E/DX2                !
 ! A4    A(8,1,9)              107.5779         estimate D2E/DX2                !
 ! A5    A(8,1,10)             107.4971         estimate D2E/DX2                !
 ! A6    A(9,1,10)             107.5719         estimate D2E/DX2                !
 ! A7    A(1,2,3)              108.849          estimate D2E/DX2                !
 ! A8    A(1,2,4)              110.5357         estimate D2E/DX2                !
 ! A9    A(1,2,6)              109.7491         estimate D2E/DX2                !
 ! A10   A(3,2,4)              108.8918         estimate D2E/DX2                !
 ! A11   A(3,2,6)              108.9084         estimate D2E/DX2                !
 ! A12   A(4,2,6)              109.8732         estimate D2E/DX2                !
 ! A13   A(2,3,11)             107.9529         estimate D2E/DX2                !
 ! A14   A(2,3,12)             108.7122         estimate D2E/DX2                !
 ! A15   A(11,3,12)            104.262          estimate D2E/DX2                !
 ! A16   A(2,4,5)              110.8898         estimate D2E/DX2                !
 ! A17   A(2,4,13)             111.9306         estimate D2E/DX2                !
 ! A18   A(2,4,14)             110.7403         estimate D2E/DX2                !
 ! A19   A(5,4,13)             107.6932         estimate D2E/DX2                !
 ! A20   A(5,4,14)             107.7473         estimate D2E/DX2                !
 ! A21   A(13,4,14)            107.6643         estimate D2E/DX2                !
 ! A22   A(4,5,15)             105.411          estimate D2E/DX2                !
 ! A23   A(2,6,7)              110.5733         estimate D2E/DX2                !
 ! A24   A(2,6,16)             111.0729         estimate D2E/DX2                !
 ! A25   A(2,6,17)             111.4548         estimate D2E/DX2                !
 ! A26   A(7,6,16)             107.3261         estimate D2E/DX2                !
 ! A27   A(7,6,17)             108.3484         estimate D2E/DX2                !
 ! A28   A(16,6,17)            107.9129         estimate D2E/DX2                !
 ! A29   A(6,7,18)             104.9828         estimate D2E/DX2                !
 ! D1    D(8,1,2,3)            -59.3615         estimate D2E/DX2                !
 ! D2    D(8,1,2,4)             60.1913         estimate D2E/DX2                !
 ! D3    D(8,1,2,6)           -178.4644         estimate D2E/DX2                !
 ! D4    D(9,1,2,3)           -179.3821         estimate D2E/DX2                !
 ! D5    D(9,1,2,4)            -59.8293         estimate D2E/DX2                !
 ! D6    D(9,1,2,6)             61.515          estimate D2E/DX2                !
 ! D7    D(10,1,2,3)            60.9512         estimate D2E/DX2                !
 ! D8    D(10,1,2,4)          -179.496          estimate D2E/DX2                !
 ! D9    D(10,1,2,6)           -58.1517         estimate D2E/DX2                !
 ! D10   D(1,2,3,11)            51.3718         estimate D2E/DX2                !
 ! D11   D(1,2,3,12)           -61.1582         estimate D2E/DX2                !
 ! D12   D(4,2,3,11)           -69.1988         estimate D2E/DX2                !
 ! D13   D(4,2,3,12)           178.2712         estimate D2E/DX2                !
 ! D14   D(6,2,3,11)           170.9988         estimate D2E/DX2                !
 ! D15   D(6,2,3,12)            58.4689         estimate D2E/DX2                !
 ! D16   D(1,2,4,5)            -61.4292         estimate D2E/DX2                !
 ! D17   D(1,2,4,13)           178.2832         estimate D2E/DX2                !
 ! D18   D(1,2,4,14)            58.1351         estimate D2E/DX2                !
 ! D19   D(3,2,4,5)             58.0978         estimate D2E/DX2                !
 ! D20   D(3,2,4,13)           -62.1898         estimate D2E/DX2                !
 ! D21   D(3,2,4,14)           177.6621         estimate D2E/DX2                !
 ! D22   D(6,2,4,5)            177.3            estimate D2E/DX2                !
 ! D23   D(6,2,4,13)            57.0124         estimate D2E/DX2                !
 ! D24   D(6,2,4,14)           -63.1357         estimate D2E/DX2                !
 ! D25   D(1,2,6,7)            174.6308         estimate D2E/DX2                !
 ! D26   D(1,2,6,16)            55.584          estimate D2E/DX2                !
 ! D27   D(1,2,6,17)           -64.7864         estimate D2E/DX2                !
 ! D28   D(3,2,6,7)             55.5644         estimate D2E/DX2                !
 ! D29   D(3,2,6,16)           -63.4824         estimate D2E/DX2                !
 ! D30   D(3,2,6,17)           176.1472         estimate D2E/DX2                !
 ! D31   D(4,2,6,7)            -63.6277         estimate D2E/DX2                !
 ! D32   D(4,2,6,16)           177.3255         estimate D2E/DX2                !
 ! D33   D(4,2,6,17)            56.9551         estimate D2E/DX2                !
 ! D34   D(2,4,5,15)           -72.2597         estimate D2E/DX2                !
 ! D35   D(13,4,5,15)           50.5166         estimate D2E/DX2                !
 ! D36   D(14,4,5,15)          166.3986         estimate D2E/DX2                !
 ! D37   D(2,6,7,18)           -39.1602         estimate D2E/DX2                !
 ! D38   D(16,6,7,18)           82.1317         estimate D2E/DX2                !
 ! D39   D(17,6,7,18)         -161.5784         estimate D2E/DX2                !
 --------------------------------------------------------------------------------
 Number of steps in this run=     95 maximum allowed number of steps=    108.
 GradGradGradGradGradGradGradGradGradGradGradGradGradGradGradGradGradGrad

                    Distance matrix (angstroms):
                    1          2          3          4          5
     1  C    0.000000
     2  C    1.535405   0.000000
     3  N    2.460908   1.490068   0.000000
     4  C    2.534940   1.549107   2.472810   0.000000
     5  O    2.959688   2.453745   2.870212   1.429106   0.000000
     6  C    2.519993   1.545662   2.470236   2.533121   3.801402
     7  O    3.781567   2.444351   2.835912   2.966754   4.252742
     8  H    1.095881   2.193615   2.727971   2.803077   2.659011
     9  H    1.095987   2.179996   3.422742   2.783722   3.333527
    10  H    1.096316   2.187448   2.733035   3.499935   3.962543
    11  H    2.566929   2.050769   1.022699   2.720952   2.580159
    12  H    2.654652   2.060039   1.022623   3.362327   3.813256
    13  H    3.501732   2.207029   2.764619   1.096542   2.048726
    14  H    2.772990   2.190932   3.431385   1.095004   2.048265
    15  H    3.391434   2.676998   2.561772   1.931273   0.973629
    16  H    2.740197   2.193038   2.759605   3.497079   4.631169
    17  H    2.819151   2.196646   3.433791   2.766914   4.112374
    18  H    3.843571   2.409759   2.263749   2.987083   4.053496
                    6          7          8          9         10
     6  C    0.000000
     7  O    1.426820   0.000000
     8  H    3.491302   4.619337   0.000000
     9  H    2.780179   4.121571   1.768501   0.000000
    10  H    2.761714   4.058352   1.767853   1.768784   0.000000
    11  H    3.348646   3.810918   2.397079   3.588485   2.914028
    12  H    2.640613   3.105075   3.027369   3.661868   2.493996
    13  H    2.776372   2.643434   3.822917   3.788879   4.360584
    14  H    2.807019   3.395175   3.129628   2.571861   3.785603
    15  H    4.035835   4.276458   3.055388   3.993006   4.253552
    16  H    1.096278   2.041888   3.757332   3.087842   2.526478
    17  H    1.094709   2.053678   3.831202   2.634781   3.168778
    18  H    1.926718   0.977416   4.528277   4.412228   4.094316
                   11         12         13         14         15
    11  H    0.000000
    12  H    1.614610   0.000000
    13  H    3.161494   3.690686   0.000000
    14  H    3.694875   4.213526   1.769217   0.000000
    15  H    2.148847   3.535962   2.193221   2.821070   0.000000
    16  H    3.641065   2.499488   3.804417   3.799030   4.796120
    17  H    4.207868   3.666177   3.076029   2.595212   4.558258
    18  H    3.231144   2.559819   2.591958   3.692043   3.861588
                   16         17         18
    16  H    0.000000
    17  H    1.771567   0.000000
    18  H    2.395869   2.815982   0.000000
 Framework group  C1[X(C4H11NO2)]
 Deg. of freedom    48
                         Standard orientation:                         
 ---------------------------------------------------------------------
 Center     Atomic      Atomic             Coordinates (Angstroms)
 Number     Number       Type             X           Y           Z
 ---------------------------------------------------------------------
      1          6           0       -0.618305    1.653081   -0.469543
      2          6           0        0.016816    0.329014   -0.021286
      3          7           0        0.013597    0.273331    1.467738
      4          6           0       -0.790282   -0.874024   -0.569944
      5          8           0       -2.128789   -0.860494   -0.069384
      6          6           0        1.477165    0.254294   -0.522154
      7          8           0        2.123263   -0.911004   -0.011807
      8          1           0       -1.648243    1.754431   -0.109112
      9          1           0       -0.642003    1.722279   -1.563087
     10          1           0       -0.051996    2.514116   -0.095612
     11          1           0       -0.936322    0.474751    1.788670
     12          1           0        0.571101    1.052004    1.826365
     13          1           0       -0.338791   -1.832763   -0.288198
     14          1           0       -0.842398   -0.839810   -1.663171
     15          1           0       -2.056786   -1.111319    0.868623
     16          1           0        2.054807    1.122469   -0.183881
     17          1           0        1.524434    0.223652   -1.615413
     18          1           0        1.802861   -0.995329    0.907743
 ---------------------------------------------------------------------
 Rotational constants (GHZ):           3.4202471           1.9554847           1.7205398
   120 basis functions,   219 primitive gaussians,   127 cartesian basis functions
    29 alpha electrons       29 beta electrons
       nuclear repulsion energy       346.5127905501 Hartrees.
 NAtoms=   18 NActive=   18 NUniq=   18 SFac= 1.00D+00 NAtFMM=   60 NAOKFM=F Big=F
 Nuclear repulsion after empirical dispersion term =      346.5013536278 Hartrees.
   1 Symmetry operations used in ECPInt.
 ECPInt:  NShTT=    2080 NPrTT=    8380 LenC2=    2070 LenP2D=    6810.
 LDataN:  DoStor=T MaxTD1= 4 Len=   56
 ExpMin= 1.22D-01 ExpMax= 2.27D+03 ExpMxC= 3.41D+02 IAcc=3 IRadAn=         5 AccDes= 0.00D+00
 Harris functional with IExCor= 4639 and IRadAn=       5 diagonalized for initial guess.
 HarFok:  IExCor= 4639 AccDes= 0.00D+00 IRadAn=         5 IDoV= 1 UseB2=F ITyADJ=14
 ICtDFT=  3500011 ScaDFX=  1.000000  1.000000  1.000000  1.000000
 FoFCou: FMM=F IPFlag=           0 FMFlag=      100000 FMFlg1=           0
         NFxFlg=           0 DoJE=T BraDBF=F KetDBF=T FulRan=T
         wScrn=  0.000000 ICntrl=       500 IOpCl=  0 I1Cent=   200000004 NGrid=           0
         NMat0=    1 NMatS0=      1 NMatT0=    0 NMatD0=    1 NMtDS0=    0 NMtDT0=    0
 Petite list used in FoFCou.
     Minimum is close to point  3 DX=  2.20D-02 DF= -6.54D-05 DXR=  3.54D-02 DFR=  1.24D-03 which will be used.
     Accept linear search using points  2 and  3.
     Accept linear search using points  1 and  2.
     Minimum is close to point  2 DX=  1.76D-04 DF= -1.53D-12 DXR=  1.76D-04 DFR=  3.05D-08 which will be used.
 SCF Done:  E(RwB97XD) =  -363.812105575     a.u. after    7 cycles
            Convg  =    0.8314D-09                    34 Fock formations.
              S**2 =  0.0000                  -V/T =  2.0089

 **********************************************************************

            Population analysis using the SCF Density.

 **********************************************************************

 Orbital symmetries:
       Occupied  (A) (A) (A) (A) (A) (A) (A) (A) (A) (A) (A) (A)
                 (A) (A) (A) (A) (A) (A) (A) (A) (A) (A) (A) (A)
                 (A) (A) (A) (A) (A)
       Virtual   (A) (A) (A) (A) (A) (A) (A) (A) (A) (A) (A) (A)
                 (A) (A) (A) (A) (A) (A) (A) (A) (A) (A) (A) (A)
                 (A) (A) (A) (A) (A) (A) (A) (A) (A) (A) (A) (A)
                 (A) (A) (A) (A) (A) (A) (A) (A) (A) (A) (A) (A)
                 (A) (A) (A) (A) (A) (A) (A) (A) (A) (A) (A) (A)
                 (A) (A) (A) (A) (A) (A) (A) (A) (A) (A) (A) (A)
                 (A) (A) (A) (A) (A) (A) (A) (A) (A) (A) (A) (A)
                 (A) (A) (A) (A) (A) (A) (A)
 The electronic state is 1-A.
 Alpha  occ. eigenvalues --  -19.25315 -19.23845 -14.43861 -10.33956 -10.33807
 Alpha  occ. eigenvalues --  -10.33601 -10.28600  -1.11223  -1.09890  -0.99203
 Alpha  occ. eigenvalues --   -0.85751  -0.77645  -0.76152  -0.66893  -0.61888
 Alpha  occ. eigenvalues --   -0.59068  -0.56888  -0.55282  -0.51531  -0.51024
 Alpha  occ. eigenvalues --   -0.50438  -0.48689  -0.47402  -0.45723  -0.41848
 Alpha  occ. eigenvalues --   -0.39813  -0.37111  -0.34309  -0.33890
 Alpha virt. eigenvalues --    0.11171   0.14660   0.16474   0.17287   0.18133
 Alpha virt. eigenvalues --    0.19482   0.20569   0.22985   0.23637   0.24502
 Alpha virt. eigenvalues --    0.25683   0.27960   0.28900   0.30234   0.31824
 Alpha virt. eigenvalues --    0.32848   0.34793   0.51301   0.52695   0.54760
 Alpha virt. eigenvalues --    0.57928   0.58743   0.61471   0.63606   0.67695
 Alpha virt. eigenvalues --    0.68810   0.70036   0.71410   0.72738   0.74734
 Alpha virt. eigenvalues --    0.76856   0.77390   0.78238   0.79075   0.80638
 Alpha virt. eigenvalues --    0.81180   0.82011   0.82773   0.83749   0.86520
 Alpha virt. eigenvalues --    0.86718   0.92916   1.02146   1.04924   1.07547
 Alpha virt. eigenvalues --    1.10715   1.11659   1.16246   1.19684   1.24381
 Alpha virt. eigenvalues --    1.28052   1.34481   1.35863   1.40036   1.52802
 Alpha virt. eigenvalues --    1.54515   1.61369   1.70344   1.79980   1.84143
 Alpha virt. eigenvalues --    1.87627   1.91270   1.91784   1.94361   2.04760
 Alpha virt. eigenvalues --    2.06906   2.11863   2.16826   2.18105   2.21927
 Alpha virt. eigenvalues --    2.23171   2.32100   2.34166   2.38606   2.41103
 Alpha virt. eigenvalues --    2.56045   2.63874   2.69691   2.72298   2.75356
 Alpha virt. eigenvalues --    2.77751   2.78381   2.90936   2.95347   2.99687
 Alpha virt. eigenvalues --    3.06557   3.07228   3.09328   3.13170   3.44564
 Alpha virt. eigenvalues --    3.47498
          Condensed to atoms (all electrons):
 Mulliken charges:
               1
     1  C   -0.263389
     2  C   -0.229951
     3  N   -0.526960
     4  C    0.093005
     5  O   -0.500608
     6  C    0.101469
     7  O   -0.509703
     8  H    0.127979
     9  H    0.111941
    10  H    0.107604
    11  H    0.219791
    12  H    0.226143
    13  H    0.106882
    14  H    0.106631
    15  H    0.315182
    16  H    0.084408
    17  H    0.107223
    18  H    0.322353
 Sum of Mulliken charges =   0.00000
 Mulliken charges with hydrogens summed into heavy atoms:
               1
     1  C    0.084135
     2  C   -0.229951
     3  N   -0.081027
     4  C    0.306518
     5  O   -0.185427
     6  C    0.293101
     7  O   -0.187350
 Electronic spatial extent (au):  <R**2>=            826.5292
 Charge=              0.0000 electrons
 Dipole moment (field-independent basis, Debye):
    X=             -0.4977    Y=              1.9861    Z=              1.5135  Tot=              2.5462
   1 Symmetry operations used in ECPInt.
 ECPInt:  NShTT=    2080 NPrTT=    8380 LenC2=    2070 LenP2D=    6810.
 LDataN:  DoStor=T MaxTD1= 5 Len=  102
 Calling FoFJK, ICntrl=      2127 FMM=F ISym2X=0 I1Cent= 0 IOpClX= 0 NMat=1 NMatS=1 NMatT=0.

 GradGradGradGradGradGradGradGradGradGradGradGradGradGradGradGradGradGrad
 FormGI is forming the generalized inverse of G from B-inverse, IUseBI=4.
 Internal  Forces:  Max     0.011671575 RMS     0.004253048
 Step number   1 out of a maximum of   95
 All quantities printed in internal units (Hartrees-Bohrs-Radians)
 Mixed Optimization -- RFO/linear search
 Second derivative matrix not updated -- first step.
 ITU=  0
     Eigenvalues ---    0.00230   0.00230   0.00298   0.00500   0.01307
     Eigenvalues ---    0.01337   0.04541   0.04609   0.04862   0.04912
     Eigenvalues ---    0.05363   0.05376   0.05457   0.05469   0.05499
     Eigenvalues ---    0.05513   0.11606   0.11641   0.13833   0.13856
     Eigenvalues ---    0.15026   0.15126   0.16000   0.16000   0.16000
     Eigenvalues ---    0.16000   0.16000   0.16000   0.16000   0.21993
     Eigenvalues ---    0.21999   0.27727   0.28023   0.28930   0.33442
     Eigenvalues ---    0.34067   0.34093   0.34097   0.34130   0.34142
     Eigenvalues ---    0.34241   0.34274   0.41118   0.41450   0.43910
     Eigenvalues ---    0.43922   0.51890   0.52642
 Linear search not attempted -- first point.
 Iteration  1 RMS(Cart)=  0.06031483 RMS(Int)=  0.00191503
 Iteration  2 RMS(Cart)=  0.00228921 RMS(Int)=  0.00055431
 Iteration  3 RMS(Cart)=  0.00000330 RMS(Int)=  0.00055430
 Iteration  4 RMS(Cart)=  0.00000000 RMS(Int)=  0.00055430
 Variable       Old X    -DE/DX   Delta X   Delta X   Delta X     New X
                                 (Linear)    (Quad)   (Total)
    R1        2.90149  -0.00076   0.00000  -0.00255  -0.00255   2.89895
    R2        2.07091   0.00437   0.00000   0.01244   0.01244   2.08336
    R3        2.07112   0.00644   0.00000   0.01835   0.01835   2.08947
    R4        2.07174   0.00579   0.00000   0.01652   0.01652   2.08825
    R5        2.81582  -0.01021   0.00000  -0.02966  -0.02966   2.78616
    R6        2.92739  -0.00943   0.00000  -0.03284  -0.03284   2.89454
    R7        2.92088  -0.01114   0.00000  -0.03841  -0.03841   2.88247
    R8        1.93262  -0.00120   0.00000  -0.00267  -0.00267   1.92995
    R9        1.93248   0.00015   0.00000   0.00034   0.00034   1.93281
   R10        2.70062  -0.00769   0.00000  -0.01828  -0.01828   2.68234
   R11        2.07216   0.00498   0.00000   0.01421   0.01421   2.08638
   R12        2.06926   0.00409   0.00000   0.01162   0.01162   2.08087
   R13        1.83989  -0.00662   0.00000  -0.01235  -0.01235   1.82755
   R14        2.69630  -0.01167   0.00000  -0.02751  -0.02751   2.66879
   R15        2.07167   0.00937   0.00000   0.02673   0.02673   2.09839
   R16        2.06870   0.00467   0.00000   0.01324   0.01324   2.08194
   R17        1.84705  -0.00503   0.00000  -0.00952  -0.00952   1.83753
    A1        1.95249  -0.00426   0.00000  -0.02714  -0.02720   1.92529
    A2        1.93338   0.00337   0.00000   0.02078   0.02089   1.95426
    A3        1.94339  -0.00261   0.00000  -0.01423  -0.01433   1.92906
    A4        1.87759   0.00015   0.00000  -0.00129  -0.00114   1.87645
    A5        1.87618   0.00348   0.00000   0.01877   0.01852   1.89470
    A6        1.87748   0.00010   0.00000   0.00453   0.00459   1.88207
    A7        1.89977   0.00707   0.00000   0.07392   0.07451   1.97428
    A8        1.92921  -0.00265   0.00000   0.00104   0.00117   1.93038
    A9        1.91548   0.00110   0.00000   0.01718   0.01807   1.93355
   A10        1.90052  -0.00127   0.00000  -0.01969  -0.02158   1.87894
   A11        1.90081  -0.00602   0.00000  -0.05808  -0.05933   1.84148
   A12        1.91765   0.00174   0.00000  -0.01484  -0.01603   1.90162
   A13        1.88413   0.00192   0.00000   0.01662   0.01652   1.90066
   A14        1.89739  -0.00013   0.00000   0.00446   0.00437   1.90175
   A15        1.81972   0.00063   0.00000   0.01604   0.01583   1.83554
   A16        1.93539   0.00779   0.00000   0.03833   0.03840   1.97379
   A17        1.95356  -0.00759   0.00000  -0.04168  -0.04308   1.91047
   A18        1.93278  -0.00329   0.00000  -0.03421  -0.03466   1.89812
   A19        1.87960   0.00379   0.00000   0.05759   0.05794   1.93754
   A20        1.88055  -0.00351   0.00000  -0.02350  -0.02293   1.85762
   A21        1.87910   0.00297   0.00000   0.00533   0.00405   1.88315
   A22        1.83977   0.00611   0.00000   0.03598   0.03598   1.87575
   A23        1.92987   0.00110   0.00000   0.00860   0.00848   1.93835
   A24        1.93859  -0.00583   0.00000  -0.03288  -0.03367   1.90492
   A25        1.94525  -0.00111   0.00000  -0.02396  -0.02446   1.92079
   A26        1.87319   0.00651   0.00000   0.07147   0.07169   1.94489
   A27        1.89104  -0.00170   0.00000  -0.01909  -0.01913   1.87190
   A28        1.88344   0.00139   0.00000  -0.00063  -0.00146   1.88197
   A29        1.83229   0.00145   0.00000   0.00857   0.00857   1.84086
    D1       -1.03605  -0.00151   0.00000  -0.03396  -0.03381  -1.06986
    D2        1.05054  -0.00026   0.00000  -0.01136  -0.01118   1.03936
    D3       -3.11479   0.00091   0.00000  -0.01792  -0.01857  -3.13336
    D4       -3.13081  -0.00115   0.00000  -0.02833  -0.02805   3.12433
    D5       -1.04422   0.00010   0.00000  -0.00572  -0.00542  -1.04963
    D6        1.07364   0.00128   0.00000  -0.01229  -0.01281   1.06083
    D7        1.06380  -0.00180   0.00000  -0.03849  -0.03815   1.02565
    D8       -3.13280  -0.00055   0.00000  -0.01589  -0.01552   3.13487
    D9       -1.01494   0.00062   0.00000  -0.02245  -0.02291  -1.03785
   D10        0.89661   0.00059   0.00000   0.03868   0.03931   0.93592
   D11       -1.06741  -0.00104   0.00000   0.00949   0.00999  -1.05742
   D12       -1.20775   0.00033   0.00000   0.00492   0.00553  -1.20222
   D13        3.11142  -0.00130   0.00000  -0.02428  -0.02379   3.08763
   D14        2.98449   0.00253   0.00000   0.06882   0.06776   3.05226
   D15        1.02047   0.00091   0.00000   0.03962   0.03845   1.05892
   D16       -1.07214  -0.00041   0.00000  -0.05287  -0.05281  -1.12496
   D17        3.11163  -0.00547   0.00000  -0.12438  -0.12351   2.98812
   D18        1.01465  -0.00188   0.00000  -0.07969  -0.08003   0.93461
   D19        1.01400   0.00586   0.00000   0.02620   0.02603   1.04003
   D20       -1.08542   0.00081   0.00000  -0.04530  -0.04467  -1.13009
   D21        3.10079   0.00439   0.00000  -0.00062  -0.00119   3.09960
   D22        3.09447  -0.00121   0.00000  -0.06528  -0.06557   3.02890
   D23        0.99505  -0.00626   0.00000  -0.13678  -0.13627   0.85879
   D24       -1.10193  -0.00268   0.00000  -0.09210  -0.09279  -1.19471
   D25        3.04788   0.00479   0.00000   0.05752   0.05722   3.10510
   D26        0.97012  -0.00032   0.00000  -0.01624  -0.01599   0.95413
   D27       -1.13074   0.00264   0.00000   0.02318   0.02282  -1.10792
   D28        0.96978  -0.00083   0.00000  -0.00761  -0.00728   0.96251
   D29       -1.10798  -0.00594   0.00000  -0.08137  -0.08049  -1.18846
   D30        3.07435  -0.00299   0.00000  -0.04195  -0.04168   3.03267
   D31       -1.11051   0.00333   0.00000   0.06035   0.05983  -1.05068
   D32        3.09491  -0.00178   0.00000  -0.01341  -0.01338   3.08154
   D33        0.99405   0.00118   0.00000   0.02602   0.02543   1.01949
   D34       -1.26117  -0.00135   0.00000  -0.08087  -0.08186  -1.34303
   D35        0.88168  -0.00339   0.00000  -0.07060  -0.06945   0.81224
   D36        2.90420   0.00022   0.00000  -0.04696  -0.04711   2.85710
   D37       -0.68347   0.00059   0.00000   0.00187   0.00140  -0.68208
   D38        1.43347  -0.00178   0.00000   0.01174   0.01230   1.44577
   D39       -2.82008   0.00239   0.00000   0.03868   0.03860  -2.78147
         Item               Value     Threshold  Converged?
 Maximum Force            0.011672     0.000015     NO 
 RMS     Force            0.004253     0.000010     NO 
 Maximum Displacement     0.230950     0.000060     NO 
 RMS     Displacement     0.060594     0.000040     NO 
 GradGradGradGradGradGradGradGradGradGradGradGradGradGradGradGradGradGrad

                    Distance matrix (angstroms):
                    1          2          3          4          5
     1  C    0.000000
     2  C    1.534057   0.000000
     3  N    2.510609   1.474374   0.000000
     4  C    2.520555   1.531727   2.426896   0.000000
     5  O    3.009531   2.462985   2.872382   1.419433   0.000000
     6  C    2.518068   1.525337   2.388118   2.488102   3.769061
     7  O    3.770105   2.422658   2.739681   2.887994   4.160668
     8  H    1.102465   2.177815   2.790910   2.766370   2.692520
     9  H    1.105700   2.201167   3.471935   2.797674   3.408518
    10  H    1.105056   2.182506   2.776046   3.485458   4.008491
    11  H    2.665173   2.047501   1.021286   2.683178   2.591595
    12  H    2.718303   2.049374   1.022801   3.323305   3.824674
    13  H    3.471403   2.166114   2.704980   1.104063   2.087494
    14  H    2.693218   2.154830   3.380941   1.101151   2.027732
    15  H    3.520143   2.754587   2.651177   1.942775   0.967095
    16  H    2.709409   2.161157   2.687404   3.454103   4.605417
    17  H    2.791530   2.166308   3.360117   2.713330   4.072599
    18  H    3.853465   2.400189   2.177302   2.899948   3.946120
                    6          7          8          9         10
     6  C    0.000000
     7  O    1.412260   0.000000
     8  H    3.477536   4.589159   0.000000
     9  H    2.802263   4.119762   1.780906   0.000000
    10  H    2.769563   4.067450   1.792224   1.786664   0.000000
    11  H    3.289441   3.707839   2.519645   3.693028   3.001236
    12  H    2.570527   3.031186   3.111297   3.723736   2.556464
    13  H    2.634137   2.451371   3.806380   3.763409   4.319500
    14  H    2.780944   3.353996   3.020590   2.509561   3.720826
    15  H    4.044582   4.212203   3.178674   4.123278   4.383909
    16  H    1.110423   2.091326   3.727309   3.076681   2.494239
    17  H    1.101715   2.032524   3.795038   2.623534   3.162041
    18  H    1.916444   0.972379   4.515031   4.429146   4.127689
                   11         12         13         14         15
    11  H    0.000000
    12  H    1.623515   0.000000
    13  H    3.127269   3.619862   0.000000
    14  H    3.657101   4.166826   1.782883   0.000000
    15  H    2.237728   3.631286   2.244801   2.814683   0.000000
    16  H    3.586555   2.422286   3.686176   3.759443   4.828024
    17  H    4.161847   3.609219   2.913289   2.551578   4.550276
    18  H    3.116276   2.508077   2.416408   3.642250   3.783985
                   16         17         18
    16  H    0.000000
    17  H    1.787723   0.000000
    18  H    2.453747   2.797226   0.000000
 Framework group  C1[X(C4H11NO2)]
 Deg. of freedom    48
                         Standard orientation:                         
 ---------------------------------------------------------------------
 Center     Atomic      Atomic             Coordinates (Angstroms)
 Number     Number       Type             X           Y           Z
 ---------------------------------------------------------------------
      1          6           0       -0.611227    1.716000   -0.373565
      2          6           0        0.012985    0.366448    0.003791
      3          7           0        0.080607    0.146934    1.460163
      4          6           0       -0.790670   -0.787655   -0.603146
      5          8           0       -2.110544   -0.877880   -0.088770
      6          6           0        1.453902    0.279836   -0.489070
      7          8           0        2.049617   -0.941184   -0.103439
      8          1           0       -1.649197    1.773545   -0.006498
      9          1           0       -0.636570    1.868382   -1.468421
     10          1           0       -0.034499    2.547414    0.070603
     11          1           0       -0.850611    0.278956    1.858193
     12          1           0        0.657556    0.879575    1.880267
     13          1           0       -0.242791   -1.734813   -0.455916
     14          1           0       -0.889499   -0.618833   -1.686782
     15          1           0       -2.052970   -1.277059    0.790215
     16          1           0        2.024364    1.149988   -0.101194
     17          1           0        1.479950    0.322879   -1.589635
     18          1           0        1.727485   -1.113821    0.797643
 ---------------------------------------------------------------------
 Rotational constants (GHZ):           3.3919140           2.0230515           1.7517857
   120 basis functions,   219 primitive gaussians,   127 cartesian basis functions
    29 alpha electrons       29 beta electrons
       nuclear repulsion energy       348.8948990352 Hartrees.
 NAtoms=   18 NActive=   18 NUniq=   18 SFac= 1.00D+00 NAtFMM=   60 NAOKFM=F Big=F
 Nuclear repulsion after empirical dispersion term =      348.8834132608 Hartrees.
   1 Symmetry operations used in ECPInt.
 ECPInt:  NShTT=    2080 NPrTT=    8380 LenC2=    2072 LenP2D=    6827.
 LDataN:  DoStor=T MaxTD1= 4 Len=   56
 Initial guess from the checkpoint file:  "/scratch/user/peterchao1/peterchao1/6097803_1659647584000000894362978/Gau-7177.chk"
 B after Tr=     0.000000   -0.000000    0.000000
         Rot=    0.999242   -0.037953   -0.007825    0.003658 Ang=  -4.46 deg.
 ExpMin= 1.22D-01 ExpMax= 2.27D+03 ExpMxC= 3.41D+02 IAcc=3 IRadAn=         5 AccDes= 0.00D+00
 Harris functional with IExCor= 4639 and IRadAn=       5 diagonalized for initial guess.
 HarFok:  IExCor= 4639 AccDes= 0.00D+00 IRadAn=         5 IDoV= 1 UseB2=F ITyADJ=14
 ICtDFT=  3500011 ScaDFX=  1.000000  1.000000  1.000000  1.000000
 FoFCou: FMM=F IPFlag=           0 FMFlag=      100000 FMFlg1=           0
         NFxFlg=           0 DoJE=T BraDBF=F KetDBF=T FulRan=T
         wScrn=  0.000000 ICntrl=       500 IOpCl=  0 I1Cent=   200000004 NGrid=           0
         NMat0=    1 NMatS0=      1 NMatT0=    0 NMatD0=    1 NMtDS0=    0 NMtDT0=    0
 Petite list used in FoFCou.
     Minimum is close to point  4 DX=  3.47D-02 DF= -3.53D-06 DXR=  2.81D-02 DFR=  7.91D-04 which will be used.
     Accept linear search using points  2 and  3.
     Accept linear search using points  1 and  2.
     Minimum is close to point  2 DX= -9.89D-02 DF= -4.70D-06 DXR=  9.87D-02 DFR=  1.14D-02 which will be used.
     Accept linear search using points  1 and  2.
     Accept linear search using points  1 and  2.
     Minimum is close to point  2 DX=  3.34D-04 DF= -5.97D-12 DXR=  3.34D-04 DFR=  1.11D-07 which will be used.
 SCF Done:  E(RwB97XD) =  -363.817029401     a.u. after    9 cycles
            Convg  =    0.2285D-08                    37 Fock formations.
              S**2 =  0.0000                  -V/T =  2.0087
   1 Symmetry operations used in ECPInt.
 ECPInt:  NShTT=    2080 NPrTT=    8380 LenC2=    2072 LenP2D=    6827.
 LDataN:  DoStor=T MaxTD1= 5 Len=  102
 Calling FoFJK, ICntrl=      2127 FMM=F ISym2X=0 I1Cent= 0 IOpClX= 0 NMat=1 NMatS=1 NMatT=0.

 GradGradGradGradGradGradGradGradGradGradGradGradGradGradGradGradGradGrad
 Using GEDIIS/GDIIS optimizer.
 FormGI is forming the generalized inverse of G from B-inverse, IUseBI=4.
 Internal  Forces:  Max     0.007682484 RMS     0.001627975
 Step number   2 out of a maximum of   95
 All quantities printed in internal units (Hartrees-Bohrs-Radians)
 Mixed Optimization -- RFO/linear search
 Trust test= 9.02D-01 RLast= 3.74D-01 DXMaxT set to 5.05D-01
 ITU=  1  0
 Use linear search instead of GDIIS.
     Eigenvalues ---    0.00227   0.00237   0.00297   0.00494   0.01279
     Eigenvalues ---    0.01338   0.04353   0.04468   0.04687   0.04886
     Eigenvalues ---    0.05122   0.05415   0.05556   0.05687   0.05817
     Eigenvalues ---    0.06765   0.11544   0.11617   0.13554   0.13929
     Eigenvalues ---    0.14793   0.15213   0.15745   0.16000   0.16000
     Eigenvalues ---    0.16000   0.16000   0.16000   0.16404   0.21605
     Eigenvalues ---    0.22382   0.27734   0.28805   0.30565   0.32708
     Eigenvalues ---    0.33707   0.34078   0.34097   0.34135   0.34188
     Eigenvalues ---    0.34256   0.34377   0.40515   0.41249   0.43919
     Eigenvalues ---    0.43938   0.51998   0.52569
 Quartic linear search produced a step of -0.00095.
 Iteration  1 RMS(Cart)=  0.07032750 RMS(Int)=  0.00284397
 Iteration  2 RMS(Cart)=  0.00341990 RMS(Int)=  0.00008356
 Iteration  3 RMS(Cart)=  0.00000928 RMS(Int)=  0.00008345
 Iteration  4 RMS(Cart)=  0.00000000 RMS(Int)=  0.00008345
 Variable       Old X    -DE/DX   Delta X   Delta X   Delta X     New X
                                 (Linear)    (Quad)   (Total)
    R1        2.89895  -0.00228   0.00000  -0.00801  -0.00801   2.89094
    R2        2.08336   0.00045  -0.00001   0.00308   0.00307   2.08642
    R3        2.08947  -0.00090  -0.00002   0.00011   0.00010   2.08957
    R4        2.08825   0.00025  -0.00002   0.00311   0.00309   2.09135
    R5        2.78616  -0.00049   0.00003  -0.00573  -0.00570   2.78046
    R6        2.89454   0.00294   0.00003   0.00552   0.00555   2.90010
    R7        2.88247   0.00669   0.00004   0.01759   0.01763   2.90010
    R8        1.92995   0.00046   0.00000   0.00062   0.00063   1.93058
    R9        1.93281   0.00038  -0.00000   0.00088   0.00088   1.93370
   R10        2.68234  -0.00621   0.00002  -0.01737  -0.01735   2.66499
   R11        2.08638  -0.00035  -0.00001   0.00108   0.00107   2.08745
   R12        2.08087   0.00093  -0.00001   0.00434   0.00433   2.08520
   R13        1.82755  -0.00069   0.00001  -0.00308  -0.00307   1.82448
   R14        2.66879  -0.00768   0.00003  -0.02204  -0.02202   2.64677
   R15        2.09839   0.00129  -0.00003   0.00756   0.00753   2.10593
   R16        2.08194   0.00108  -0.00001   0.00498   0.00497   2.08690
   R17        1.83753   0.00075   0.00001   0.00003   0.00004   1.83757
    A1        1.92529  -0.00056   0.00003  -0.00766  -0.00765   1.91764
    A2        1.95426  -0.00158  -0.00002  -0.00728  -0.00732   1.94695
    A3        1.92906   0.00086   0.00001   0.00422   0.00425   1.93331
    A4        1.87645   0.00088   0.00000   0.00302   0.00297   1.87942
    A5        1.89470   0.00002  -0.00002   0.00432   0.00432   1.89902
    A6        1.88207   0.00044  -0.00000   0.00389   0.00390   1.88597
    A7        1.97428  -0.00111  -0.00007  -0.00396  -0.00405   1.97023
    A8        1.93038  -0.00017  -0.00000  -0.00613  -0.00615   1.92423
    A9        1.93355  -0.00005  -0.00002   0.00236   0.00236   1.93591
   A10        1.87894   0.00025   0.00002  -0.00123  -0.00124   1.87769
   A11        1.84148   0.00090   0.00006   0.00356   0.00362   1.84510
   A12        1.90162   0.00026   0.00002   0.00614   0.00616   1.90778
   A13        1.90066   0.00239  -0.00002   0.02195   0.02171   1.92237
   A14        1.90175   0.00146  -0.00000   0.01458   0.01435   1.91611
   A15        1.83554  -0.00066  -0.00001   0.00971   0.00923   1.84478
   A16        1.97379  -0.00024  -0.00004   0.00422   0.00419   1.97798
   A17        1.91047  -0.00032   0.00004  -0.00964  -0.00961   1.90087
   A18        1.89812   0.00066   0.00003   0.00082   0.00085   1.89898
   A19        1.93754   0.00016  -0.00005   0.00716   0.00711   1.94465
   A20        1.85762  -0.00017   0.00002  -0.00332  -0.00330   1.85432
   A21        1.88315  -0.00007  -0.00000   0.00080   0.00079   1.88394
   A22        1.87575   0.00176  -0.00003   0.01582   0.01578   1.89153
   A23        1.93835   0.00365  -0.00001   0.01983   0.01971   1.95806
   A24        1.90492  -0.00124   0.00003  -0.01688  -0.01681   1.88811
   A25        1.92079   0.00030   0.00002   0.00670   0.00651   1.92730
   A26        1.94489  -0.00181  -0.00007  -0.00558  -0.00554   1.93935
   A27        1.87190  -0.00062   0.00002   0.00708   0.00684   1.87875
   A28        1.88197  -0.00036   0.00000  -0.01139  -0.01139   1.87058
   A29        1.84086  -0.00038  -0.00001  -0.00105  -0.00106   1.83980
    D1       -1.06986  -0.00007   0.00003  -0.04215  -0.04211  -1.11197
    D2        1.03936  -0.00064   0.00001  -0.05090  -0.05086   0.98850
    D3       -3.13336  -0.00046   0.00002  -0.04569  -0.04565   3.10417
    D4        3.12433   0.00024   0.00003  -0.03602  -0.03602   3.08831
    D5       -1.04963  -0.00033   0.00001  -0.04477  -0.04477  -1.09440
    D6        1.06083  -0.00015   0.00001  -0.03956  -0.03956   1.02127
    D7        1.02565   0.00015   0.00004  -0.03899  -0.03896   0.98669
    D8        3.13487  -0.00042   0.00001  -0.04774  -0.04771   3.08716
    D9       -1.03785  -0.00024   0.00002  -0.04253  -0.04251  -1.08036
   D10        0.93592   0.00103  -0.00004   0.09815   0.09824   1.03416
   D11       -1.05742  -0.00023  -0.00001   0.06730   0.06716  -0.99026
   D12       -1.20222   0.00179  -0.00001   0.10935   0.10947  -1.09275
   D13        3.08763   0.00053   0.00002   0.07850   0.07840  -3.11716
   D14        3.05226   0.00093  -0.00006   0.10113   0.10119  -3.12974
   D15        1.05892  -0.00033  -0.00004   0.07028   0.07012   1.12903
   D16       -1.12496  -0.00010   0.00005  -0.09816  -0.09812  -1.22308
   D17        2.98812   0.00011   0.00012  -0.10322  -0.10310   2.88502
   D18        0.93461  -0.00001   0.00008  -0.09917  -0.09911   0.83551
   D19        1.04003  -0.00142  -0.00002  -0.10782  -0.10784   0.93218
   D20       -1.13009  -0.00121   0.00004  -0.11287  -0.11282  -1.24291
   D21        3.09960  -0.00133   0.00000  -0.10883  -0.10883   2.99077
   D22        3.02890  -0.00010   0.00006  -0.10122  -0.10116   2.92775
   D23        0.85879   0.00010   0.00013  -0.10627  -0.10613   0.75265
   D24       -1.19471  -0.00002   0.00009  -0.10223  -0.10214  -1.29685
   D25        3.10510  -0.00139  -0.00005  -0.08354  -0.08368   3.02142
   D26        0.95413  -0.00068   0.00002  -0.07811  -0.07807   0.87606
   D27       -1.10792   0.00032  -0.00002  -0.05808  -0.05805  -1.16597
   D28        0.96251  -0.00058   0.00001  -0.08233  -0.08241   0.88010
   D29       -1.18846   0.00012   0.00008  -0.07691  -0.07680  -1.26526
   D30        3.03267   0.00112   0.00004  -0.05687  -0.05678   2.97589
   D31       -1.05068  -0.00145  -0.00006  -0.08562  -0.08575  -1.13643
   D32        3.08154  -0.00075   0.00001  -0.08019  -0.08014   3.00139
   D33        1.01949   0.00026  -0.00002  -0.06015  -0.06013   0.95936
   D34       -1.34303  -0.00070   0.00008  -0.07472  -0.07465  -1.41768
   D35        0.81224  -0.00118   0.00007  -0.07880  -0.07873   0.73351
   D36        2.85710  -0.00127   0.00004  -0.07600  -0.07595   2.78114
   D37       -0.68208   0.00085  -0.00000   0.01729   0.01736  -0.66472
   D38        1.44577   0.00056  -0.00001   0.00569   0.00569   1.45146
   D39       -2.78147  -0.00126  -0.00004  -0.00692  -0.00704  -2.78852
         Item               Value     Threshold  Converged?
 Maximum Force            0.007682     0.000015     NO 
 RMS     Force            0.001628     0.000010     NO 
 Maximum Displacement     0.258170     0.000060     NO 
 RMS     Displacement     0.069937     0.000040     NO 
 GradGradGradGradGradGradGradGradGradGradGradGradGradGradGradGradGradGrad

                    Distance matrix (angstroms):
                    1          2          3          4          5
     1  C    0.000000
     2  C    1.529819   0.000000
     3  N    2.501196   1.471356   0.000000
     4  C    2.514111   1.534666   2.425780   0.000000
     5  O    3.057543   2.461344   2.813998   1.410252   0.000000
     6  C    2.524307   1.534665   2.396532   2.503564   3.768722
     7  O    3.770271   2.437301   2.722098   2.967983   4.175872
     8  H    1.104088   2.169718   2.793936   2.728085   2.724002
     9  H    1.105752   2.192220   3.459846   2.803509   3.506458
    10  H    1.106693   2.183096   2.753846   3.484045   4.031683
    11  H    2.715032   2.060070   1.021618   2.645483   2.487406
    12  H    2.691807   2.056992   1.023268   3.329915   3.762263
    13  H    3.452606   2.162011   2.752768   1.104628   2.084913
    14  H    2.644860   2.159728   3.377388   1.103442   2.019164
    15  H    3.636392   2.797318   2.660640   1.944079   0.965471
    16  H    2.669086   2.159712   2.725347   3.459295   4.601120
    17  H    2.833869   2.181224   3.368166   2.709358   4.083580
    18  H    3.836506   2.410919   2.148921   2.995793   3.957699
                    6          7          8          9         10
     6  C    0.000000
     7  O    1.400610   0.000000
     8  H    3.482185   4.593074   0.000000
     9  H    2.782585   4.117262   1.784194   0.000000
    10  H    2.798293   4.055637   1.797652   1.790567   0.000000
    11  H    3.308850   3.679584   2.583954   3.738693   3.047529
    12  H    2.623240   3.038572   3.090060   3.696434   2.511736
    13  H    2.596319   2.514125   3.784565   3.722754   4.310561
    14  H    2.849462   3.521437   2.898539   2.478036   3.697521
    15  H    4.043923   4.186589   3.321250   4.256372   4.478557
    16  H    1.114408   2.080444   3.706065   2.983118   2.478998
    17  H    1.104342   2.029517   3.817988   2.644298   3.246861
    18  H    1.905572   0.972399   4.509964   4.415604   4.079311
                   11         12         13         14         15
    11  H    0.000000
    12  H    1.629869   0.000000
    13  H    3.136302   3.678811   0.000000
    14  H    3.605275   4.172741   1.785704   0.000000
    15  H    2.223809   3.638531   2.232332   2.805729   0.000000
    16  H    3.648789   2.512767   3.670166   3.783753   4.856034
    17  H    4.182333   3.668090   2.803500   2.619765   4.539145
    18  H    3.071065   2.481667   2.556162   3.799798   3.769792
                   16         17         18
    16  H    0.000000
    17  H    1.785595   0.000000
    18  H    2.444017   2.795142   0.000000
 Framework group  C1[X(C4H11NO2)]
 Deg. of freedom    48
                         Standard orientation:                         
 ---------------------------------------------------------------------
 Center     Atomic      Atomic             Coordinates (Angstroms)
 Number     Number       Type             X           Y           Z
 ---------------------------------------------------------------------
      1          6           0       -0.555619    1.757658   -0.294494
      2          6           0        0.013728    0.369340    0.003438
      3          7           0        0.059040    0.066220    1.442518
      4          6           0       -0.841595   -0.711546   -0.671328
      5          8           0       -2.114409   -0.864223   -0.083582
      6          6           0        1.461676    0.253076   -0.491665
      7          8           0        2.060558   -0.950045   -0.097270
      8          1           0       -1.608542    1.809829    0.033593
      9          1           0       -0.529395    1.983792   -1.376558
     10          1           0        0.021802    2.540252    0.233617
     11          1           0       -0.880108    0.113798    1.841818
     12          1           0        0.603853    0.782012    1.930267
     13          1           0       -0.280779   -1.663222   -0.672023
     14          1           0       -1.019108   -0.420845   -1.720883
     15          1           0       -2.022292   -1.416912    0.702665
     16          1           0        2.031927    1.130175   -0.107718
     17          1           0        1.496737    0.298683   -1.594508
     18          1           0        1.734295   -1.118123    0.803209
 ---------------------------------------------------------------------
 Rotational constants (GHZ):           3.3937595           2.0127708           1.7429898
   120 basis functions,   219 primitive gaussians,   127 cartesian basis functions
    29 alpha electrons       29 beta electrons
       nuclear repulsion energy       348.7155837594 Hartrees.
 NAtoms=   18 NActive=   18 NUniq=   18 SFac= 1.00D+00 NAtFMM=   60 NAOKFM=F Big=F
 Nuclear repulsion after empirical dispersion term =      348.7041642344 Hartrees.
   1 Symmetry operations used in ECPInt.
 ECPInt:  NShTT=    2080 NPrTT=    8380 LenC2=    2072 LenP2D=    6822.
 LDataN:  DoStor=T MaxTD1= 4 Len=   56
 Initial guess from the checkpoint file:  "/scratch/user/peterchao1/peterchao1/6097803_1659647584000000894362978/Gau-7177.chk"
 B after Tr=    -0.000000   -0.000000    0.000000
         Rot=    0.999688   -0.023804    0.001557    0.007411 Ang=  -2.86 deg.
 ExpMin= 1.22D-01 ExpMax= 2.27D+03 ExpMxC= 3.41D+02 IAcc=3 IRadAn=         5 AccDes= 0.00D+00
 Harris functional with IExCor= 4639 and IRadAn=       5 diagonalized for initial guess.
 HarFok:  IExCor= 4639 AccDes= 0.00D+00 IRadAn=         5 IDoV= 1 UseB2=F ITyADJ=14
 ICtDFT=  3500011 ScaDFX=  1.000000  1.000000  1.000000  1.000000
 FoFCou: FMM=F IPFlag=           0 FMFlag=      100000 FMFlg1=           0
         NFxFlg=           0 DoJE=T BraDBF=F KetDBF=T FulRan=T
         wScrn=  0.000000 ICntrl=       500 IOpCl=  0 I1Cent=   200000004 NGrid=           0
         NMat0=    1 NMatS0=      1 NMatT0=    0 NMatD0=    1 NMtDS0=    0 NMtDT0=    0
 Petite list used in FoFCou.
     Minimum is close to point  4 DX=  8.29D-02 DF= -3.11D-05 DXR=  6.46D-02 DFR=  4.19D-03 which will be used.
     Accept linear search using points  2 and  3.
     Accept linear search using points  1 and  2.
     Accept linear search using points  1 and  2.
     Accept linear search using points  1 and  2.
     Minimum is close to point  2 DX=  7.25D-05 DF= -3.98D-13 DXR=  7.25D-05 DFR=  4.51D-09 which will be used.
 SCF Done:  E(RwB97XD) =  -363.818267491     a.u. after    9 cycles
            Convg  =    0.1230D-08                    40 Fock formations.
              S**2 =  0.0000                  -V/T =  2.0087
   1 Symmetry operations used in ECPInt.
 ECPInt:  NShTT=    2080 NPrTT=    8380 LenC2=    2072 LenP2D=    6822.
 LDataN:  DoStor=T MaxTD1= 5 Len=  102
 Calling FoFJK, ICntrl=      2127 FMM=F ISym2X=0 I1Cent= 0 IOpClX= 0 NMat=1 NMatS=1 NMatT=0.

 GradGradGradGradGradGradGradGradGradGradGradGradGradGradGradGradGradGrad
 Using GEDIIS/GDIIS optimizer.
 FormGI is forming the generalized inverse of G from B-inverse, IUseBI=4.
 Internal  Forces:  Max     0.002982905 RMS     0.000757233
 Step number   3 out of a maximum of   95
 All quantities printed in internal units (Hartrees-Bohrs-Radians)
 Mixed Optimization -- En-DIIS/RFO-DIIS
 Trust test= 9.18D-01 RLast= 4.84D-01 DXMaxT set to 8.49D-01
 ITU=  1  1  0
 Use linear search instead of GDIIS.
     Eigenvalues ---    0.00208   0.00284   0.00375   0.00433   0.01092
     Eigenvalues ---    0.01384   0.04109   0.04464   0.04727   0.04884
     Eigenvalues ---    0.05108   0.05457   0.05600   0.05698   0.05842
     Eigenvalues ---    0.06795   0.11572   0.11702   0.13656   0.13999
     Eigenvalues ---    0.14898   0.15440   0.15659   0.16000   0.16000
     Eigenvalues ---    0.16000   0.16000   0.16125   0.16449   0.22005
     Eigenvalues ---    0.23870   0.27792   0.28810   0.29314   0.32586
     Eigenvalues ---    0.33926   0.34093   0.34133   0.34163   0.34185
     Eigenvalues ---    0.34259   0.34596   0.37903   0.41319   0.43918
     Eigenvalues ---    0.44082   0.51942   0.52593
 Quartic linear search produced a step of  0.15085.
 Iteration  1 RMS(Cart)=  0.06951765 RMS(Int)=  0.00237445
 Iteration  2 RMS(Cart)=  0.00282484 RMS(Int)=  0.00002408
 Iteration  3 RMS(Cart)=  0.00000613 RMS(Int)=  0.00002372
 Iteration  4 RMS(Cart)=  0.00000000 RMS(Int)=  0.00002372
 Variable       Old X    -DE/DX   Delta X   Delta X   Delta X     New X
                                 (Linear)    (Quad)   (Total)
    R1        2.89094   0.00045  -0.00121  -0.00159  -0.00280   2.88814
    R2        2.08642  -0.00035   0.00046  -0.00008   0.00039   2.08681
    R3        2.08957  -0.00067   0.00001  -0.00249  -0.00247   2.08710
    R4        2.09135  -0.00097   0.00047  -0.00215  -0.00168   2.08967
    R5        2.78046  -0.00144  -0.00086  -0.00650  -0.00737   2.77309
    R6        2.90010   0.00203   0.00084   0.01097   0.01181   2.91191
    R7        2.90010   0.00072   0.00266   0.01091   0.01357   2.91367
    R8        1.93058  -0.00067   0.00009  -0.00135  -0.00125   1.92932
    R9        1.93370  -0.00052   0.00013  -0.00094  -0.00081   1.93289
   R10        2.66499  -0.00100  -0.00262  -0.00955  -0.01216   2.65282
   R11        2.08745   0.00032   0.00016   0.00120   0.00136   2.08881
   R12        2.08520  -0.00044   0.00065   0.00018   0.00083   2.08604
   R13        1.82448   0.00050  -0.00046  -0.00000  -0.00046   1.82401
   R14        2.64677  -0.00239  -0.00332  -0.01497  -0.01829   2.62848
   R15        2.10593  -0.00038   0.00114   0.00139   0.00253   2.10845
   R16        2.08690  -0.00025   0.00075   0.00102   0.00177   2.08867
   R17        1.83757   0.00144   0.00001   0.00325   0.00325   1.84082
    A1        1.91764   0.00017  -0.00115  -0.00114  -0.00230   1.91534
    A2        1.94695  -0.00046  -0.00110  -0.00628  -0.00738   1.93957
    A3        1.93331   0.00076   0.00064   0.00664   0.00729   1.94060
    A4        1.87942   0.00026   0.00045   0.00416   0.00459   1.88401
    A5        1.89902  -0.00054   0.00065  -0.00281  -0.00215   1.89686
    A6        1.88597  -0.00023   0.00059  -0.00061  -0.00001   1.88596
    A7        1.97023  -0.00090  -0.00061  -0.00950  -0.01011   1.96012
    A8        1.92423   0.00100  -0.00093   0.00593   0.00500   1.92923
    A9        1.93591   0.00016   0.00036   0.00188   0.00225   1.93817
   A10        1.87769   0.00011  -0.00019   0.00098   0.00079   1.87849
   A11        1.84510   0.00064   0.00055   0.00573   0.00628   1.85138
   A12        1.90778  -0.00107   0.00093  -0.00519  -0.00427   1.90351
   A13        1.92237  -0.00144   0.00328  -0.00112   0.00209   1.92445
   A14        1.91611   0.00020   0.00217   0.00723   0.00932   1.92543
   A15        1.84478   0.00063   0.00139   0.00796   0.00921   1.85398
   A16        1.97798  -0.00068   0.00063  -0.00246  -0.00185   1.97613
   A17        1.90087   0.00025  -0.00145  -0.00435  -0.00581   1.89505
   A18        1.89898   0.00006   0.00013   0.00353   0.00365   1.90263
   A19        1.94465  -0.00014   0.00107  -0.00337  -0.00232   1.94233
   A20        1.85432   0.00068  -0.00050   0.00761   0.00710   1.86142
   A21        1.88394  -0.00014   0.00012  -0.00037  -0.00025   1.88369
   A22        1.89153  -0.00000   0.00238   0.00581   0.00819   1.89972
   A23        1.95806  -0.00298   0.00297  -0.00707  -0.00411   1.95395
   A24        1.88811   0.00063  -0.00254  -0.00232  -0.00485   1.88327
   A25        1.92730   0.00055   0.00098   0.00285   0.00380   1.93110
   A26        1.93935   0.00143  -0.00084   0.00760   0.00677   1.94611
   A27        1.87875   0.00095   0.00103   0.00509   0.00608   1.88482
   A28        1.87058  -0.00046  -0.00172  -0.00604  -0.00777   1.86281
   A29        1.83980  -0.00013  -0.00016  -0.00147  -0.00163   1.83817
    D1       -1.11197  -0.00004  -0.00635  -0.04632  -0.05266  -1.16463
    D2        0.98850   0.00020  -0.00767  -0.04729  -0.05496   0.93354
    D3        3.10417  -0.00037  -0.00689  -0.04860  -0.05548   3.04869
    D4        3.08831  -0.00018  -0.00543  -0.04678  -0.05222   3.03609
    D5       -1.09440   0.00006  -0.00675  -0.04775  -0.05452  -1.14892
    D6        1.02127  -0.00051  -0.00597  -0.04906  -0.05503   0.96624
    D7        0.98669  -0.00011  -0.00588  -0.04631  -0.05218   0.93451
    D8        3.08716   0.00013  -0.00720  -0.04728  -0.05448   3.03267
    D9       -1.08036  -0.00044  -0.00641  -0.04859  -0.05500  -1.13535
   D10        1.03416   0.00063   0.01482   0.10331   0.11818   1.15234
   D11       -0.99026   0.00059   0.01013   0.09009   0.10019  -0.89006
   D12       -1.09275  -0.00012   0.01651   0.10121   0.11776  -0.97499
   D13       -3.11716  -0.00017   0.01183   0.08799   0.09977  -3.01739
   D14       -3.12974   0.00073   0.01526   0.10388   0.11917  -3.01056
   D15        1.12903   0.00069   0.01058   0.09065   0.10118   1.23022
   D16       -1.22308  -0.00022  -0.01480  -0.05531  -0.07011  -1.29319
   D17        2.88502   0.00025  -0.01555  -0.04585  -0.06141   2.82360
   D18        0.83551   0.00025  -0.01495  -0.04495  -0.05990   0.77561
   D19        0.93218  -0.00064  -0.01627  -0.06270  -0.07897   0.85321
   D20       -1.24291  -0.00017  -0.01702  -0.05324  -0.07027  -1.31318
   D21        2.99077  -0.00017  -0.01642  -0.05234  -0.06876   2.92201
   D22        2.92775  -0.00037  -0.01526  -0.05808  -0.07334   2.85441
   D23        0.75265   0.00011  -0.01601  -0.04863  -0.06464   0.68801
   D24       -1.29685   0.00010  -0.01541  -0.04772  -0.06313  -1.35998
   D25        3.02142   0.00015  -0.01262   0.08565   0.07302   3.09444
   D26        0.87606  -0.00014  -0.01178   0.08230   0.07053   0.94660
   D27       -1.16597  -0.00026  -0.00876   0.08935   0.08060  -1.08537
   D28        0.88010   0.00075  -0.01243   0.09248   0.08004   0.96014
   D29       -1.26526   0.00046  -0.01158   0.08914   0.07755  -1.18771
   D30        2.97589   0.00034  -0.00857   0.09618   0.08762   3.06351
   D31       -1.13643   0.00079  -0.01294   0.09084   0.07789  -1.05854
   D32        3.00139   0.00050  -0.01209   0.08749   0.07541   3.07680
   D33        0.95936   0.00038  -0.00907   0.09454   0.08547   1.04483
   D34       -1.41768  -0.00067  -0.01126  -0.08382  -0.09508  -1.51276
   D35        0.73351  -0.00096  -0.01188  -0.09403  -0.10590   0.62761
   D36        2.78114  -0.00080  -0.01146  -0.09176  -0.10322   2.67792
   D37       -0.66472   0.00060   0.00262   0.05592   0.05856  -0.60615
   D38        1.45146   0.00034   0.00086   0.05340   0.05425   1.50571
   D39       -2.78852   0.00114  -0.00106   0.05336   0.05229  -2.73623
         Item               Value     Threshold  Converged?
 Maximum Force            0.002983     0.000015     NO 
 RMS     Force            0.000757     0.000010     NO 
 Maximum Displacement     0.255143     0.000060     NO 
 RMS     Displacement     0.068867     0.000040     NO 
 GradGradGradGradGradGradGradGradGradGradGradGradGradGradGradGradGradGrad

                    Distance matrix (angstroms):
                    1          2          3          4          5
     1  C    0.000000
     2  C    1.528337   0.000000
     3  N    2.488331   1.467458   0.000000
     4  C    2.522412   1.540916   2.428483   0.000000
     5  O    3.101744   2.459898   2.773714   1.403814   0.000000
     6  C    2.530972   1.541847   2.404957   2.510706   3.760832
     7  O    3.767099   2.432181   2.767396   2.919489   4.098215
     8  H    1.104292   2.166883   2.802112   2.709352   2.762112
     9  H    1.104444   2.184610   3.442922   2.830597   3.598847
    10  H    1.105803   2.186390   2.723592   3.492434   4.047800
    11  H    2.753457   2.057556   1.020954   2.594037   2.384861
    12  H    2.642976   2.059625   1.022840   3.333646   3.703553
    13  H    3.449064   2.163686   2.787657   1.105349   2.078262
    14  H    2.634774   2.168239   3.375372   1.103882   2.019249
    15  H    3.742407   2.843767   2.703374   1.943645   0.965226
    16  H    2.704584   2.163298   2.691831   3.469519   4.594194
    17  H    2.807169   2.191019   3.381095   2.758004   4.126630
    18  H    3.833327   2.380900   2.195078   2.873790   3.791897
                    6          7          8          9         10
     6  C    0.000000
     7  O    1.390932   0.000000
     8  H    3.486674   4.586593   0.000000
     9  H    2.756492   4.070200   1.786290   0.000000
    10  H    2.835723   4.099263   1.795708   1.788783   0.000000
    11  H    3.313533   3.677874   2.647996   3.771793   3.081680
    12  H    2.688188   3.187167   3.048720   3.645671   2.439900
    13  H    2.570291   2.428712   3.772626   3.713049   4.313709
    14  H    2.890700   3.501220   2.823939   2.501671   3.702647
    15  H    4.044873   4.103315   3.454524   4.376055   4.564416
    16  H    1.115746   2.077823   3.743760   2.994783   2.550061
    17  H    1.105278   2.026350   3.786131   2.577937   3.242048
    18  H    1.897246   0.974121   4.501199   4.370619   4.137310
                   11         12         13         14         15
    11  H    0.000000
    12  H    1.634663   0.000000
    13  H    3.107526   3.730326   0.000000
    14  H    3.548369   4.169760   1.786483   0.000000
    15  H    2.221910   3.671495   2.203045   2.794611   0.000000
    16  H    3.649685   2.534328   3.640244   3.841888   4.860015
    17  H    4.189643   3.707258   2.823617   2.708668   4.577332
    18  H    3.047757   2.677080   2.393230   3.707955   3.603193
                   16         17         18
    16  H    0.000000
    17  H    1.782293   0.000000
    18  H    2.462894   2.786014   0.000000
 Framework group  C1[X(C4H11NO2)]
 Deg. of freedom    48
                         Standard orientation:                         
 ---------------------------------------------------------------------
 Center     Atomic      Atomic             Coordinates (Angstroms)
 Number     Number       Type             X           Y           Z
 ---------------------------------------------------------------------
      1          6           0       -0.511698    1.779246   -0.340899
      2          6           0        0.021077    0.388683    0.003046
      3          7           0       -0.000435    0.125293    1.446513
      4          6           0       -0.826921   -0.699944   -0.682674
      5          8           0       -2.083127   -0.882529   -0.083253
      6          6           0        1.490601    0.234150   -0.437309
      7          8           0        2.013282   -1.004104   -0.079228
      8          1           0       -1.588948    1.834933   -0.104484
      9          1           0       -0.387524    1.998407   -1.416234
     10          1           0        0.017657    2.563046    0.232024
     11          1           0       -0.962972    0.088443    1.784909
     12          1           0        0.451796    0.889707    1.953817
     13          1           0       -0.247823   -1.641365   -0.695625
     14          1           0       -1.015840   -0.402805   -1.728893
     15          1           0       -1.993959   -1.513663    0.641578
     16          1           0        2.074023    1.070686    0.015146
     17          1           0        1.581920    0.339122   -1.533795
     18          1           0        1.595117   -1.223309    0.772828
 ---------------------------------------------------------------------
 Rotational constants (GHZ):           3.3115614           2.0591054           1.7520029
   120 basis functions,   219 primitive gaussians,   127 cartesian basis functions
    29 alpha electrons       29 beta electrons
       nuclear repulsion energy       349.0298976850 Hartrees.
 NAtoms=   18 NActive=   18 NUniq=   18 SFac= 1.00D+00 NAtFMM=   60 NAOKFM=F Big=F
 Nuclear repulsion after empirical dispersion term =      349.0185530201 Hartrees.
   1 Symmetry operations used in ECPInt.
 ECPInt:  NShTT=    2080 NPrTT=    8380 LenC2=    2072 LenP2D=    6825.
 LDataN:  DoStor=T MaxTD1= 4 Len=   56
 Initial guess from the checkpoint file:  "/scratch/user/peterchao1/peterchao1/6097803_1659647584000000894362978/Gau-7177.chk"
 B after Tr=    -0.000000    0.000000   -0.000000
         Rot=    0.999898    0.005352    0.012127    0.005373 Ang=   1.64 deg.
 ExpMin= 1.22D-01 ExpMax= 2.27D+03 ExpMxC= 3.41D+02 IAcc=3 IRadAn=         5 AccDes= 0.00D+00
 Harris functional with IExCor= 4639 and IRadAn=       5 diagonalized for initial guess.
 HarFok:  IExCor= 4639 AccDes= 0.00D+00 IRadAn=         5 IDoV= 1 UseB2=F ITyADJ=14
 ICtDFT=  3500011 ScaDFX=  1.000000  1.000000  1.000000  1.000000
 FoFCou: FMM=F IPFlag=           0 FMFlag=      100000 FMFlg1=           0
         NFxFlg=           0 DoJE=T BraDBF=F KetDBF=T FulRan=T
         wScrn=  0.000000 ICntrl=       500 IOpCl=  0 I1Cent=   200000004 NGrid=           0
         NMat0=    1 NMatS0=      1 NMatT0=    0 NMatD0=    1 NMtDS0=    0 NMtDT0=    0
 Petite list used in FoFCou.
     Minimum is close to point  4 DX=  1.08D-01 DF= -4.90D-05 DXR=  8.25D-02 DFR=  6.85D-03 which will be used.
     Accept linear search using points  2 and  3.
     Accept linear search using points  1 and  2.
     Accept linear search using points  1 and  2.
     Minimum is close to point  2 DX=  6.12D-02 DF= -6.09D-07 DXR=  6.37D-02 DFR=  4.08D-03 which will be used.
     Minimum is close to point  2 DX=  4.82D-02 DF= -2.04D-07 DXR=  5.08D-02 DFR=  2.59D-03 which will be used.
     Minimum is close to point  2 DX=  2.29D-04 DF= -5.29D-12 DXR=  2.29D-04 DFR=  5.23D-08 which will be used.
 SCF Done:  E(RwB97XD) =  -363.818127201     a.u. after    9 cycles
            Convg  =    0.1428D-08                    39 Fock formations.
              S**2 =  0.0000                  -V/T =  2.0087
   1 Symmetry operations used in ECPInt.
 ECPInt:  NShTT=    2080 NPrTT=    8380 LenC2=    2072 LenP2D=    6825.
 LDataN:  DoStor=T MaxTD1= 5 Len=  102
 Calling FoFJK, ICntrl=      2127 FMM=F ISym2X=0 I1Cent= 0 IOpClX= 0 NMat=1 NMatS=1 NMatT=0.

 GradGradGradGradGradGradGradGradGradGradGradGradGradGradGradGradGradGrad
 Using GEDIIS/GDIIS optimizer.
 FormGI is forming the generalized inverse of G from B-inverse, IUseBI=4.
 Internal  Forces:  Max     0.003874338 RMS     0.001159577
 Step number   4 out of a maximum of   95
 All quantities printed in internal units (Hartrees-Bohrs-Radians)
 Mixed Optimization -- RFO/linear search
 Trust test=-1.95D-01 RLast= 4.88D-01 DXMaxT set to 4.24D-01
 ITU= -1  1  1  0
 Use linear search instead of GDIIS.
     Eigenvalues ---    0.00268   0.00286   0.00371   0.00716   0.00954
     Eigenvalues ---    0.01913   0.04009   0.04452   0.04765   0.04967
     Eigenvalues ---    0.05333   0.05458   0.05619   0.05727   0.05847
     Eigenvalues ---    0.06788   0.11563   0.11643   0.13845   0.14034
     Eigenvalues ---    0.15154   0.15598   0.15714   0.15903   0.16000
     Eigenvalues ---    0.16000   0.16001   0.16175   0.16980   0.21773
     Eigenvalues ---    0.22691   0.27488   0.28779   0.29955   0.32525
     Eigenvalues ---    0.33776   0.34081   0.34115   0.34142   0.34186
     Eigenvalues ---    0.34257   0.34434   0.39366   0.41335   0.43937
     Eigenvalues ---    0.44090   0.51750   0.52576
 Quartic linear search produced a step of -0.55243.
 Iteration  1 RMS(Cart)=  0.05217254 RMS(Int)=  0.00156750
 Iteration  2 RMS(Cart)=  0.00203023 RMS(Int)=  0.00001338
 Iteration  3 RMS(Cart)=  0.00000216 RMS(Int)=  0.00001326
 Iteration  4 RMS(Cart)=  0.00000000 RMS(Int)=  0.00001326
 Variable       Old X    -DE/DX   Delta X   Delta X   Delta X     New X
                                 (Linear)    (Quad)   (Total)
    R1        2.88814   0.00159   0.00155   0.00257   0.00411   2.89225
    R2        2.08681  -0.00025  -0.00021  -0.00071  -0.00092   2.08589
    R3        2.08710   0.00036   0.00137  -0.00161  -0.00024   2.08685
    R4        2.08967  -0.00053   0.00093  -0.00320  -0.00227   2.08740
    R5        2.77309  -0.00119   0.00407  -0.00841  -0.00434   2.76875
    R6        2.91191   0.00047  -0.00652   0.01018   0.00365   2.91556
    R7        2.91367  -0.00285  -0.00750   0.00168  -0.00582   2.90785
    R8        1.92932  -0.00049   0.00069  -0.00223  -0.00154   1.92779
    R9        1.93289  -0.00135   0.00045  -0.00259  -0.00214   1.93074
   R10        2.65282   0.00387   0.00672  -0.00274   0.00398   2.65681
   R11        2.08881  -0.00050  -0.00075   0.00096   0.00021   2.08901
   R12        2.08604  -0.00060  -0.00046  -0.00122  -0.00168   2.08436
   R13        1.82401   0.00013   0.00026   0.00042   0.00067   1.82468
   R14        2.62848   0.00376   0.01010  -0.00804   0.00206   2.63054
   R15        2.10845  -0.00102  -0.00140  -0.00065  -0.00205   2.10640
   R16        2.08867  -0.00045  -0.00098  -0.00020  -0.00118   2.08750
   R17        1.84082   0.00080  -0.00180   0.00388   0.00208   1.84290
    A1        1.91534   0.00047   0.00127   0.00104   0.00230   1.91764
    A2        1.93957   0.00102   0.00408  -0.00095   0.00312   1.94268
    A3        1.94060  -0.00040  -0.00403   0.00395  -0.00008   1.94053
    A4        1.88401  -0.00042  -0.00254   0.00400   0.00146   1.88547
    A5        1.89686  -0.00032   0.00119  -0.00544  -0.00425   1.89262
    A6        1.88596  -0.00039   0.00000  -0.00276  -0.00276   1.88320
    A7        1.96012   0.00218   0.00559   0.00262   0.00821   1.96833
    A8        1.92923  -0.00085  -0.00276   0.00660   0.00384   1.93306
    A9        1.93817  -0.00046  -0.00125   0.00151   0.00027   1.93844
   A10        1.87849  -0.00084  -0.00044  -0.00293  -0.00342   1.87507
   A11        1.85138  -0.00122  -0.00347  -0.00154  -0.00504   1.84634
   A12        1.90351   0.00119   0.00236  -0.00703  -0.00468   1.89882
   A13        1.92445  -0.00259  -0.00115  -0.01296  -0.01411   1.91035
   A14        1.92543   0.00020  -0.00515   0.00521   0.00007   1.92550
   A15        1.85398   0.00125  -0.00509   0.01075   0.00569   1.85968
   A16        1.97613  -0.00035   0.00102  -0.00254  -0.00151   1.97462
   A17        1.89505   0.00096   0.00321  -0.00034   0.00288   1.89793
   A18        1.90263  -0.00087  -0.00202  -0.00170  -0.00371   1.89892
   A19        1.94233  -0.00001   0.00128  -0.00157  -0.00027   1.94206
   A20        1.86142   0.00056  -0.00392   0.00890   0.00498   1.86641
   A21        1.88369  -0.00034   0.00014  -0.00271  -0.00258   1.88111
   A22        1.89972  -0.00018  -0.00453   0.00330  -0.00123   1.89849
   A23        1.95395  -0.00180   0.00227  -0.01639  -0.01413   1.93982
   A24        1.88327   0.00131   0.00268   0.00190   0.00458   1.88785
   A25        1.93110  -0.00134  -0.00210  -0.00263  -0.00472   1.92637
   A26        1.94611  -0.00072  -0.00374   0.00698   0.00324   1.94935
   A27        1.88482   0.00243  -0.00336   0.01255   0.00914   1.89397
   A28        1.86281   0.00016   0.00429  -0.00184   0.00244   1.86525
   A29        1.83817  -0.00086   0.00090  -0.00338  -0.00248   1.83569
    D1       -1.16463   0.00031   0.02909  -0.02641   0.00267  -1.16196
    D2        0.93354   0.00011   0.03036  -0.02380   0.00657   0.94011
    D3        3.04869   0.00073   0.03065  -0.02721   0.00343   3.05212
    D4        3.03609  -0.00011   0.02885  -0.03146  -0.00262   3.03348
    D5       -1.14892  -0.00031   0.03012  -0.02885   0.00128  -1.14764
    D6        0.96624   0.00031   0.03040  -0.03226  -0.00186   0.96437
    D7        0.93451  -0.00004   0.02883  -0.02999  -0.00117   0.93333
    D8        3.03267  -0.00024   0.03010  -0.02738   0.00273   3.03540
    D9       -1.13535   0.00038   0.03038  -0.03079  -0.00042  -1.13577
   D10        1.15234  -0.00034  -0.06529   0.06900   0.00370   1.15604
   D11       -0.89006  -0.00042  -0.05535   0.06051   0.00517  -0.88490
   D12       -0.97499  -0.00007  -0.06505   0.06109  -0.00396  -0.97895
   D13       -3.01739  -0.00015  -0.05512   0.05260  -0.00249  -3.01988
   D14       -3.01056  -0.00042  -0.06583   0.07139   0.00554  -3.00502
   D15        1.23022  -0.00051  -0.05590   0.06290   0.00701   1.23723
   D16       -1.29319  -0.00025   0.03873  -0.01117   0.02756  -1.26563
   D17        2.82360  -0.00072   0.03393  -0.00712   0.02682   2.85042
   D18        0.77561  -0.00036   0.03309  -0.00274   0.03036   0.80596
   D19        0.85321   0.00136   0.04362  -0.00574   0.03787   0.89108
   D20       -1.31318   0.00090   0.03882  -0.00169   0.03713  -1.27605
   D21        2.92201   0.00126   0.03798   0.00269   0.04067   2.96268
   D22        2.85441   0.00009   0.04051  -0.01267   0.02785   2.88226
   D23        0.68801  -0.00037   0.03571  -0.00861   0.02711   0.71512
   D24       -1.35998  -0.00002   0.03487  -0.00423   0.03065  -1.32933
   D25        3.09444  -0.00108  -0.04034  -0.05269  -0.09306   3.00139
   D26        0.94660   0.00010  -0.03897  -0.05216  -0.09113   0.85547
   D27       -1.08537  -0.00012  -0.04453  -0.04961  -0.09412  -1.17949
   D28        0.96014  -0.00269  -0.04421  -0.05579  -0.10002   0.86012
   D29       -1.18771  -0.00152  -0.04284  -0.05526  -0.09809  -1.28580
   D30        3.06351  -0.00173  -0.04840  -0.05270  -0.10108   2.96243
   D31       -1.05854  -0.00165  -0.04303  -0.04816  -0.09121  -1.14976
   D32        3.07680  -0.00048  -0.04166  -0.04763  -0.08929   2.98751
   D33        1.04483  -0.00069  -0.04722  -0.04508  -0.09228   0.95255
   D34       -1.51276  -0.00120   0.05252  -0.09903  -0.04651  -1.55927
   D35        0.62761  -0.00020   0.05850  -0.10255  -0.04405   0.58356
   D36        2.67792  -0.00029   0.05702  -0.10137  -0.04434   2.63358
   D37       -0.60615  -0.00171  -0.03235   0.01655  -0.01582  -0.62198
   D38        1.50571  -0.00181  -0.02997   0.01242  -0.01756   1.48815
   D39       -2.73623  -0.00055  -0.02889   0.02174  -0.00710  -2.74333
         Item               Value     Threshold  Converged?
 Maximum Force            0.003874     0.000015     NO 
 RMS     Force            0.001160     0.000010     NO 
 Maximum Displacement     0.212379     0.000060     NO 
 RMS     Displacement     0.052258     0.000040     NO 
 GradGradGradGradGradGradGradGradGradGradGradGradGradGradGradGradGradGrad

                    Distance matrix (angstroms):
                    1          2          3          4          5
     1  C    0.000000
     2  C    1.530514   0.000000
     3  N    2.495091   1.465162   0.000000
     4  C    2.529143   1.542848   2.425200   0.000000
     5  O    3.092785   2.462046   2.788545   1.405923   0.000000
     6  C    2.530459   1.538769   2.396103   2.505580   3.761333
     7  O    3.756440   2.418842   2.690054   2.951274   4.127099
     8  H    1.103806   2.170119   2.811248   2.721675   2.753547
     9  H    1.104316   2.188679   3.448483   2.839754   3.585984
    10  H    1.104603   2.187343   2.732055   3.497170   4.041801
    11  H    2.751455   2.045246   1.020141   2.579187   2.387435
    12  H    2.648967   2.056796   1.021705   3.330631   3.713000
    13  H    3.459815   2.167606   2.767926   1.105458   2.079987
    14  H    2.650690   2.166520   3.373372   1.102994   2.024040
    15  H    3.753240   2.866152   2.744209   1.944953   0.965581
    16  H    2.667080   2.163276   2.736909   3.463023   4.600859
    17  H    2.846386   2.184397   3.365262   2.703830   4.079481
    18  H    3.796306   2.366526   2.091190   2.947924   3.864213
                    6          7          8          9         10
     6  C    0.000000
     7  O    1.392024   0.000000
     8  H    3.486332   4.576563   0.000000
     9  H    2.758798   4.089666   1.786742   0.000000
    10  H    2.835518   4.062635   1.791599   1.785916   0.000000
    11  H    3.299123   3.608406   2.649369   3.768168   3.085140
    12  H    2.682002   3.088801   3.053914   3.651034   2.449938
    13  H    2.577899   2.487441   3.783085   3.734612   4.321006
    14  H    2.866421   3.533594   2.857768   2.518244   3.713594
    15  H    4.067643   4.140478   3.460019   4.379726   4.582644
    16  H    1.114660   2.080168   3.715784   2.929119   2.518079
    17  H    1.104656   2.033387   3.812924   2.630388   3.302793
    18  H    1.897264   0.975221   4.469332   4.367245   4.054582
                   11         12         13         14         15
    11  H    0.000000
    12  H    1.636587   0.000000
    13  H    3.073261   3.713957   0.000000
    14  H    3.543798   4.168780   1.784175   0.000000
    15  H    2.247971   3.708696   2.193182   2.790751   0.000000
    16  H    3.682534   2.589471   3.657822   3.793336   4.911682
    17  H    4.163398   3.717911   2.764055   2.635104   4.539619
    18  H    2.965272   2.519757   2.519255   3.777022   3.697143
                   16         17         18
    16  H    0.000000
    17  H    1.782536   0.000000
    18  H    2.457311   2.791619   0.000000
 Framework group  C1[X(C4H11NO2)]
 Deg. of freedom    48
                         Standard orientation:                         
 ---------------------------------------------------------------------
 Center     Atomic      Atomic             Coordinates (Angstroms)
 Number     Number       Type             X           Y           Z
 ---------------------------------------------------------------------
      1          6           0       -0.504834    1.790348   -0.273424
      2          6           0        0.023932    0.381100    0.003886
      3          7           0        0.054872    0.057809    1.432601
      4          6           0       -0.855203   -0.679344   -0.691067
      5          8           0       -2.108535   -0.846824   -0.076470
      6          6           0        1.472430    0.226394   -0.491826
      7          8           0        2.016145   -0.987984   -0.082693
      8          1           0       -1.571142    1.852546    0.004975
      9          1           0       -0.415225    2.049269   -1.343210
     10          1           0        0.052489    2.547166    0.306892
[...]
 7,0.0242631,0.0013285,0.2935918,-0.9888828,-0.0707183,-0.0478255,-0.15
 94051,-0.6336788,0.037545,-0.0401355,0.0292639,-0.4412169,0.0313672,-0
 .0391527,0.0107422,-0.0784407,-0.018068,0.0636505,0.036752,0.0676713,0
 .0403524,0.0109158,-0.0007844,-0.0395985,0.0099904,0.0765116,0.0053377
 ,-0.0965288,0.0064829,-0.1171724,0.0074138,0.0291462,0.0111513,0.07928
 04,-0.072243,-0.0917543,0.0413824,-0.0947169,0.0159396,0.2346839,-0.08
 36018,0.0863069,-0.0155918,0.1609555,0.0563413,0.0126863,0.0381516,0.1
 732525,0.1785657,0.1252428,0.1136471,0.0900433,0.1397451,-0.0147552,0.
 0241643,-0.0215519,0.1242473,-0.1424081,0.000222,0.0384804,0.0125642,0
 .019991,0.0208592,-0.0137328,0.0442915,0.0250974,0.0070342,-0.0276783,
 -0.1019517,-0.0087974,-0.0275648,0.0040815,-0.0540459,0.0211635,-0.173
 4372,0.2734827,0.064301,0.0698151,0.0293485,0.2772673,-0.0194037,0.085
 0941,-0.0615301,0.2602911,-0.1013933,0.0961894,0.0224201,0.0986191,-0.
 1671211,-0.0397505,0.067926,-0.0911817,-0.0119612,0.0012816,-0.0106617
 ,-0.0282448,-0.0062666,0.0448605,-0.0415951,-0.0531324,0.0116377,-0.14
 99846,0.3682405,0.0845893,0.0027072,0.1130097,0.3840935,-0.0400206,-0.
 0383163,-0.0380576,0.2949431\Polar=54.9300578,-1.2833668,57.6344399,-0
 .2296172,-0.3835548,54.3434591\Quadrupole=-3.2265268,1.6079456,1.61858
 12,-5.0961285,0.9557019,3.0008529\PG=C01 [X(C4H11N1O2)]\NImag=0\\0.484
 17400,0.00354384,0.59485648,-0.00464869,-0.00218807,0.59194301,-0.1947
 6048,0.00142988,0.01035449,0.54209515,-0.00045895,-0.08586391,0.001646
 35,-0.01417924,0.54701742,0.00376217,0.00148514,-0.08108857,-0.0040025
 0,0.00252641,0.52826463,-0.01729788,0.00054233,-0.04467691,-0.09617243
 ,0.01088329,-0.02626817,0.26417442,-0.00057198,0.00184207,-0.00152058,
 0.01315488,-0.10491574,0.00433389,-0.13222917,0.67399666,-0.01014774,-
 0.00089293,-0.01527255,-0.07214908,-0.01310289,-0.19167536,-0.05822308
 ,-0.00696349,0.57913387,-0.01758487,0.03155004,0.01653120,-0.10217356,
 0.03191359,0.02443883,0.00381746,-0.01108903,-0.00742755,0.61536770,0.
 00724359,-0.00097581,-0.00063731,0.04013194,-0.14257198,-0.05691975,-0
 .00016037,-0.00514557,-0.00863788,0.00666513,0.50379862,0.00417307,-0.
 00305738,-0.00003341,0.02010885,-0.03515010,-0.10298062,0.01061988,-0.
 03449778,-0.03144465,0.02320135,0.00460631,0.58604035,-0.00048949,-0.0
 0037096,-0.00014906,0.00535903,0.01119803,-0.00976652,0.00270201,-0.00
 066698,-0.00070233,-0.09786671,-0.01454814,0.03733513,0.22128436,-0.00
 074334,0.00056540,0.00004965,-0.01084389,-0.04206761,0.02273111,-0.000
 08188,-0.00151034,0.00069264,-0.04728821,-0.18842466,0.09183821,-0.148
 50716,0.59658021,0.00057055,0.00066419,0.00071475,-0.00453496,-0.00660
 085,0.00649470,-0.00038670,-0.00256143,-0.00029978,0.04819444,0.060706
 66,-0.14473724,-0.15651597,0.00663776,0.24129240,-0.01976747,-0.027326
 34,0.01484378,-0.08089855,-0.02318137,0.02164566,-0.00338943,0.0061423
 1,-0.00107520,0.00954200,0.00283775,-0.00887138,-0.00351276,0.00504639
 ,0.00078211,0.53588641,-0.00367269,0.00222933,-0.00283375,-0.01729850,
 -0.15084167,0.03871806,-0.00059327,-0.00187664,0.00782009,-0.00973725,
 -0.03164740,0.01513103,0.00307480,-0.00370566,-0.00325168,-0.04863430,
 0.52408768,0.00343101,-0.00124203,0.00313238,0.01175582,0.02663520,-0.
 09715850,-0.00000141,0.03450686,-0.03556630,-0.00718456,-0.00438552,0.
 00956197,0.00181155,-0.00511220,-0.00114969,0.03776661,0.03322016,0.63
 703752,0.00067060,-0.00619845,0.00443231,-0.03949562,-0.01004671,-0.00
 110611,0.00250568,0.00035578,-0.00258480,-0.00344817,0.00324206,0.0010
 2477,0.00217447,-0.00128841,0.00028275,-0.27037307,-0.01842954,-0.0002
 3043,0.41734862,-0.00113514,-0.00490238,0.00341827,-0.03245204,-0.0006
 1198,-0.00190395,-0.00480111,0.00167025,0.00476423,0.00251620,0.000281
 76,-0.00207006,-0.00239474,-0.00135023,0.00118240,0.00129536,-0.076312
 46,0.01071057,0.01319681,0.12300451,0.00150107,0.00251748,-0.00000289,
 0.01048891,-0.00077093,-0.00152212,0.00962148,0.00936058,-0.00660174,0
 .00032169,0.00050695,0.00033737,-0.00024557,-0.00051657,0.00115018,-0.
 04270436,0.00240597,-0.10232519,0.07264717,-0.15026124,0.49031127,-0.0
 8116597,-0.07946094,0.04170572,-0.01220454,-0.02972488,0.01676872,0.00
 329184,0.00129549,0.00047412,0.00051987,-0.00209977,0.00078508,0.00038
 154,0.00061364,-0.00045363,-0.00518653,0.00338103,-0.00202263,-0.00242
 813,-0.00186950,0.00058174,0.08856750,-0.08174690,-0.23527469,0.099555
 22,0.00100959,0.00216248,-0.00046465,0.00028113,0.00064062,-0.00093955
 ,-0.00009975,-0.00012071,-0.00045479,0.00099636,-0.00059427,-0.0003274
 3,0.00039981,0.00023231,-0.00022661,0.00008238,0.00034779,0.00002245,0
 .08794818,0.24737324,0.04323265,0.09866877,-0.10262132,-0.00054252,-0.
 00102870,-0.00113016,0.00058622,-0.00088513,0.00080421,0.00075335,0.00
 131679,-0.00039264,-0.00083235,-0.00020596,0.00015051,-0.00002862,-0.0
 0060354,0.00028661,-0.00006167,0.00021897,0.00036970,-0.04654628,-0.10
 725254,0.10365380,-0.07989106,0.00313089,-0.08238016,-0.00498465,0.001
 36450,-0.03116018,-0.00958083,-0.00038648,-0.00255623,0.00108140,-0.00
 041095,-0.00156742,0.00004435,-0.00016244,0.00049652,0.00025709,-0.000
 04939,-0.00094974,0.00088389,0.00006687,0.00093673,0.00404593,0.001045
 18,0.01170352,0.08449294,0.00295641,-0.04962461,0.00887746,0.00005848,
 -0.00192642,0.00002174,0.00047676,0.00152528,-0.00016337,0.00046351,0.
 00007266,0.00103938,-0.00008521,-0.00028701,-0.00042734,-0.00053647,0.
 00008602,-0.00023802,0.00047005,-0.00019184,0.00014479,0.01048383,0.00
 189578,0.02398117,-0.00373555,0.04569877,-0.08493410,0.00880982,-0.283
 74571,0.00150510,-0.00039548,-0.00025093,-0.00146614,-0.00015043,0.001
 08090,0.00033182,-0.00024163,-0.00004594,-0.00000440,0.00018725,0.0002
 4985,0.00031079,0.00037718,-0.00026784,-0.00028102,-0.00028530,0.00048
 970,-0.00428603,-0.00182442,-0.00997192,0.09275264,-0.00922364,0.30221
 204,-0.07771901,0.07124780,0.04255510,-0.01142342,0.02765038,0.0171108
 3,0.00257004,-0.00031372,0.00177826,-0.00703902,-0.00220142,-0.0004832
 1,0.00076537,0.00004313,-0.00033302,0.00052252,0.00224092,-0.00015182,
 0.00060470,-0.00060774,-0.00039097,0.00381963,-0.00896394,-0.00745647,
 0.00364215,-0.01023986,-0.00469746,0.08534127,0.07235606,-0.22060256,-
 0.10463033,-0.00102033,-0.00051404,-0.00046155,-0.00029370,0.00079144,
 0.00099177,0.00017340,0.00034396,0.00060274,0.00052783,0.00011598,-0.0
 0004634,-0.00094254,0.00030194,0.00081865,0.00015897,0.00031436,0.0002
 6164,0.00927089,-0.01666514,-0.01385709,-0.00149880,0.00271918,0.00226
 906,-0.07901847,0.23298529,0.04422595,-0.10402938,-0.11225575,-0.00164
 535,0.00040934,-0.00191663,-0.00014253,0.00149481,0.00115206,0.0004006
 0,0.00074584,-0.00009121,-0.00023336,-0.00010953,0.00029872,0.00056194
 ,-0.00105510,-0.00029462,-0.00037728,0.00050951,-0.00000328,-0.0062792
 9,0.01155585,0.00819960,0.01106857,-0.02363355,-0.01127671,-0.04748031
 ,0.11383163,0.11509143,0.00024610,0.00135112,-0.00095441,-0.00316926,0
 .01451508,-0.01020754,-0.01941237,-0.03948167,0.02359492,0.00211897,-0
 .00030383,0.00151109,-0.00226505,0.00036025,-0.00159271,-0.00219147,-0
 .00144370,-0.00015821,0.00019139,-0.00047097,0.00368022,-0.00065176,-0
 .00047780,-0.00021264,-0.00032911,-0.00063211,0.00022077,0.00003237,-0
 .00003156,-0.00008614,0.02521216,0.00006450,0.00012569,-0.00133779,-0.
 00322811,0.00420691,0.00144463,0.00134870,-0.36666790,0.13614690,0.000
 54663,0.00165696,-0.00285282,0.00035275,-0.00292616,-0.00120771,0.0001
 7123,0.00040433,-0.00038891,0.00043659,0.00019613,-0.00045190,0.000027
 88,0.00006873,0.00018866,-0.00042732,0.00006496,-0.00022102,0.00010228
 ,-0.00016245,0.00006811,0.00614963,0.38261623,0.00025797,-0.00023161,0
 .00009429,0.00393609,0.03425261,-0.01601699,0.00477109,0.13121530,-0.1
 2038026,0.00040305,0.00342476,-0.00378023,0.00009751,-0.00031110,0.000
 90982,-0.00316006,-0.00154387,-0.00703958,-0.00030347,-0.00038780,0.00
 038279,-0.00067265,-0.00000012,0.00029899,0.00002564,-0.00020348,0.000
 08362,0.00003353,-0.00016216,0.00000032,-0.00542163,-0.14336643,0.1325
 3060,0.00171678,-0.00200621,-0.00061203,0.00420795,-0.01262795,-0.0139
 2392,-0.13590016,0.16045699,0.13065846,-0.00088081,-0.00061058,-0.0033
 1379,0.00004989,-0.00002333,0.00012229,0.00002546,0.00055413,0.0009696
 2,-0.00065433,-0.00205255,0.00032328,-0.00020371,-0.00023878,-0.000001
 32,0.00021531,0.00006900,0.00039481,-0.00040274,0.00078132,-0.00034962
 ,-0.00225773,-0.00499002,-0.00096168,0.13356830,0.00041730,0.00068915,
 0.00220287,-0.00042387,-0.00027235,-0.00150832,0.12147237,-0.19028268,
 -0.11802491,-0.00049123,-0.00041358,0.00066245,-0.00029269,0.00012114,
 -0.00125269,-0.00072731,0.00188898,0.00042969,-0.00003948,-0.00150518,
 0.00024838,-0.00021218,-0.00038363,-0.00031597,0.00054912,0.00005156,0
 .00046209,-0.00032469,0.00010178,-0.00024340,0.02042538,-0.01813584,-0
 .02347768,-0.14117614,0.20693616,0.00116734,-0.00061891,0.00215838,0.0
 2139396,-0.02401446,-0.01976546,0.10447671,-0.12953777,-0.18169098,-0.
 00336086,0.00213379,-0.00680363,0.00030521,0.00061643,0.00143203,0.000
 76228,-0.00119361,-0.00004657,-0.00035804,0.00045676,-0.00008473,-0.00
 022264,0.00004968,0.00004362,0.00062209,0.00039008,0.00045946,-0.00136
 010,0.00053980,0.00008857,-0.00977964,0.01072935,0.01171951,-0.1140519
 1,0.14083494,0.19337037,0.00029865,0.00249747,0.00166215,-0.01271328,0
 .00101769,-0.00126583,0.00172962,-0.00092138,-0.00072467,-0.30809605,-
 0.01087869,0.01217168,-0.00106039,-0.00744719,0.00510355,-0.00231606,-
 0.00033216,0.00041725,0.00118400,-0.00339293,-0.00030253,0.00023133,-0
 .00016544,-0.00011915,0.00027377,-0.00007313,-0.00000901,-0.00076218,-
 0.00001344,0.00020970,-0.00056913,-0.00007055,0.00014527,0.00027206,0.
 00011104,-0.00011044,0.32988753,0.00071004,-0.00504562,-0.00310354,0.0
 2864466,0.00201763,-0.00071199,-0.00122271,0.00109023,0.00119268,-0.01
 029238,-0.05206867,-0.00065580,-0.03262841,-0.01224076,0.01180666,0.00
 276721,0.00040169,0.00050541,-0.00193244,-0.00071986,0.00017626,-0.000
 09566,0.00006866,-0.00006309,-0.00024936,0.00002123,0.00007545,0.00185
 497,-0.00023953,-0.00022016,-0.00002988,-0.00023545,-0.00034644,-0.000
 04818,-0.00000479,0.00026475,0.01868774,0.06312819,-0.00011383,-0.0017
 7034,-0.00090478,0.01500486,-0.00032527,-0.00025466,0.00030010,0.00057
 849,0.00085931,0.00663361,0.00029338,-0.05717951,0.02536692,0.00999369
 ,-0.00411450,0.00000215,0.00055299,0.00048400,-0.00042122,0.00063140,-
 0.00051906,-0.00021093,0.00011032,-0.00003073,0.00027438,-0.00015073,0
 .00025619,0.00071916,-0.00001323,0.00031230,0.00050737,0.00028922,-0.0
 0004848,-0.00024488,0.00006463,0.00025136,-0.01873884,-0.00670231,0.05
 713779,0.00038754,0.00027126,0.00101033,0.00382015,0.00273539,0.011305
 29,0.00002805,0.00152974,0.00073873,-0.09958775,-0.01210620,-0.0950999
 8,0.00946886,0.00060673,0.01328147,-0.00034931,-0.00036090,-0.00054005
 ,0.00017528,-0.00105475,0.00037111,-0.00000844,-0.00011643,0.00002041,
 -0.00020132,0.00041344,0.00009890,0.00014245,-0.00014859,-0.00003819,-
 0.00042259,-0.00019410,0.00000339,0.00069956,0.00015448,0.00056348,-0.
 00929729,-0.00356242,-0.02857490,0.09517589,-0.00070273,0.00085502,0.0
 0015326,-0.01256325,-0.00062689,-0.02290556,0.00292368,-0.00562466,-0.
 00333734,-0.00961789,-0.05460915,-0.02772899,0.00724938,-0.00743911,0.
 03728746,-0.00026318,0.00114527,-0.00161194,-0.00011389,-0.00035377,0.
 00065305,0.00028382,-0.00006347,-0.00003875,0.00063334,-0.00018983,0.0
 0013651,-0.00023806,0.00012118,0.00019987,-0.00003051,-0.00055994,0.00
 016609,-0.00051691,0.00019359,-0.00177228,0.00101747,0.00247269,-0.000
 88862,0.01129238,0.06364112,-0.00078532,0.00086743,0.00021980,-0.00819
 977,-0.00098948,-0.01355792,0.00179947,-0.00338226,-0.00021060,-0.0908
 4608,-0.02731880,-0.25182077,-0.00123060,0.01357011,-0.02012347,-0.000
 23728,0.00081644,-0.00032871,0.00035386,-0.00044990,0.00031388,-0.0000
 8293,0.00000475,-0.00006240,0.00077937,-0.00031280,0.00046589,0.000003
 37,0.00009221,0.00045548,0.00000836,0.00069657,0.00078255,-0.00033299,
 0.00009064,-0.00076639,0.00065789,-0.00123840,0.00368982,0.09707546,0.
 01806259,0.28036879,-0.00019341,0.00009564,0.00022361,-0.00078960,-0.0
 0265386,0.00111765,-0.00011265,-0.00035719,0.00011234,0.00458046,-0.01
 497271,-0.00256405,-0.13731749,0.21005849,0.09472996,0.00066994,-0.000
 40847,-0.00017891,-0.00027421,0.00028709,-0.00003996,0.00055168,0.0000
 7203,-0.00008487,-0.00004534,0.00017080,-0.00011481,0.00003654,0.00006
 432,-0.00012663,0.00017563,0.00003859,0.00032194,-0.00009503,-0.000022
 33,-0.00008452,0.00078836,-0.00168425,-0.00037328,-0.00017140,0.000195
 88,0.00071362,0.13216353,-0.00061969,0.00056725,0.00043363,-0.00310354
 ,-0.00402577,0.00465816,0.00006500,0.00079079,0.00106821,0.01846274,-0
 .02881586,-0.01339463,0.17457516,-0.33565773,-0.10185206,0.00153020,-0
 .00132945,-0.00104683,-0.00035654,0.00075577,0.00001857,0.00031566,-0.
 00002789,-0.00011416,0.00006948,-0.00003082,-0.00006522,-0.00011650,0.
 00014501,-0.00003617,0.00012921,-0.00033155,-0.00047956,-0.00006950,0.
 00007014,0.00004714,-0.00046272,0.00194268,-0.00154726,0.00046923,0.00
 123073,-0.00053499,-0.19059006,0.36528892,0.00017736,-0.00004767,-0.00
 002376,0.00121179,0.00229858,-0.00378944,-0.00037641,-0.00135169,0.000
 00667,-0.01224957,0.02591556,0.00584343,0.10430849,-0.14175177,-0.0824
 5722,-0.00028496,0.00074487,0.00051863,-0.00012948,-0.00001776,0.00003
 512,-0.00029233,0.00000458,0.00001266,-0.00002649,-0.00000892,0.000014
 36,-0.00003001,-0.00005951,0.00001799,0.00110302,0.00025581,0.00123643
 ,-0.00011062,-0.00001687,0.00004028,0.00076514,0.00020511,0.00039862,-
 0.00061235,0.00099720,-0.00040680,-0.09363828,0.11258536,0.07860682,0.
 00092600,-0.00125522,-0.00020195,0.00443455,-0.00986964,-0.00348948,0.
 00065483,0.00092568,-0.00073575,-0.00126652,-0.00115621,0.00163592,0.0
 0060683,-0.00100979,-0.00015195,-0.08552690,0.08054288,0.03381272,-0.0
 3849518,0.02699825,0.00679256,0.00012511,0.00000166,-0.00021007,0.0000
 8761,0.00011945,-0.00018698,-0.00007723,-0.00024752,0.00031010,0.00003
 998,-0.00005363,-0.00018205,0.00017915,0.00043394,-0.00018550,0.000171
 95,-0.00048430,-0.00001723,0.00003637,0.00009906,0.00005987,-0.0000983
 7,-0.00030006,0.00008437,0.11484746,0.00155345,0.00057255,-0.00057186,
 0.01040349,-0.02567299,-0.01269228,-0.00074139,0.00224423,-0.00041931,
 -0.00283110,-0.00055669,0.00426529,0.00074815,-0.00246731,-0.00020764,
 0.07969450,-0.21511397,-0.07134899,0.00403777,0.01162176,0.00503658,-0
 .00005111,0.00044859,0.00024893,-0.00012298,-0.00008918,0.00000254,-0.
 00116716,0.00036985,0.00065310,0.00000637,0.00004478,-0.00007478,-0.00
 011720,-0.00057731,0.00100395,0.00005003,0.00039326,0.00002356,-0.0001
 8453,0.00011622,-0.00003801,-0.00020486,-0.00031143,0.00030005,-0.0916
 9056,0.22963584,-0.00090015,-0.00000247,0.00060457,-0.00464524,0.01605
 670,0.00507284,-0.00031353,-0.00033955,0.00187979,0.00133198,0.0006495
 7,-0.00229766,-0.00036184,0.00095585,0.00055553,0.03410832,-0.07318851
 ,-0.08952820,-0.00182995,0.00665463,0.00932388,-0.00025496,-0.00003391
 ,-0.00008664,0.00016563,-0.00009448,-0.00005050,0.00004952,-0.00014910
 ,0.00003866,-0.00001634,-0.00012172,0.00019492,0.00034093,-0.00015761,
 -0.00008469,-0.00016787,0.00010534,-0.00006828,0.00009711,0.00023488,0
 .00045443,0.00006646,0.00030241,-0.00002371,-0.03956488,0.07493649,0.0
 8351121,0.00015878,0.00032737,0.00024242,0.00302351,0.00399413,0.00951
 480,0.00112251,-0.00302927,0.00159554,0.00023440,0.00013175,-0.0002525
 1,-0.00009105,0.00011605,0.00010058,-0.05453600,-0.00174642,-0.0297664
 6,-0.01821145,0.00173610,-0.04142394,0.00009826,0.00000202,-0.00020928
 ,-0.00041043,-0.00038278,0.00005420,0.00002026,-0.00014939,0.00004616,
 -0.00001901,-0.00002415,0.00080182,-0.00002233,0.00018540,-0.00022905,
 -0.00000481,-0.00034337,-0.00011099,0.00014205,-0.00000627,-0.00006871
 ,-0.00000070,0.00003823,-0.00004524,0.00433562,0.00005873,0.01203046,0
 .07095164,0.00065981,0.00018214,-0.00031136,0.00494412,0.00404642,0.02
 435312,-0.00026387,-0.00430614,0.00298569,0.00057906,0.00022909,0.0015
 1288,-0.00003402,0.00076665,-0.00063264,-0.00217937,-0.05439138,-0.019
 59676,-0.00266879,0.00311594,-0.00119040,0.00004674,-0.00004754,-0.000
 18752,-0.00035105,0.00013340,-0.00011029,-0.00013028,-0.00003975,-0.00
 001029,-0.00002573,0.00012835,0.00160437,-0.00015689,-0.00030677,0.000
 39628,0.00013272,-0.00001355,-0.00015436,-0.00034964,-0.00069350,-0.00
 028631,0.00006158,0.00001377,-0.00000744,-0.00307658,-0.00039607,-0.02
 670261,0.00294477,0.05235775,-0.00018747,0.00022050,-0.00019723,-0.003
 64519,-0.00379459,-0.01214152,0.00064952,0.00375276,-0.00103448,-0.000
 42488,-0.00131640,-0.00034467,0.00031139,-0.00015476,0.00066304,-0.039
 40574,-0.01637486,-0.30571001,-0.00628283,0.00233912,0.00101594,0.0002
 5896,0.00013385,0.00032524,0.00067002,0.00012933,0.00034217,-0.0000897
 5,0.00013375,0.00010880,0.00008955,-0.00037632,-0.00080732,-0.00008876
 ,-0.00018972,0.00019414,0.00004872,0.00008081,-0.00004399,0.00003524,0
 .00056959,0.00072212,-0.00003107,-0.00000264,0.00003560,-0.00072285,-0
 .00018158,-0.00944361,0.04884422,0.01669356,0.32524093,0.00029120,0.00
 063048,0.00006210,-0.00415495,-0.00252948,-0.00447370,-0.00073070,0.00
 518601,-0.00262594,0.00068120,-0.00080334,-0.00041449,-0.00023376,0.00
 055095,0.00030471,-0.01885587,0.01291281,-0.04878036,-0.05235847,0.004
 13478,-0.02215864,0.00021637,-0.00002929,0.00000907,0.00041832,0.00000
 340,0.00031093,-0.00007369,0.00003154,-0.00006433,0.00327088,-0.000250
 89,-0.00009575,-0.00051761,-0.00003912,0.00045162,-0.00001808,-0.00009
 126,-0.00000243,-0.00003808,0.00035769,0.00033242,0.00013206,-0.000036
 32,0.00014557,-0.00098127,0.00055839,-0.00013565,-0.00679125,-0.000132
 57,-0.00002908,0.07974370,0.00014642,-0.00019550,0.00079788,-0.0046642
 4,0.00046049,-0.00270421,0.00239422,-0.00426187,-0.00318055,-0.0014234
 7,-0.00103295,0.00020407,0.00080584,0.00052147,0.00008267,0.00390611,0
 .00444110,-0.00162874,0.01909385,-0.05536056,0.13183834,-0.00015311,-0
 .00006085,-0.00007084,0.00053493,0.00007086,0.00019755,0.00018236,-0.0
 0008651,-0.00013048,-0.00000927,-0.00049381,-0.00007808,0.00277280,0.0
 0182963,-0.00032592,0.00024348,-0.00096803,-0.00098556,0.00060490,0.00
 038450,0.00035020,-0.00015071,-0.00027454,-0.00004548,0.00002259,-0.00
 026212,0.00089408,-0.00385291,-0.00077881,-0.00166241,-0.02045379,0.05
 606751,-0.00078185,0.00084745,-0.00272121,0.00360473,0.00234756,0.0034
 1670,-0.00096959,-0.00405259,-0.00074011,-0.00104842,-0.00084231,0.000
 16904,0.00050581,0.00088919,-0.00102962,-0.01501604,0.00025813,-0.0116
 0590,-0.06477455,0.12449013,-0.39267081,0.00074998,0.00008732,0.000150
 87,-0.00085489,-0.00012762,-0.00004465,0.00022336,-0.00016195,0.000074
 26,-0.00228605,0.00050537,-0.00016096,0.00118214,0.00019148,-0.0005152
 6,0.00025698,-0.00137074,-0.00022540,0.00026454,-0.00017703,-0.0001957
 0,-0.00004920,-0.00003996,-0.00006568,0.00295316,-0.00093603,-0.000052
 55,-0.00112403,0.00164411,0.00107485,0.07716394,-0.12355251,0.40514214
 \\0.00000232,0.00000175,0.00000131,-0.00000337,-0.00000157,-0.00000245
 ,0.00000091,0.00000247,0.00000291,0.00000167,-0.00000106,0.00000003,-0
 .00000031,-0.00000244,-0.00000153,-0.00000064,-0.00000037,0.00000098,0
 .00000203,0.00000024,-0.00000208,-0.00000083,0.00000039,0.00000010,0.0
 0000025,0.00000113,-0.00000004,-0.00000045,0.00000062,0.00000031,-0.00
 000039,-0.00000175,-0.00000131,0.00000001,-0.00000035,0.00000039,-0.00
 000075,0.00000016,-0.00000025,-0.00000045,0.00000025,-0.00000139,-0.00
 000222,0.00000078,0.00000076,0.00000074,0.00000002,0.00000067,0.000001
 62,0.00000093,0.00000022,-0.00000015,-0.00000122,0.00000136\\\@


 WHEN YOU REACH FOR THE STARS, YOU MAY NOT QUITE GET ONE,
 BUT YOU WON'T COME UP WITH A HANDFUL OF MUD, EITHER.

                                         -- LEO BURNETT (AD AGENCY HEAD)
 File lengths (MBytes):  RWF=     37 Int=      0 D2E=      0 Chk=      2 Scr=      1
 Normal termination of Gaussian 16 at Thu Aug  4 16:27:44 2022.
real 879.90
user 3354.02
sys 18.98
