You are running Q-Chem version: 5.3.2

#
# job setting
#
local host:  c164.cluster
current dir: /scratch/user/peterchao1/peterchao1/6959660_1675470061000000295921810
input file:  qchem_test.inp
output file: 
nprocs     : 0
nthreads   : 8
#
# qchem installation setting
#
QC:          /sw/restricted/qchem/sw/5.3.2
QCAUX:       /sw/restricted/qchem/sw/5.3.2/qcaux
QCPROG:      /sw/restricted/qchem/sw/5.3.2/exe/qcprog.exe_s
QCPROG_S:    /sw/restricted/qchem/sw/5.3.2/exe/qcprog.exe_s
PARALLEL:    -DSERIAL
QCMPI:       seq
#
# qchem directory setting
#
qcrun:       qchem106874
QCSCRATCH:   /scratch/user/peterchao1/peterchao1/6959660_1675470061000000295921810
QCLOCALSCR:  
QCTMPDIR:    /scratch/user/peterchao1/peterchao1/6959660_1675470061000000295921810
QCFILEPREF:  /scratch/user/peterchao1/peterchao1/6959660_1675470061000000295921810/qchem106874
QCSAVEDIR:   
workdirs:    /scratch/user/peterchao1/peterchao1/6959660_1675470061000000295921810/qchem106874
workdir0:    /scratch/user/peterchao1/peterchao1/6959660_1675470061000000295921810/qchem106874
partmpdirs =  
#
# parallel setting
#
QCRSH:           ssh
QCMPI:           seq
QCMPIRUN:        
QCMACHINEFILE:   /scratch/user/peterchao1/peterchao1/6959660_1675470061000000295921810/qchem106874/hostfile

#
# env setting
#
exported envs:   QC QCAUX QCSCRATCH QCRUNNAME QCFILEPREF QCPROG QCPROG_S GUIFILE

Running Job 1 of 1 qchem_test.inp
qchem qchem_test.inp_106874.0 /scratch/user/peterchao1/peterchao1/6959660_1675470061000000295921810/qchem106874/ 0
/sw/restricted/qchem/sw/5.3.2/exe/qcprog.exe_s qchem_test.inp_106874.0 /scratch/user/peterchao1/peterchao1/6959660_1675470061000000295921810/qchem106874/
                  Welcome to Q-Chem
     A Quantum Leap Into The Future Of Chemistry


 Q-Chem 5.3, Q-Chem, Inc., Pleasanton, CA (2020)

 License issued to: MRG Daniel Tabor and Mike Hall, Texas A&M University

 Yihan Shao,  Zhengting Gan,  E. Epifanovsky,  A. T. B. Gilbert,  M. Wormit,  
 J. Kussmann,  A. W. Lange,  A. Behn,  Jia Deng,  Xintian Feng,  D. Ghosh,  
 M. Goldey,  P. R. Horn,  L. D. Jacobson,  I. Kaliman,  T. Kus,  A. Landau,  
 Jie Liu,  E. I. Proynov,  R. M. Richard,  R. P. Steele,  E. J. Sundstrom,  
 H. L. Woodcock III,  P. M. Zimmerman,  D. Zuev,  B. Alam,  B. Albrecht,  
 A. Aldossary,  E. Alguire,  S. A. Baeppler,  D. Barton,  Z. Benda,  
 Y. A. Bernard,  E. J. Berquist,  K. B. Bravaya,  H. Burton,  K. Carter-Fenk,  
 D. Casanova,  Chun-Min Chang,  Yunqing Chen,  A. Chien,  K. D. Closser,  
 M. P. Coons,  S. Coriani,  S. Dasgupta,  A. L. Dempwolff,  M. Diedenhofen,  
 Hainam Do,  R. G. Edgar,  Po-Tung Fang,  S. Faraji,  S. Fatehi,  
 Qingguo Feng,  J. Fosso-Tande,  J. Gayvert,  Qinghui Ge,  A. Ghysels,  
 G. Gidofalvi,  J. Gomes,  J. Gonthier,  S. Gulania,  A. Gunina,  D. Hait,  
 M. W. D. Hanson-Heine,  S. Hammes-Schiffer,  P. H. P. Harbach,  
 A. W. Hauser,  M. F. Herbst,  J. E. Herr,  E. G. Hohenstein,  Z. C. Holden,  
 S. Houck,  Kerwin Hui,  B. C. Huynh,  M. Ivanov,  T.-C. Jagau,  Hyunjun Ji,  
 B. Kaduk,  K. Khistyaev,  Jaehoon Kim,  P. Klunzinger,  K. Koh,  
 D. Kosenkov,  L. Koulias,  T. Kowalczyk,  C. M. Krauter,  A. Kunitsa,  
 Ka Un Lao,  A. Laurent,  K. V. Lawler,  Joonho Lee,  D. Lefrancois,  
 S. Lehtola,  D. S. Levine,  Yi-Pei Li,  You-Sheng Lin,  Fenglai Liu,  
 Kuan-Yu Liu,  E. Livshits,  M. Loipersberger,  A. Luenser,  A. Manjanath,  
 P. Manohar,  E. Mansoor,  S. F. Manzer,  Shan-Ping Mao,  Yuezhi Mao,  
 N. Mardirossian,  A. V. Marenich,  T. Markovich,  L. A. Martinez-Martinez,  
 S. A. Maurer,  N. J. Mayhall,  S. C. McKenzie,  J.-M. Mewes,  P. Morgante,  
 A. F. Morrison,  J. W. Mullinax,  K. Nanda,  T. S. Nguyen-Beck,  
 R. Olivares-Amaya,  K. J. Oosterbaan,  J. A. Parkhill,  S. K. Paul,  
 F. Pavosevic,  Zheng Pei,  T. M. Perrine,  F. Plasser,  P. Pokhilko,  
 S. Prager,  A. Prociuk,  E. Ramos,  B. Rana,  D. R. Rehn,  F. Rob,  
 E. Rossomme,  M. Scheurer,  M. Schneider,  N. Sergueev,  S. M. Sharada,  
 S. Sharma,  W. Skomorowski,  D. W. Small,  T. Stauch,  C. J. Stein,  
 T. Stein,  Yu-Chuan Su,  S. P. Veccham,  Zhen Tao,  A. J. W. Thom,  
 A. Tkatchenko,  T. Tsuchimochi,  N. M. Tubman,  L. Vogt,  M. L. Vidal,  
 O. Vydrov,  M. A. Watson,  J. Wenzel,  M. de Wergifosse,  T. A. Wesolowski,  
 A. White,  J. Witte,  A. Yamada,  Jun Yang,  K. Yao,  S. Yeganeh,  
 S. R. Yost,  Zhi-Qiang You,  A. Zech,  Igor Ying Zhang,  Xing Zhang,  
 Yan Zhao,  Ying Zhu,  B. R. Brooks,  G. K. L. Chan,  C. J. Cramer,  
 M. S. Gordon,  W. J. Hehre,  A. Klamt,  M. W. Schmidt,  C. D. Sherrill,  
 D. G. Truhlar,  A. Aspuru-Guzik,  R. Baer,  A. T. Bell,  N. A. Besley,  
 Jeng-Da Chai,  A. E. DePrince, III,  R. A. DiStasio Jr.,  A. Dreuw,  
 B. D. Dunietz,  T. R. Furlani,  Chao-Ping Hsu,  Yousung Jung,  Jing Kong,  
 D. S. Lambrecht,  WanZhen Liang,  C. Ochsenfeld,  V. A. Rassolov,  
 L. V. Slipchenko,  J. E. Subotnik,  T. Van Voorhis,  J. M. Herbert,  
 A. I. Krylov,  P. M. W. Gill,  M. Head-Gordon

 Contributors to earlier versions of Q-Chem not listed above: 
 R. D. Adamson,  B. Austin,  J. Baker,  G. J. O. Beran,  K. Brandhorst,  
 S. T. Brown,  E. F. C. Byrd,  A. K. Chakraborty,  C.-L. Cheng,  
 Siu Hung Chien,  D. M. Chipman,  D. L. Crittenden,  H. Dachsel,  
 R. J. Doerksen,  A. D. Dutoi,  L. Fusti-Molnar,  W. A. Goddard III,  
 A. Golubeva-Zadorozhnaya,  S. R. Gwaltney,  G. Hawkins,  A. Heyden,  
 S. Hirata,  G. Kedziora,  F. J. Keil,  C. Kelley,  Jihan Kim,  R. A. King,  
 R. Z. Khaliullin,  P. P. Korambath,  W. Kurlancheek,  A. M. Lee,  M. S. Lee,  
 S. V. Levchenko,  Ching Yeh Lin,  D. Liotard,  R. C. Lochan,  I. Lotan,  
 P. E. Maslen,  N. Nair,  D. P. O'Neill,  D. Neuhauser,  E. Neuscamman,  
 C. M. Oana,  R. Olson,  B. Peters,  R. Peverati,  P. A. Pieniazek,  
 Y. M. Rhee,  J. Ritchie,  M. A. Rohrdanz,  E. Rosta,  N. J. Russ,  
 H. F. Schaefer III,  N. E. Schultz,  N. Shenvi,  A. C. Simmonett,  A. Sodt,  
 D. Stuck,  K. S. Thanthiriwatte,  V. Vanovschi,  Tao Wang,  A. Warshel,  
 C. F. Williams,  Q. Wu,  X. Xu,  W. Zhang

 Please cite Q-Chem as follows:
 Y. Shao et al., Mol. Phys. 113, 184-215 (2015)
 DOI: 10.1080/00268976.2014.952696

 Q-Chem 5.3.2 for Intel X86 EM64T Linux

 Parts of Q-Chem use Armadillo 9.800.1 (Horizon Scraper).
 http://arma.sourceforge.net/

 Q-Chem begins on Fri Feb  3 18:21:17 2023  

Host: 
0

     Scratch files written to /scratch/user/peterchao1/peterchao1/6959660_1675470061000000295921810/qchem106874//
 Dec820 |scratch|qcdevops|jenkins|workspace|build_RNUM -1
Processing $rem in /sw/restricted/qchem/sw/5.3.2/config/preferences:
Processing $rem in /home/peterchao1/.qchemrc:

 Q-Chem warning in module libgen/rem_setup.C, line 2945:

 Neither GIA nor STOLL is specified by user. Use STOLL as the default


Checking the input file for inconsistencies... 	...done.

--------------------------------------------------------------
User input:
--------------------------------------------------------------
$molecule
0 1
--
0 1
C        2.226817   -0.694076   -1.405092
C        2.751334   -0.319363   -0.012938
C        3.028552   -1.603066    0.788183
C        4.039215    0.504259   -0.134520
C        1.688638    0.450356    0.781472
Cl        1.168720    2.001331    0.010630
H        2.005776    0.205609   -2.003946
H        1.306087   -1.298972   -1.329506
H        2.980654   -1.289063   -1.950181
H        3.402379   -1.373992    1.802437
H        3.793988   -2.213420    0.277770
H        2.115408   -2.216263    0.886056
H        4.815527   -0.071528   -0.668365
H        4.438560    0.769966    0.861077
H        3.863323    1.439637   -0.692073
H        2.065613    0.726499    1.778138
H        0.776171   -0.153586    0.900269
--
0 1
C       -4.039220   -0.504287    0.134459
C       -2.751351    0.319354    0.012871
C       -3.028565    1.602993   -0.788353
C       -2.226896    0.694174    1.405020
C       -1.688607   -0.450400   -0.781441
Cl       -1.168677   -2.001302   -0.010457
H       -4.815560    0.071516    0.668245
H       -3.863328   -1.439628    0.692073
H       -4.438527   -0.770060   -0.861135
H       -2.115436    2.216211   -0.886223
H       -3.794044    2.213360   -0.278020
H       -3.402336    1.373838   -1.802609
H       -2.005888   -0.205465    2.003955
H       -2.980755    1.289207    1.950027
H       -1.306158    1.299056    1.329431
H       -0.776146    0.153548   -0.900245
H       -2.065536   -0.726631   -1.778100
$end

$rem
JOBTYPE           eda
EDA2              2
METHOD            wB97x-D
BASIS             def2-SV(P)
SCF_CONVERGENCE   8
THRESH            14
SYMMETRY          false
DISP_FREE_X       wB97X-D
DISP_FREE_C       none
EDA_BSSE          true
$end
--------------------------------------------------------------
 ----------------------------------------------------------------
             Standard Nuclear Orientation (Angstroms)
    I     Atom           X                Y                Z
 ----------------------------------------------------------------
    1      C      -2.2268169680    -0.6940759236     1.4050918480
    2      C      -2.7513339542    -0.3193629894     0.0129378251
    3      C      -3.0285519330    -1.6030660271    -0.7881831220
    4      C      -4.0392149630     0.5042590045     0.1345197731
    5      C      -1.6886379513     0.4503559851    -0.7814721957
    6      Cl     -1.1687199746     2.0013310236    -0.0106302574
    7      H      -2.0057759833     0.2056091046     2.0039458112
    8      H      -1.3060869617    -1.2989719188     1.3295058858
    9      H      -2.9806539694    -1.2890629064     1.9501808648
   10      H      -3.4023789225    -1.3739920749    -1.8024371366
   11      H      -3.7939879338    -2.2134200115    -0.2777701046
   12      H      -2.1154079263    -2.2162630232    -0.8860560838
   13      H      -4.8155269645    -0.0715279790     0.6683647888
   14      H      -4.4385599532     0.7699659572    -0.8610772435
   15      H      -3.8633229782     1.4396370305     0.6920727342
   16      H      -2.0656129415     0.7264989380    -1.7781382124
   17      H      -0.7761709445    -0.1535860120    -0.9002691580
   18      C       4.0392200492    -0.5042869355    -0.1344590834
   19      C       2.7513510404     0.3193540584    -0.0128711354
   20      C       3.0285650192     1.6029930960     0.7883528116
   21      C       2.2268960542     0.6941739926    -1.4050201583
   22      C       1.6886070375    -0.4503999162     0.7814408853
   23      Cl      1.1686770608    -2.0013019547     0.0104569471
   24      H       4.8155600507     0.0715160480    -0.6682450992
   25      H       3.8633280644    -1.4396279615    -0.6920730445
   26      H       4.4385270394    -0.7700598882     0.8611349332
   27      H       2.1154360125     2.2162110922     0.8862227735
   28      H       3.7940440200     2.2133600804     0.2780197942
   29      H       3.4023360087     1.3738381439     1.8026088263
   30      H       2.0058880695    -0.2054650357    -2.0039551215
   31      H       2.9807550556     1.2892069754    -1.9500271752
   32      H       1.3061580479     1.2990559877    -1.3294311962
   33      H       0.7761460307     0.1535480809     0.9002448476
   34      H       2.0655360277    -0.7266308691     1.7780999021
 ----------------------------------------------------------------
 Molecular Point Group                 C1    NOp =  1
 Largest Abelian Subgroup              C1    NOp =  1
 Nuclear Repulsion Energy =         987.65939793 hartrees
 There are       58 alpha and       58 beta electrons
 Requested basis set is def2-SV(P)
 There are 120 shells and 220 basis functions

 Total QAlloc Memory Limit   7500 MB
 Mega-Array Size       188 MB
 MEM_STATIC part       192 MB
 A cutoff of  1.0D-14 yielded   6379 shell pairs
 There are     20983 function pairs (     23159 Cartesian)
 Smallest overlap matrix eigenvalue = 1.54E-03

 Scale SEOQF with 1.000000e-01/1.000000e-01/1.000000e-01

 Standard Electronic Orientation quadrupole field applied
 Nucleus-field energy     =     0.0000000340 hartrees

 -----------------------------------------------------------------------
  General SCF calculation program by
  Eric Jon Sundstrom, Paul Horn, Yuezhi Mao, Dmitri Zuev, Alec White,
  David Stuck, Shaama M.S., Shane Yost, Joonho Lee, David Small,
  Daniel Levine, Susi Lehtola, Hugh Burton, Evgeny Epifanovsky,
  Bang C. Huynh
 -----------------------------------------------------------------------
================================================================
                 ALMO-EDA with the EDA2 driver                  
================================================================
 The second-generation ALMO-EDA (for DFT):                      
 P. R. Horn, Y. Mao and M. Head-Gordon, PCCP, 18, 23067 (2016)  
 Decomposition of the frozen energy:                            
 P. R. Horn, Y. Mao and M. Head-Gordon, JCP, 144, 114107 (2016) 
Using eda2 option set 2
Option set summary: Frozen orbital wavefunction, initial wavefunction decomposition, and traditional AO-based POL.
--------------------------------
Printing EDA Options
--------------------------------
eda_child_super_basis      0
fragmo_guess_mode          0
child_mp                   0
child_mp_orders            0
cls_elec                   1
cls_disp                   0
scfmi_mode                 1
scfmi_occs                 0
scfmi_virts                0
frz_relax                  0
frz_relax_method           0
dc_pen_start               0
dc_pen_conv                0
dc_pen_increment           0
dc_pen_steps               0
dc_pen_thresh_factor       0
dc_pen_pre_newton_thresh   0
frz_ortho_decomp           1
frz_ortho_decomp_conv      6
plot_mo_ortho_frz          0
frgm_method                2
scfmi_freeze_ss            0
separate_rehyb             0
plot_diff_den              0
eda_nocv                   0
eda_vct_relax              1
disp_free_x                -110
disp_free_c                0
eda_bsse                   1
eda_pct_a                  0
eda_covp                   0
--------------------------------
Attempting to make child job directory: /scratch/user/peterchao1/peterchao1/6959660_1675470061000000295921810/qchem106874//Frg1/
Attempting to make child job directory: /scratch/user/peterchao1/peterchao1/6959660_1675470061000000295921810/qchem106874//Frg2/
Creating input file /scratch/user/peterchao1/peterchao1/6959660_1675470061000000295921810/qchem106874/Frg1.input
using default PutDataFrgm: nothing
calling putenv with: QCSCRATCH=/scratch/user/peterchao1/peterchao1/6959660_1675470061000000295921810/qchem106874/ 
Spawning Job For Fragment 0
Done Job For Fragment 0
calling putenv with: QCSCRATCH=/scratch/user/peterchao1/peterchao1/6959660_1675470061000000295921810 
calling putenv with: QCTHREADS=8 
Creating input file /scratch/user/peterchao1/peterchao1/6959660_1675470061000000295921810/qchem106874/Frg2.input
using default PutDataFrgm: nothing
calling putenv with: QCSCRATCH=/scratch/user/peterchao1/peterchao1/6959660_1675470061000000295921810/qchem106874/ 
Spawning Job For Fragment 1
Done Job For Fragment 1
calling putenv with: QCSCRATCH=/scratch/user/peterchao1/peterchao1/6959660_1675470061000000295921810 
calling putenv with: QCTHREADS=8 
Doing General SCFMI
 Exchange:     0.2220 Hartree-Fock + 1.0000 wB97X-D + LR-HF
 Correlation:  1.0000 wB97X-D
 Using SG-2 standard quadrature grid
 Dispersion:   Grimme D
performing fock build before subrot guess so that all methods have access
Printing subrot_rss_gen Method Specification:
Occupied Subspace Method is 0
Virtual Subspace Method is 0
Energy of the unrelaxed supersystem initial determinant -1313.980560616248
write pseudocanon occs and virts to disk
write pseudocanon orbital energies to disk
Tolerance of ortho_decomp_scf: 1.00e-06
GDM subspace size: 20
Beginning the Orthogonal Decomposition of the Initial Supersystem Wavefunction
    1   -1313.9516618558      4.89e-02     ortho_decomp Preconditoned Steepest Descent
    2   -1313.9564069850      4.31e-04     ortho_decomp BFGS Step
    3   -1313.9564094160      2.26e-05     ortho_decomp BFGS Step
    4   -1313.9564094251      1.12e-06     ortho_decomp BFGS Step
    5   -1313.9564094251      2.83e-08     ortho_decomp 00000 Convergence criterion met
 Exchange:     0.2220 Hartree-Fock + 1.0000 wB97X-D + LR-HF
 Correlation:  1.0000 wB97X-D
 Using SG-2 standard quadrature grid
 Dispersion:   Grimme D
 Long-range K will be added via erf
 Coulomb attenuation parameter = 0.2 bohr**(-1)
 Exchange:     0.2220 Hartree-Fock + 1.0000 wB97X-D + LR-HF
 Correlation:  1.0000 wB97X-D
 Using SG-2 standard quadrature grid
 Dispersion:   Grimme D
 Long-range K will be added via erf
 Coulomb attenuation parameter = 0.2 bohr**(-1)
 Exchange:     0.2220 Hartree-Fock + 1.0000 wB97X-D + LR-HF
 Correlation:  1.0000 wB97X-D
 Using SG-2 standard quadrature grid
 Dispersion:   Grimme D
 Long-range K will be added via erf
 Coulomb attenuation parameter = 0.2 bohr**(-1)
Doing General SCFMI
 Exchange:     0.2220 Hartree-Fock + 1.0000 wB97X-D + LR-HF
 Correlation:  1.0000 wB97X-D
 Using SG-2 standard quadrature grid
 Dispersion:   Grimme D
performing fock build at end of subrot_r(subrot) constructor so that all methods have access
<S^2> of initial wavefunction before polarization iterations 0.0000000000
Beginning iterations for the determination of the polarized wavefunction
Energy prior to optimization (guess energy) = -1313.980560616248
Begin Timing: Total SCF Calculation
begin iterations for algorithm: DIIS         
the SCF tolerance is set to 1.00e-08
    1   -1313.9805606162      1.43e-04     00000 
    2   -1313.9809961142      4.61e-05     00000 
    3   -1313.9810233947      2.37e-05     00000 
    4   -1313.9810309862      7.52e-06     00000 
    5   -1313.9810318594      1.80e-06     00000 
    6   -1313.9810319247      6.18e-07     00000 
    7   -1313.9810319313      1.61e-07     00000 
    8   -1313.9810319317      4.17e-08     00000 
    9   -1313.9810319318      8.62e-09     00000 Convergence criterion met
write pseudocanon occs and virts to disk
write pseudocanon orbital energies to disk
Timing for Total SCF: 20.00s (wall), 150.26s (cpu)
<S^2> of polarized wavefunction after polarization iterations 0.0000000000
relaxing scfmi constraint to allow all rotations in the entire AO span
Doing General SCFMI
 Exchange:     0.2220 Hartree-Fock + 1.0000 wB97X-D + LR-HF
 Correlation:  1.0000 wB97X-D
 Using SG-2 standard quadrature grid
 Dispersion:   Grimme D
performing fock build at end of subrot_r(subrot) constructor so that all methods have access
<S^2> of polarized wavefunction before ct-allowed iterations 0.0000000000
Beginning iterations for the determination of the CT-Allowed wavefunction
Energy prior to optimization (guess energy) = -1313.981031931782
Begin Timing: Total SCF Calculation
begin iterations for algorithm: DIIS         
the SCF tolerance is set to 1.00e-08
    1   -1313.9810319318      7.04e-04     00000 
    2   -1313.9891337680      8.26e-05     00000 
    3   -1313.9896342588      2.65e-05     00000 
    4   -1313.9896719235      1.62e-05     00000 
    5   -1313.9896801909      3.65e-06     00000 
    6   -1313.9896805880      7.48e-07     00000 
    7   -1313.9896806169      2.44e-07     00000 
    8   -1313.9896806186      4.77e-08     00000 
    9   -1313.9896806187      1.07e-08     00000 
   10   -1313.9896806187      2.20e-09     00000 Convergence criterion met
write pseudocanon occs and virts to disk
write pseudocanon orbital energies to disk
Timing for Total SCF: 22.00s (wall), 169.92s (cpu)
<S^2> of ct_allowed wavefunction after ct-allowed iterations 0.0000000000
Attempting to make child job directory: /scratch/user/peterchao1/peterchao1/6959660_1675470061000000295921810/qchem106874//FrgBSSE1/
Attempting to make child job directory: /scratch/user/peterchao1/peterchao1/6959660_1675470061000000295921810/qchem106874//FrgBSSE2/
Creating input file /scratch/user/peterchao1/peterchao1/6959660_1675470061000000295921810/qchem106874/FrgBSSE1.input
calling putenv with: QCSCRATCH=/scratch/user/peterchao1/peterchao1/6959660_1675470061000000295921810/qchem106874/ 
Spawning Job For Fragment 0
Done Job For Fragment 0
calling putenv with: QCSCRATCH=/scratch/user/peterchao1/peterchao1/6959660_1675470061000000295921810 
calling putenv with: QCTHREADS=8 
Creating input file /scratch/user/peterchao1/peterchao1/6959660_1675470061000000295921810/qchem106874/FrgBSSE2.input
calling putenv with: QCSCRATCH=/scratch/user/peterchao1/peterchao1/6959660_1675470061000000295921810/qchem106874/ 
Spawning Job For Fragment 1
Done Job For Fragment 1
calling putenv with: QCSCRATCH=/scratch/user/peterchao1/peterchao1/6959660_1675470061000000295921810 
calling putenv with: QCTHREADS=8 
====================================================================
   Evaluating the BSSE with fragment SCF in the supersystem basis
   Fragment contributions (kJ/mol) 
   Frgm 1: 7.7576
   Frgm 2: 7.7579
   BSSE (kJ/mol) = 15.5154
====================================================================

================================
        Results of EDA2         
================================
Basic EDA Quantities
--------------------
Fragment Energies (Ha):
1 -656.9885192659
2 -656.9885193225
--------------------
  E_prp (kJ/mol) = 0.0000
  E_frz (kJ/mol) = -9.2472
  E_pol (kJ/mol) = -1.2375
  E_vct (kJ/mol) = -7.1920 (CP-corrected)
  E_int (kJ/mol) = -17.6766 (CP-corrected)
--------------------


Decomposition of frozen interaction energy
--------------------
  --------------------
  Orthogonal Frozen Decomposition:
  --------------------
     E_elec   (ELEC)   (kJ/mol) = -28.5506
     E_pauli  (PAULI)  (kJ/mol) = 37.1587
     E_disp   (DISP)   (kJ/mol) = -17.8553
  --------------------
  Classical Frozen Decomposition:
  --------------------
     E_cls_elec  (CLS ELEC)  (kJ/mol) = -12.2658
     E_mod_pauli (MOD PAULI) (kJ/mol) = 20.8739 (FRZ - CLS ELEC - DISP)
     E_disp      (DISP)      (kJ/mol) = -17.8553
  --------------------
--------------------

Simplified EDA Summary (kJ/mol)
--------------------
 PREPARATION      0.0000
 FROZEN           -9.2472 (ELEC + PAULI + DISP)
[ELEC + PAULI = 8.6081, DISP = -17.8553]
 POLARIZATION    -1.2375
 CHARGE TRANSFER -7.1920     (counterpoise-corrected)
 TOTAL           -17.6766     (PRP + FRZ + POL + CT)
--------------------
 
 --------------------------------------------------------------
 
                    Orbital Energies (a.u.)
 --------------------------------------------------------------
 
 Alpha MOs
 -- Occupied --
********-101.6573 -10.3456 -10.3455 -10.3186 -10.3186 -10.2870 -10.2870
-10.2824 -10.2824 -10.2795 -10.2795  -9.5712  -9.5712  -7.3253  -7.3253
 -7.3162  -7.3162  -7.3160  -7.3160  -0.9620  -0.9584  -0.9004  -0.8987
 -0.7806  -0.7801  -0.7760  -0.7757  -0.7561  -0.7559  -0.6303  -0.6265
 -0.5676  -0.5552  -0.5531  -0.5508  -0.5375  -0.5350  -0.5085  -0.5019
 -0.4951  -0.4931  -0.4611  -0.4599  -0.4583  -0.4582  -0.4493  -0.4489
 -0.4357  -0.4303  -0.4161  -0.4105  -0.4103  -0.4087  -0.3844  -0.3732
 -0.3728  -0.3633
 -- Virtual --
  0.1110   0.1135   0.1303   0.1439   0.1733   0.1744   0.1825   0.1839
  0.1874   0.1880   0.1952   0.1989   0.2031   0.2065   0.2185   0.2271
  0.2307   0.2386   0.2525   0.2572   0.2574   0.2601   0.2686   0.2691
  0.2738   0.2875   0.3021   0.3025   0.3112   0.3113   0.3188   0.3210
  0.4581   0.4682   0.4712   0.4841   0.4895   0.4985   0.5017   0.5242
  0.5399   0.5448   0.5936   0.6050   0.6279   0.6307   0.6324   0.6639
  0.6724   0.6775   0.6795   0.6933   0.7165   0.7248   0.7325   0.7348
  0.7485   0.7547   0.7587   0.7609   0.7661   0.7690   0.7727   0.7787
  0.7818   0.7832   0.7912   0.7937   0.8036   0.8087   0.8119   0.8129
  0.8193   0.8196   0.8298   0.8321   0.8378   0.8383   0.8486   0.8537
  0.8549   0.8562   0.8672   0.8759   0.8862   0.8957   0.9045   0.9088
  0.9098   0.9178   0.9259   0.9269   0.9779   0.9969   1.0015   1.0250
  1.0525   1.0625   1.1005   1.1325   1.1761   1.1814   1.2151   1.2273
  1.2386   1.2407   1.2430   1.2661   1.2761   1.3075   1.4271   1.4330
  1.4866   1.5049   1.5157   1.5266   1.7948   1.7966   1.8013   1.8034
  1.8257   1.8270   1.8915   1.8977   1.9077   1.9164   1.9165   1.9271
  2.1058   2.1065   2.1066   2.1140   2.1142   2.1150   2.1219   2.1234
  2.1627   2.1823   2.2327   2.2355   2.2420   2.2421   2.2476   2.2511
  2.2573   2.2577   2.2664   2.2692   2.2858   2.2982   2.3132   2.3182
  2.6153   2.6224   2.6268   2.6317   2.7595   2.7597   2.7629   2.7642
  2.7745   2.7760
 --------------------------------------------------------------
 
          Ground-State Mulliken Net Atomic Charges

     Atom                 Charge (a.u.)
  ----------------------------------------
      1 C                    -0.286779
      2 C                    -0.252649
      3 C                    -0.280753
      4 C                    -0.269288
      5 C                    -0.151913
      6 Cl                   -0.150559
      7 H                     0.125016
      8 H                     0.123257
      9 H                     0.116434
     10 H                     0.114990
     11 H                     0.122822
     12 H                     0.126866
     13 H                     0.117186
     14 H                     0.111674
     15 H                     0.126920
     16 H                     0.149237
     17 H                     0.157538
     18 C                    -0.269288
     19 C                    -0.252647
     20 C                    -0.280753
     21 C                    -0.286779
     22 C                    -0.151914
     23 Cl                   -0.150558
     24 H                     0.117186
     25 H                     0.126920
     26 H                     0.111673
     27 H                     0.126867
     28 H                     0.122822
     29 H                     0.114990
     30 H                     0.125016
     31 H                     0.116434
     32 H                     0.123256
     33 H                     0.157539
     34 H                     0.149237
  ----------------------------------------
  Sum of atomic charges =     0.000000

 -----------------------------------------------------------------
                    Cartesian Multipole Moments
 -----------------------------------------------------------------
    Charge (ESU x 10^10)
                 0.0000
    Dipole Moment (Debye)
         X       0.0000      Y      -0.0001      Z       0.0002
       Tot       0.0002
    Quadrupole Moments (Debye-Ang)
        XX     -87.2579     XY       4.1981     YY     -98.5333
        XZ       2.2948     YZ      -0.3073     ZZ     -90.8584
    Octopole Moments (Debye-Ang^2)
       XXX       0.0004    XXY      -0.0001    XYY       0.0005
       YYY       0.0005    XXZ      -0.0001    XYZ      -0.0004
       YYZ       0.0004    XZZ      -0.0005    YZZ      -0.0006
       ZZZ      -0.0010
    Hexadecapole Moments (Debye-Ang^3)
      XXXX   -3769.8548   XXXY      17.2932   XXYY    -821.4964
      XYYY      -7.6229   YYYY   -1091.8985   XXXZ      -3.0281
      XXYZ     -17.3437   XYYZ      -8.5124   YYYZ       8.5433
      XXZZ    -691.5092   XYZZ     -13.8535   YYZZ    -259.4896
      XZZZ      16.4483   YZZZ      -2.3703   ZZZZ    -468.1532
 -----------------------------------------------------------------
Archival summary:
1\1\c164.cluster\SP\ProcedureUnspecified\BasisUnspecified\l21022\petercha\FriFeb318:24:112023FriFeb318:24:112023\0\\#,ProcedureUnspecified,BasisUnspecified,\\0,1\Cl\C,1,1.80833\H,2,1.10066,1,106.157\H,2,1.10078,1,105.62,3,115.536,0\C,2,1.53391,1,114.13,3,-122.32,0\C,5,1.53355,2,110.694,1,-62.256,0\H,6,1.10306,5,111.198,2,62.5538,0\H,6,1.10417,5,110.409,2,-177.514,0\H,6,1.10512,5,111.172,2,-57.8276,0\C,5,1.53415,2,110.834,1,60.4207,0\H,10,1.10314,5,111.218,2,-62.9937,0\H,10,1.10424,5,110.901,2,57.8095,0\H,10,1.10426,5,110.251,2,177.291,0\C,5,1.53836,2,105.895,1,178.838,0\H,14,1.10406,5,110.212,2,179.727,0\H,14,1.10427,5,111.132,2,-60.7109,0\H,14,1.10496,5,111.468,2,60.1658,0\H,3,2.39705,2,112.674,1,-35.2687,0\C,18,1.10066,3,112.674,2,180,0\H,19,1.10078,18,108.895,3,148.569,0\C,19,1.53391,18,110.787,3,-89.145,0\C,21,1.53355,19,110.694,18,-177.996,0\H,22,1.10306,21,111.198,19,-62.5546,0\H,22,1.10417,21,110.409,19,177.513,0\H,22,1.10512,21,111.172,19,57.8267,0\C,21,1.53415,19,110.834,18,59.3275,0\H,26,1.10314,21,111.218,19,62.9922,0\H,26,1.10424,21,110.901,19,-57.8112,0\H,26,1.10427,21,110.251,19,-177.292,0\C,21,1.53836,19,105.895,18,-59.0898,0\H,30,1.10406,21,110.212,19,-179.728,0\H,30,1.10427,21,111.132,19,60.7101,0\H,30,1.10496,21,111.468,19,-60.1665,0\Cl,19,1.80832,18,106.157,3,35.2739,0\\\@

 Total job time:  174.12s(wall), 697.81s(cpu) 
 Fri Feb  3 18:24:11 2023

        *************************************************************
        *                                                           *
        *  Thank you very much for using Q-Chem.  Have a nice day.  *
        *                                                           *
        *************************************************************


remove work dirs /scratch/user/peterchao1/peterchao1/6959660_1675470061000000295921810/qchem106874.0 -- /scratch/user/peterchao1/peterchao1/6959660_1675470061000000295921810/qchem106874.-1
rm -rf /scratch/user/peterchao1/peterchao1/6959660_1675470061000000295921810/qchem106874
real 190.16
user 1103.61
sys 35.41
