 Entering Gaussian System, Link 0=g16
 Input=gaussian_test.inp
 Output=gaussian_test.log
 Initial command:
 /sw/restricted/lms/sw/Gaussian/g16_B01/g16/l1.exe "/scratch/user/peterchao1/peterchao1/9982559_1711744440000000489147971/Gau-111185.inp" -scrdir="/scratch/user/peterchao1/peterchao1/9982559_1711744440000000489147971/"
 Entering Link 1 = /sw/restricted/lms/sw/Gaussian/g16_B01/g16/l1.exe PID=    111186.
  
 Copyright (c) 1988-2017, Gaussian, Inc.  All Rights Reserved.
  
 This is part of the Gaussian(R) 16 program.  It is based on
 the Gaussian(R) 09 system (copyright 2009, Gaussian, Inc.),
 the Gaussian(R) 03 system (copyright 2003, Gaussian, Inc.),
 the Gaussian(R) 98 system (copyright 1998, Gaussian, Inc.),
 the Gaussian(R) 94 system (copyright 1995, Gaussian, Inc.),
 the Gaussian 92(TM) system (copyright 1992, Gaussian, Inc.),
 the Gaussian 90(TM) system (copyright 1990, Gaussian, Inc.),
 the Gaussian 88(TM) system (copyright 1988, Gaussian, Inc.),
 the Gaussian 86(TM) system (copyright 1986, Carnegie Mellon
 University), and the Gaussian 82(TM) system (copyright 1983,
 Carnegie Mellon University). Gaussian is a federally registered
 trademark of Gaussian, Inc.
  
 This software contains proprietary and confidential information,
 including trade secrets, belonging to Gaussian, Inc.
  
 This software is provided under written license and may be
 used, copied, transmitted, or stored only in accord with that
 written license.
  
 The following legend is applicable only to US Government
 contracts under FAR:
  
                    RESTRICTED RIGHTS LEGEND
  
 Use, reproduction and disclosure by the US Government is
 subject to restrictions as set forth in subparagraphs (a)
 and (c) of the Commercial Computer Software - Restricted
 Rights clause in FAR 52.227-19.
  
 Gaussian, Inc.
 340 Quinnipiac St., Bldg. 40, Wallingford CT 06492
  
  
 ---------------------------------------------------------------
 Warning -- This program may not be used in any manner that
 competes with the business of Gaussian, Inc. or will provide
 assistance to any competitor of Gaussian, Inc.  The licensee
 of this program is prohibited from giving any competitor of
 Gaussian, Inc. access to this program.  By using this program,
 the user acknowledges that Gaussian, Inc. is engaged in the
 business of creating and licensing software in the field of
 computational chemistry and represents and warrants to the
 licensee that it is not a competitor of Gaussian, Inc. and that
 it will not use this program in any manner prohibited above.
 ---------------------------------------------------------------
  

 Cite this work as:
 Gaussian 16, Revision B.01,
 M. J. Frisch, G. W. Trucks, H. B. Schlegel, G. E. Scuseria, 
 M. A. Robb, J. R. Cheeseman, G. Scalmani, V. Barone, 
 G. A. Petersson, H. Nakatsuji, X. Li, M. Caricato, A. V. Marenich, 
 J. Bloino, B. G. Janesko, R. Gomperts, B. Mennucci, H. P. Hratchian, 
 J. V. Ortiz, A. F. Izmaylov, J. L. Sonnenberg, D. Williams-Young, 
 F. Ding, F. Lipparini, F. Egidi, J. Goings, B. Peng, A. Petrone, 
 T. Henderson, D. Ranasinghe, V. G. Zakrzewski, J. Gao, N. Rega, 
 G. Zheng, W. Liang, M. Hada, M. Ehara, K. Toyota, R. Fukuda, 
 J. Hasegawa, M. Ishida, T. Nakajima, Y. Honda, O. Kitao, H. Nakai, 
 T. Vreven, K. Throssell, J. A. Montgomery, Jr., J. E. Peralta, 
 F. Ogliaro, M. J. Bearpark, J. J. Heyd, E. N. Brothers, K. N. Kudin, 
 V. N. Staroverov, T. A. Keith, R. Kobayashi, J. Normand, 
 K. Raghavachari, A. P. Rendell, J. C. Burant, S. S. Iyengar, 
 J. Tomasi, M. Cossi, J. M. Millam, M. Klene, C. Adamo, R. Cammi, 
 J. W. Ochterski, R. L. Martin, K. Morokuma, O. Farkas, 
 J. B. Foresman, and D. J. Fox, Gaussian, Inc., Wallingford CT, 2016.
 
 ******************************************
 Gaussian 16:  ES64L-G16RevB.01 20-Dec-2017
                29-Mar-2024 
 ******************************************
 %nprocshared=4
 Will use up to    4 processors via shared memory.
 %mem=8000mb
 %chk=monomer.chk
 %nprocshared=4
 Will use up to    4 processors via shared memory.
 %mem=8000mb
 ----------------------------------------------------------------------
 #T wB97XD/def2svpp opt=tight freq int(grid=ultrafine) scf=(verytight,q
 c) Volume=tight
 ----------------------------------------------------------------------
 -------
 Monomer
 -------
 Symbolic Z-matrix:
 Charge =  0 Multiplicity = 1
 C                    -1.24741  -1.21373   0.65837 
 C                    -0.71015  -0.2419   -0.39817 
 C                    -1.58154   1.00654  -0.49115 
 C                     0.69997   0.13102   0.00559 
 O                     1.60931  -0.66392  -0.57634 
 O                     1.00633   1.00281   0.77232 
 H                    -0.62556  -2.10436   0.71234 
 H                    -2.26133  -1.51223   0.40377 
 H                    -1.25895  -0.73379   1.63435 
 H                    -0.661    -0.75242  -1.36375 
 H                    -1.54023   1.55382   0.44719 
 H                    -2.61272   0.73058  -0.69589 
 H                    -1.23062   1.6612   -1.28526 
 H                     2.50337  -0.43199  -0.27822 
 

 GradGradGradGradGradGradGradGradGradGradGradGradGradGradGradGradGradGrad
 Initialization pass.
                           ----------------------------
                           !    Initial Parameters    !
                           ! (Angstroms and Degrees)  !
 --------------------------                            --------------------------
 ! Name  Definition              Value          Derivative Info.                !
 --------------------------------------------------------------------------------
 ! R1    R(1,2)                  1.5328         estimate D2E/DX2                !
 ! R2    R(1,7)                  1.0876         estimate D2E/DX2                !
 ! R3    R(1,8)                  1.0872         estimate D2E/DX2                !
 ! R4    R(1,9)                  1.0877         estimate D2E/DX2                !
 ! R5    R(2,3)                  1.5253         estimate D2E/DX2                !
 ! R6    R(2,4)                  1.5135         estimate D2E/DX2                !
 ! R7    R(2,10)                 1.0933         estimate D2E/DX2                !
 ! R8    R(3,11)                 1.0871         estimate D2E/DX2                !
 ! R9    R(3,12)                 1.0869         estimate D2E/DX2                !
 ! R10   R(3,13)                 1.0874         estimate D2E/DX2                !
 ! R11   R(4,5)                  1.3407         estimate D2E/DX2                !
 ! R12   R(4,6)                  1.2007         estimate D2E/DX2                !
 ! R13   R(5,14)                 0.9706         estimate D2E/DX2                !
 ! A1    A(2,1,7)              110.6713         estimate D2E/DX2                !
 ! A2    A(2,1,8)              109.8496         estimate D2E/DX2                !
 ! A3    A(2,1,9)              110.0282         estimate D2E/DX2                !
 ! A4    A(7,1,8)              108.6641         estimate D2E/DX2                !
 ! A5    A(7,1,9)              108.8377         estimate D2E/DX2                !
 ! A6    A(8,1,9)              108.7471         estimate D2E/DX2                !
 ! A7    A(1,2,3)              111.1443         estimate D2E/DX2                !
 ! A8    A(1,2,4)              107.3924         estimate D2E/DX2                !
 ! A9    A(1,2,10)             109.1757         estimate D2E/DX2                !
 ! A10   A(3,2,4)              110.2957         estimate D2E/DX2                !
 ! A11   A(3,2,10)             110.7341         estimate D2E/DX2                !
 ! A12   A(4,2,10)             107.9855         estimate D2E/DX2                !
 ! A13   A(2,3,11)             109.7394         estimate D2E/DX2                !
 ! A14   A(2,3,12)             110.2221         estimate D2E/DX2                !
 ! A15   A(2,3,13)             110.6661         estimate D2E/DX2                !
 ! A16   A(11,3,12)            109.0549         estimate D2E/DX2                !
 ! A17   A(11,3,13)            108.3624         estimate D2E/DX2                !
 ! A18   A(12,3,13)            108.752          estimate D2E/DX2                !
 ! A19   A(2,4,5)              111.7187         estimate D2E/DX2                !
 ! A20   A(2,4,6)              125.9432         estimate D2E/DX2                !
 ! A21   A(5,4,6)              122.3175         estimate D2E/DX2                !
 ! A22   A(4,5,14)             110.4736         estimate D2E/DX2                !
 ! D1    D(7,1,2,3)            179.522          estimate D2E/DX2                !
 ! D2    D(7,1,2,4)            -59.7564         estimate D2E/DX2                !
 ! D3    D(7,1,2,10)            57.0842         estimate D2E/DX2                !
 ! D4    D(8,1,2,3)             59.532          estimate D2E/DX2                !
 ! D5    D(8,1,2,4)           -179.7464         estimate D2E/DX2                !
 ! D6    D(8,1,2,10)           -62.9059         estimate D2E/DX2                !
 ! D7    D(9,1,2,3)            -60.1563         estimate D2E/DX2                !
 ! D8    D(9,1,2,4)             60.5653         estimate D2E/DX2                !
 ! D9    D(9,1,2,10)           177.4059         estimate D2E/DX2                !
 ! D10   D(1,2,3,11)            64.0383         estimate D2E/DX2                !
 ! D11   D(1,2,3,12)           -56.0822         estimate D2E/DX2                !
 ! D12   D(1,2,3,13)          -176.42           estimate D2E/DX2                !
 ! D13   D(4,2,3,11)           -54.9571         estimate D2E/DX2                !
 ! D14   D(4,2,3,12)          -175.0776         estimate D2E/DX2                !
 ! D15   D(4,2,3,13)            64.5847         estimate D2E/DX2                !
 ! D16   D(10,2,3,11)         -174.43           estimate D2E/DX2                !
 ! D17   D(10,2,3,12)           65.4495         estimate D2E/DX2                !
 ! D18   D(10,2,3,13)          -54.8882         estimate D2E/DX2                !
 ! D19   D(1,2,4,5)             93.2577         estimate D2E/DX2                !
 ! D20   D(1,2,4,6)            -85.111          estimate D2E/DX2                !
 ! D21   D(3,2,4,5)           -145.4862         estimate D2E/DX2                !
 ! D22   D(3,2,4,6)             36.1451         estimate D2E/DX2                !
 ! D23   D(10,2,4,5)           -24.3603         estimate D2E/DX2                !
 ! D24   D(10,2,4,6)           157.2709         estimate D2E/DX2                !
 ! D25   D(2,4,5,14)          -177.7645         estimate D2E/DX2                !
 ! D26   D(6,4,5,14)             0.6727         estimate D2E/DX2                !
 --------------------------------------------------------------------------------
 Number of steps in this run=     71 maximum allowed number of steps=    100.
 GradGradGradGradGradGradGradGradGradGradGradGradGradGradGradGradGradGrad

                    Distance matrix (angstroms):
                    1          2          3          4          5
     1  C    0.000000
     2  C    1.532765   0.000000
     3  C    2.522424   1.525312   0.000000
     4  C    2.454940   1.513452   2.493708   0.000000
     5  O    3.160319   2.364265   3.602674   1.340703   0.000000
     6  O    3.163121   2.421914   2.879832   1.200728   2.227215
     7  H    1.087584   2.170055   3.469868   2.693219   2.954686
     8  H    1.087187   2.159399   2.758112   3.410003   4.081925
     9  H    1.087663   2.162014   2.765970   2.690378   3.622010
    10  H    2.155377   1.093335   2.168589   2.123155   2.404609
    11  H    2.790996   2.151346   1.087056   2.690329   3.985677
    12  H    2.734668   2.157337   1.086918   3.438811   4.447970
    13  H    3.470332   2.163242   1.087360   2.781172   3.738176
    14  H    3.944191   3.221375   4.336040   1.910443   0.970575
                    6          7          8          9         10
     6  O    0.000000
     7  H    3.510151   0.000000
     8  H    4.139910   1.766805   0.000000
     9  H    2.981674   1.769111   1.767787   0.000000
    10  H    3.228560   2.477728   2.502500   3.057208   0.000000
    11  H    2.625697   3.780109   3.150004   2.592619   3.061255
    12  H    3.914998   3.737482   2.522478   3.067100   2.540576
    13  H    3.109829   4.305340   3.739768   3.776371   2.481166
    14  H    2.324529   3.683505   4.932994   4.231321   3.360697
                   11         12         13         14
    11  H    0.000000
    12  H    1.770470   0.000000
    13  H    1.763172   1.767378   0.000000
    14  H    4.562938   5.263114   4.397528   0.000000
 Framework group  C1[X(C4H8O2)]
 Deg. of freedom    36
                         Standard orientation:                         
 ---------------------------------------------------------------------
 Center     Atomic      Atomic             Coordinates (Angstroms)
 Number     Number       Type             X           Y           Z
 ---------------------------------------------------------------------
      1          6           0        1.151360    1.274440    0.536623
      2          6           0        0.625894    0.195819   -0.417228
      3          6           0        1.516876   -1.041967   -0.392504
      4          6           0       -0.776557   -0.157884    0.028377
      5          8           0       -1.700688    0.562135   -0.623573
      6          8           0       -1.066044   -0.955323    0.878104
      7          1           0        0.515489    2.156262    0.506685
      8          1           0        2.159417    1.562461    0.248805
      9          1           0        1.174208    0.892340    1.554704
     10          1           0        0.564987    0.608783   -1.427739
     11          1           0        1.487821   -1.495587    0.594955
     12          1           0        2.542722   -0.771237   -0.628592
     13          1           0        1.173584   -1.776443   -1.117106
     14          1           0       -2.589804    0.346477   -0.299567
 ---------------------------------------------------------------------
 Rotational constants (GHZ):           5.0423311           2.8801898           2.3992516
   100 basis functions,   182 primitive gaussians,   106 cartesian basis functions
    24 alpha electrons       24 beta electrons
       nuclear repulsion energy       248.7986729865 Hartrees.
 NAtoms=   14 NActive=   14 NUniq=   14 SFac= 1.00D+00 NAtFMM=   60 NAOKFM=F Big=F
 Nuclear repulsion after empirical dispersion term =      248.7922347465 Hartrees.
   1 Symmetry operations used in ECPInt.
 ECPInt:  NShTT=    1378 NPrTT=    5562 LenC2=    1374 LenP2D=    4583.
 LDataN:  DoStor=T MaxTD1= 4 Len=   56
 ExpMin= 1.22D-01 ExpMax= 2.27D+03 ExpMxC= 3.41D+02 IAcc=3 IRadAn=         5 AccDes= 0.00D+00
 Harris functional with IExCor= 4639 and IRadAn=       5 diagonalized for initial guess.
 HarFok:  IExCor= 4639 AccDes= 0.00D+00 IRadAn=         5 IDoV= 1 UseB2=F ITyADJ=14
 ICtDFT=  3500011 ScaDFX=  1.000000  1.000000  1.000000  1.000000
 FoFCou: FMM=F IPFlag=           0 FMFlag=      100000 FMFlg1=           0
         NFxFlg=           0 DoJE=T BraDBF=F KetDBF=T FulRan=T
         wScrn=  0.000000 ICntrl=       500 IOpCl=  0 I1Cent=   200000004 NGrid=           0
         NMat0=    1 NMatS0=      1 NMatT0=    0 NMatD0=    1 NMtDS0=    0 NMtDT0=    0
 Petite list used in FoFCou.
     Accept linear search using points  2 and  3.
     Accept linear search using points  1 and  2.
     Accept linear search using points  2 and  3.
     Minimum is close to point  2 DX=  7.65D-04 DF= -5.97D-12 DXR=  7.64D-04 DFR=  5.79D-07 which will be used.
 SCF Done:  E(RwB97XD) =  -307.370994917     a.u. after    8 cycles
            Convg  =    0.1241D-09                    39 Fock formations.
              S**2 =  0.0000                  -V/T =  2.0084

 **********************************************************************

            Population analysis using the SCF Density.

 **********************************************************************

 Orbital symmetries:
       Occupied  (A) (A) (A) (A) (A) (A) (A) (A) (A) (A) (A) (A)
                 (A) (A) (A) (A) (A) (A) (A) (A) (A) (A) (A) (A)
       Virtual   (A) (A) (A) (A) (A) (A) (A) (A) (A) (A) (A) (A)
                 (A) (A) (A) (A) (A) (A) (A) (A) (A) (A) (A) (A)
                 (A) (A) (A) (A) (A) (A) (A) (A) (A) (A) (A) (A)
                 (A) (A) (A) (A) (A) (A) (A) (A) (A) (A) (A) (A)
                 (A) (A) (A) (A) (A) (A) (A) (A) (A) (A) (A) (A)
                 (A) (A) (A) (A) (A) (A) (A) (A) (A) (A) (A) (A)
                 (A) (A) (A) (A)
 The electronic state is 1-A.
 Alpha  occ. eigenvalues --  -19.30175 -19.24302 -10.42616 -10.31180 -10.28955
 Alpha  occ. eigenvalues --  -10.28198  -1.20310  -1.10662  -0.90767  -0.78565
 Alpha  occ. eigenvalues --   -0.76167  -0.66587  -0.59938  -0.56766  -0.55372
 Alpha  occ. eigenvalues --   -0.53465  -0.50282  -0.48759  -0.47687  -0.44675
 Alpha  occ. eigenvalues --   -0.43393  -0.42924  -0.40586  -0.35919
 Alpha virt. eigenvalues --    0.08974   0.13427   0.15031   0.18849   0.19947
 Alpha virt. eigenvalues --    0.20324   0.22587   0.24292   0.25227   0.26946
 Alpha virt. eigenvalues --    0.29177   0.33096   0.38237   0.41461   0.47990
 Alpha virt. eigenvalues --    0.51352   0.54390   0.56123   0.58288   0.63373
 Alpha virt. eigenvalues --    0.68252   0.68777   0.71968   0.74079   0.75093
 Alpha virt. eigenvalues --    0.76256   0.77633   0.79214   0.79861   0.80554
 Alpha virt. eigenvalues --    0.81140   0.81947   0.83499   0.84069   0.87765
 Alpha virt. eigenvalues --    0.98994   1.02773   1.04675   1.08538   1.11449
 Alpha virt. eigenvalues --    1.15693   1.23617   1.28086   1.38235   1.44572
 Alpha virt. eigenvalues --    1.54989   1.60416   1.67353   1.74329   1.81100
 Alpha virt. eigenvalues --    1.84243   1.87245   1.98845   1.99923   2.04253
 Alpha virt. eigenvalues --    2.10746   2.13877   2.15797   2.24267   2.24826
 Alpha virt. eigenvalues --    2.29706   2.46672   2.48325   2.49979   2.62454
 Alpha virt. eigenvalues --    2.67716   2.71561   2.74535   2.80063   2.95041
 Alpha virt. eigenvalues --    3.01954   3.13479   3.29023   3.37183   3.65835
 Alpha virt. eigenvalues --    3.73042
          Condensed to atoms (all electrons):
 Mulliken charges:
               1
     1  C   -0.299371
     2  C   -0.232172
     3  C   -0.279109
     4  C    0.202649
     5  O   -0.368245
     6  O   -0.239644
     7  H    0.130039
     8  H    0.128623
     9  H    0.129417
    10  H    0.116979
    11  H    0.133952
    12  H    0.117329
    13  H    0.123234
    14  H    0.336319
 Sum of Mulliken charges =   0.00000
 Mulliken charges with hydrogens summed into heavy atoms:
               1
     1  C    0.088708
     2  C   -0.115193
     3  C    0.095406
     4  C    0.202649
     5  O   -0.031926
     6  O   -0.239644
 Electronic spatial extent (au):  <R**2>=            594.9462
 Charge=              0.0000 electrons
 Dipole moment (field-independent basis, Debye):
    X=              0.1578    Y=              1.1920    Z=             -1.0021  Tot=              1.5652
 Evaluate density.
 Using the total density.
 Monte-Carlo method of calculating molar volume:
 based on  0.001 e/bohr**3 density envelope.
 Number of points per bohr**3 =  100 CutOff= 1.00D-04
 Using the SCF density.
 There are      1654 points.  Will hold      1654 in memory.
 LenV=  1048383339 MDV=  1048576000.
 Box volume = 4532.344 fraction occupied=0.171
 Integrated density= 3.6503629690164814D+01 error=-1.1496370309835186D+01
 Molar volume =  775.486 bohr**3/mol ( 69.204 cm**3/mol)
 Recommended a0 for SCRF calculation =  3.82 angstrom (  7.22 bohr)
   1 Symmetry operations used in ECPInt.
 ECPInt:  NShTT=    1378 NPrTT=    5562 LenC2=    1374 LenP2D=    4583.
 LDataN:  DoStor=T MaxTD1= 5 Len=  102
 Calling FoFJK, ICntrl=      2127 FMM=F ISym2X=0 I1Cent= 0 IOpClX= 0 NMat=1 NMatS=1 NMatT=0.

 GradGradGradGradGradGradGradGradGradGradGradGradGradGradGradGradGradGrad
 FormGI is forming the generalized inverse of G from B-inverse, IUseBI=4.
 Internal  Forces:  Max     0.010892318 RMS     0.003810150
 Step number   1 out of a maximum of   71
 All quantities printed in internal units (Hartrees-Bohrs-Radians)
 Mixed Optimization -- RFO/linear search
 Second derivative matrix not updated -- first step.
 ITU=  0
     Eigenvalues ---    0.00333   0.00431   0.00588   0.01033   0.02476
     Eigenvalues ---    0.04248   0.04615   0.05608   0.05670   0.05694
     Eigenvalues ---    0.05752   0.05930   0.16000   0.16000   0.16000
     Eigenvalues ---    0.16000   0.16000   0.16000   0.16000   0.16331
     Eigenvalues ---    0.17423   0.24994   0.25000   0.29170   0.29861
     Eigenvalues ---    0.31006   0.34430   0.35084   0.35093   0.35119
     Eigenvalues ---    0.35140   0.35155   0.35171   0.53260   0.57048
     Eigenvalues ---    1.04458
 Linear search not attempted -- first point.
 Iteration  1 RMS(Cart)=  0.02493301 RMS(Int)=  0.00055212
 Iteration  2 RMS(Cart)=  0.00069306 RMS(Int)=  0.00010834
 Iteration  3 RMS(Cart)=  0.00000073 RMS(Int)=  0.00010833
 Variable       Old X    -DE/DX   Delta X   Delta X   Delta X     New X
                                 (Linear)    (Quad)   (Total)
    R1        2.89651   0.00453   0.00000   0.01535   0.01535   2.91186
    R2        2.05524   0.01053   0.00000   0.02973   0.02973   2.08497
    R3        2.05448   0.01079   0.00000   0.03044   0.03044   2.08492
    R4        2.05539   0.01067   0.00000   0.03014   0.03014   2.08552
    R5        2.88242   0.00305   0.00000   0.01011   0.01011   2.89254
    R6        2.86001   0.00191   0.00000   0.00609   0.00609   2.86610
    R7        2.06610   0.00537   0.00000   0.01545   0.01545   2.08155
    R8        2.05424   0.01036   0.00000   0.02922   0.02922   2.08346
    R9        2.05398   0.01089   0.00000   0.03069   0.03069   2.08467
   R10        2.05481   0.01067   0.00000   0.03010   0.03010   2.08492
   R11        2.53356   0.00185   0.00000   0.00323   0.00323   2.53679
   R12        2.26905   0.00314   0.00000   0.00300   0.00300   2.27205
   R13        1.83412   0.00158   0.00000   0.00295   0.00295   1.83707
    A1        1.93158   0.00193   0.00000   0.01254   0.01250   1.94408
    A2        1.91724   0.00081   0.00000   0.00414   0.00413   1.92137
    A3        1.92035   0.00064   0.00000   0.00401   0.00398   1.92434
    A4        1.89655  -0.00141   0.00000  -0.00879  -0.00882   1.88773
    A5        1.89958  -0.00114   0.00000  -0.00545  -0.00549   1.89408
    A6        1.89800  -0.00091   0.00000  -0.00702  -0.00702   1.89097
    A7        1.93983   0.00112   0.00000   0.01419   0.01401   1.95384
    A8        1.87435   0.00108   0.00000   0.01548   0.01530   1.88965
    A9        1.90547  -0.00102   0.00000  -0.01314  -0.01303   1.89245
   A10        1.92502  -0.00053   0.00000   0.00517   0.00486   1.92988
   A11        1.93267  -0.00023   0.00000  -0.00919  -0.00913   1.92354
   A12        1.88470  -0.00044   0.00000  -0.01270  -0.01263   1.87207
   A13        1.91531   0.00105   0.00000   0.00688   0.00684   1.92216
   A14        1.92374   0.00012   0.00000  -0.00010  -0.00010   1.92364
   A15        1.93149   0.00212   0.00000   0.01336   0.01332   1.94481
   A16        1.90337  -0.00068   0.00000  -0.00485  -0.00485   1.89852
   A17        1.89128  -0.00142   0.00000  -0.00712  -0.00719   1.88409
   A18        1.89808  -0.00127   0.00000  -0.00866  -0.00866   1.88942
   A19        1.94986   0.00113   0.00000   0.00408   0.00371   1.95357
   A20        2.19812  -0.00210   0.00000  -0.00869  -0.00905   2.18907
   A21        2.13484   0.00095   0.00000   0.00334   0.00296   2.13781
   A22        1.92813  -0.00935   0.00000  -0.05731  -0.05731   1.87081
    D1        3.13325  -0.00035   0.00000  -0.00663  -0.00671   3.12654
    D2       -1.04295   0.00035   0.00000   0.01798   0.01806  -1.02488
    D3        0.99631  -0.00011   0.00000   0.00452   0.00452   1.00082
    D4        1.03903  -0.00034   0.00000  -0.00633  -0.00642   1.03261
    D5       -3.13717   0.00037   0.00000   0.01828   0.01836  -3.11881
    D6       -1.09791  -0.00010   0.00000   0.00482   0.00481  -1.09310
    D7       -1.04993  -0.00012   0.00000  -0.00276  -0.00283  -1.05275
    D8        1.05706   0.00058   0.00000   0.02186   0.02195   1.07901
    D9        3.09632   0.00012   0.00000   0.00840   0.00840   3.10472
   D10        1.11768   0.00057   0.00000  -0.00327  -0.00326   1.11442
   D11       -0.97882   0.00067   0.00000  -0.00157  -0.00155  -0.98037
   D12       -3.07911   0.00080   0.00000   0.00066   0.00070  -3.07840
   D13       -0.95918  -0.00116   0.00000  -0.03496  -0.03499  -0.99418
   D14       -3.05568  -0.00105   0.00000  -0.03326  -0.03328  -3.08896
   D15        1.12722  -0.00092   0.00000  -0.03103  -0.03103   1.09619
   D16       -3.04438  -0.00012   0.00000  -0.01660  -0.01662  -3.06100
   D17        1.14231  -0.00002   0.00000  -0.01490  -0.01491   1.12740
   D18       -0.95798   0.00012   0.00000  -0.01267  -0.01266  -0.97064
   D19        1.62765  -0.00140   0.00000  -0.06265  -0.06263   1.56502
   D20       -1.48547  -0.00074   0.00000  -0.01288  -0.01297  -1.49844
   D21       -2.53921   0.00033   0.00000  -0.03266  -0.03258  -2.57180
   D22        0.63085   0.00099   0.00000   0.01711   0.01708   0.64793
   D23       -0.42517  -0.00055   0.00000  -0.04878  -0.04871  -0.47387
   D24        2.74490   0.00011   0.00000   0.00099   0.00096   2.74585
   D25       -3.10258   0.00060   0.00000   0.03321   0.03335  -3.06922
   D26        0.01174  -0.00009   0.00000  -0.01470  -0.01484  -0.00310
         Item               Value     Threshold  Converged?
 Maximum Force            0.010892     0.000015     NO 
 RMS     Force            0.003810     0.000010     NO 
 Maximum Displacement     0.075178     0.000060     NO 
 RMS     Displacement     0.024838     0.000040     NO 
 GradGradGradGradGradGradGradGradGradGradGradGradGradGradGradGradGradGrad

                    Distance matrix (angstroms):
                    1          2          3          4          5
     1  C    0.000000
     2  C    1.540888   0.000000
     3  C    2.545643   1.530665   0.000000
     4  C    2.477870   1.516674   2.504974   0.000000
     5  O    3.150572   2.371337   3.625241   1.342411   0.000000
     6  O    3.188307   2.420701   2.888805   1.202314   2.231912
     7  H    1.103316   2.198092   3.509230   2.728241   2.941692
     8  H    1.103294   2.181582   2.791177   3.445144   4.086749
     9  H    1.103610   2.183991   2.803068   2.736862   3.632739
    10  H    2.158889   1.101510   2.172838   2.122522   2.413442
    11  H    2.826758   2.172588   1.102519   2.730179   4.031384
    12  H    2.766954   2.174152   1.103161   3.464251   4.475841
    13  H    3.510790   2.189563   1.103291   2.796958   3.781775
    14  H    3.913181   3.204925   4.329274   1.875760   0.972138
                    6          7          8          9         10
     6  O    0.000000
     7  H    3.546369   0.000000
     8  H    4.179987   1.786980   0.000000
     9  H    3.029684   1.791341   1.789317   0.000000
    10  H    3.228318   2.497931   2.512772   3.079749   0.000000
    11  H    2.661285   3.834149   3.191588   2.635352   3.085507
    12  H    3.943676   3.783818   2.556302   3.113988   2.545041
    13  H    3.116295   4.361812   3.790120   3.830179   2.506017
    14  H    2.277099   3.656782   4.921252   4.207518   3.364233
                   11         12         13         14
    11  H    0.000000
    12  H    1.793185   0.000000
    13  H    1.783978   1.787946   0.000000
    14  H    4.569704   5.268097   4.413029   0.000000
 Framework group  C1[X(C4H8O2)]
 Deg. of freedom    36
                         Standard orientation:                         
 ---------------------------------------------------------------------
 Center     Atomic      Atomic             Coordinates (Angstroms)
 Number     Number       Type             X           Y           Z
 ---------------------------------------------------------------------
      1          6           0        1.141070    1.298137    0.529761
      2          6           0        0.628242    0.187910   -0.407650
      3          6           0        1.531331   -1.047618   -0.378770
      4          6           0       -0.783635   -0.173965    0.011815
      5          8           0       -1.701720    0.574639   -0.619674
      6          8           0       -1.074893   -0.969570    0.864892
      7          1           0        0.492228    2.189625    0.490262
      8          1           0        2.160326    1.601404    0.235819
      9          1           0        1.173707    0.934124    1.571099
     10          1           0        0.571539    0.594012   -1.429996
     11          1           0        1.521791   -1.501208    0.626075
     12          1           0        2.567931   -0.768144   -0.632385
     13          1           0        1.192990   -1.811158   -1.099729
     14          1           0       -2.569653    0.334020   -0.253823
 ---------------------------------------------------------------------
 Rotational constants (GHZ):           4.9789615           2.8771042           2.3663618
   100 basis functions,   182 primitive gaussians,   106 cartesian basis functions
    24 alpha electrons       24 beta electrons
       nuclear repulsion energy       247.6571904162 Hartrees.
 NAtoms=   14 NActive=   14 NUniq=   14 SFac= 1.00D+00 NAtFMM=   60 NAOKFM=F Big=F
 Nuclear repulsion after empirical dispersion term =      247.6507535204 Hartrees.
   1 Symmetry operations used in ECPInt.
 ECPInt:  NShTT=    1378 NPrTT=    5562 LenC2=    1374 LenP2D=    4573.
 LDataN:  DoStor=T MaxTD1= 4 Len=   56
 Initial guess from the checkpoint file:  "monomer.chk"
 B after Tr=    -0.000000   -0.000000   -0.000000
         Rot=    0.999996    0.001539    0.001679   -0.001925 Ang=   0.34 deg.
 ExpMin= 1.22D-01 ExpMax= 2.27D+03 ExpMxC= 3.41D+02 IAcc=3 IRadAn=         5 AccDes= 0.00D+00
 Harris functional with IExCor= 4639 and IRadAn=       5 diagonalized for initial guess.
 HarFok:  IExCor= 4639 AccDes= 0.00D+00 IRadAn=         5 IDoV= 1 UseB2=F ITyADJ=14
 ICtDFT=  3500011 ScaDFX=  1.000000  1.000000  1.000000  1.000000
 FoFCou: FMM=F IPFlag=           0 FMFlag=      100000 FMFlg1=           0
         NFxFlg=           0 DoJE=T BraDBF=F KetDBF=T FulRan=T
         wScrn=  0.000000 ICntrl=       500 IOpCl=  0 I1Cent=   200000004 NGrid=           0
         NMat0=    1 NMatS0=      1 NMatT0=    0 NMatD0=    1 NMtDS0=    0 NMtDT0=    0
 Petite list used in FoFCou.
     Accept linear search using points  3 and  4.
     Minimum is close to point  3 DX=  3.93D-02 DF= -2.64D-07 DXR=  3.45D-02 DFR=  1.19D-03 which will be used.
     Accept linear search using points  1 and  2.
     Accept linear search using points  1 and  2.
     Minimum is close to point  2 DX= -4.59D-05 DF= -1.71D-13 DXR=  4.59D-05 DFR=  1.95D-09 which will be used.
 SCF Done:  E(RwB97XD) =  -307.372439479     a.u. after    6 cycles
            Convg  =    0.4273D-08                    33 Fock formations.
              S**2 =  0.0000                  -V/T =  2.0089
   1 Symmetry operations used in ECPInt.
 ECPInt:  NShTT=    1378 NPrTT=    5562 LenC2=    1374 LenP2D=    4573.
 LDataN:  DoStor=T MaxTD1= 5 Len=  102
 Calling FoFJK, ICntrl=      2127 FMM=F ISym2X=0 I1Cent= 0 IOpClX= 0 NMat=1 NMatS=1 NMatT=0.

 GradGradGradGradGradGradGradGradGradGradGradGradGradGradGradGradGradGrad
 Using GEDIIS/GDIIS optimizer.
 FormGI is forming the generalized inverse of G from B-inverse, IUseBI=4.
 Internal  Forces:  Max     0.002340044 RMS     0.000683677
 Step number   2 out of a maximum of   71
 All quantities printed in internal units (Hartrees-Bohrs-Radians)
 Mixed Optimization -- En-DIIS/RFO-DIIS
 Trust test= 8.94D-01 RLast= 1.60D-01 DXMaxT set to 4.79D-01
 ITU=  1  0
 Use linear search instead of GDIIS.
     Eigenvalues ---    0.00332   0.00429   0.00578   0.01186   0.02477
     Eigenvalues ---    0.04085   0.04655   0.05505   0.05584   0.05650
     Eigenvalues ---    0.05698   0.05989   0.15626   0.16000   0.16000
     Eigenvalues ---    0.16000   0.16000   0.16000   0.16196   0.16713
     Eigenvalues ---    0.17648   0.24746   0.25078   0.29340   0.29865
     Eigenvalues ---    0.31034   0.34086   0.34984   0.35105   0.35122
     Eigenvalues ---    0.35143   0.35164   0.35510   0.53289   0.57001
     Eigenvalues ---    1.04392
 Quartic linear search produced a step of -0.06998.
 Iteration  1 RMS(Cart)=  0.03242441 RMS(Int)=  0.00165890
 Iteration  2 RMS(Cart)=  0.00168827 RMS(Int)=  0.00084165
 Iteration  3 RMS(Cart)=  0.00000156 RMS(Int)=  0.00084165
 Iteration  4 RMS(Cart)=  0.00000000 RMS(Int)=  0.00084165
 Variable       Old X    -DE/DX   Delta X   Delta X   Delta X     New X
                                 (Linear)    (Quad)   (Total)
    R1        2.91186  -0.00234  -0.00107  -0.00259  -0.00366   2.90819
    R2        2.08497  -0.00029  -0.00208   0.00865   0.00657   2.09154
    R3        2.08492  -0.00010  -0.00213   0.00938   0.00725   2.09217
    R4        2.08552   0.00009  -0.00211   0.00979   0.00768   2.09320
    R5        2.89254  -0.00184  -0.00071  -0.00253  -0.00323   2.88930
    R6        2.86610  -0.00017  -0.00043   0.00141   0.00098   2.86708
    R7        2.08155   0.00052  -0.00108   0.00629   0.00521   2.08676
    R8        2.08346   0.00001  -0.00204   0.00929   0.00725   2.09071
    R9        2.08467   0.00002  -0.00215   0.00978   0.00763   2.09231
   R10        2.08492  -0.00023  -0.00211   0.00894   0.00683   2.09175
   R11        2.53679   0.00107  -0.00023   0.00277   0.00254   2.53933
   R12        2.27205   0.00024  -0.00021   0.00116   0.00095   2.27300
   R13        1.83707   0.00158  -0.00021   0.00369   0.00348   1.84055
    A1        1.94408  -0.00025  -0.00088   0.00242   0.00154   1.94562
    A2        1.92137  -0.00020  -0.00029  -0.00012  -0.00041   1.92096
    A3        1.92434   0.00047  -0.00028   0.00428   0.00400   1.92834
    A4        1.88773   0.00016   0.00062  -0.00252  -0.00190   1.88583
    A5        1.89408  -0.00006   0.00038  -0.00166  -0.00127   1.89281
    A6        1.89097  -0.00011   0.00049  -0.00269  -0.00220   1.88877
    A7        1.95384  -0.00012  -0.00098   0.00294   0.00195   1.95580
    A8        1.88965  -0.00019  -0.00107   0.00388   0.00281   1.89246
    A9        1.89245  -0.00003   0.00091  -0.00637  -0.00547   1.88698
   A10        1.92988   0.00030  -0.00034   0.00387   0.00354   1.93342
   A11        1.92354  -0.00010   0.00064  -0.00400  -0.00336   1.92018
   A12        1.87207   0.00015   0.00088  -0.00052   0.00037   1.87244
   A13        1.92216   0.00046  -0.00048   0.00507   0.00459   1.92674
   A14        1.92364   0.00025   0.00001   0.00145   0.00145   1.92509
   A15        1.94481  -0.00017  -0.00093   0.00292   0.00198   1.94679
   A16        1.89852  -0.00029   0.00034  -0.00266  -0.00233   1.89619
   A17        1.88409  -0.00016   0.00050  -0.00332  -0.00282   1.88127
   A18        1.88942  -0.00010   0.00061  -0.00381  -0.00321   1.88621
   A19        1.95357   0.00145  -0.00026   0.01027   0.00622   1.95979
   A20        2.18907   0.00044   0.00063   0.00225  -0.00091   2.18816
   A21        2.13781  -0.00174  -0.00021  -0.00155  -0.00555   2.13226
   A22        1.87081   0.00022   0.00401  -0.01684  -0.01283   1.85799
    D1        3.12654  -0.00017   0.00047  -0.00027   0.00021   3.12674
    D2       -1.02488   0.00001  -0.00126   0.00913   0.00786  -1.01703
    D3        1.00082   0.00006  -0.00032   0.00720   0.00688   1.00770
    D4        1.03261  -0.00007   0.00045   0.00141   0.00186   1.03447
    D5       -3.11881   0.00010  -0.00128   0.01080   0.00951  -3.10930
    D6       -1.09310   0.00016  -0.00034   0.00887   0.00853  -1.08457
    D7       -1.05275  -0.00010   0.00020   0.00212   0.00232  -1.05043
    D8        1.07901   0.00007  -0.00154   0.01151   0.00998   1.08899
    D9        3.10472   0.00013  -0.00059   0.00959   0.00900   3.11372
   D10        1.11442  -0.00002   0.00023  -0.01305  -0.01282   1.10159
   D11       -0.98037  -0.00011   0.00011  -0.01390  -0.01379  -0.99416
   D12       -3.07840  -0.00004  -0.00005  -0.01198  -0.01202  -3.09043
   D13       -0.99418   0.00010   0.00245  -0.02266  -0.02021  -1.01439
   D14       -3.08896   0.00001   0.00233  -0.02351  -0.02118  -3.11014
   D15        1.09619   0.00008   0.00217  -0.02159  -0.01942   1.07677
   D16       -3.06100  -0.00021   0.00116  -0.02192  -0.02076  -3.08176
   D17        1.12740  -0.00030   0.00104  -0.02277  -0.02172   1.10568
   D18       -0.97064  -0.00023   0.00089  -0.02085  -0.01996  -0.99059
   D19        1.56502   0.00079   0.00438   0.03288   0.03725   1.60227
   D20       -1.49844  -0.00126   0.00091  -0.12343  -0.12251  -1.62095
   D21       -2.57180   0.00071   0.00228   0.04157   0.04383  -2.52797
   D22        0.64793  -0.00134  -0.00119  -0.11475  -0.11592   0.53200
   D23       -0.47387   0.00085   0.00341   0.03863   0.04202  -0.43186
   D24        2.74585  -0.00120  -0.00007  -0.11769  -0.11774   2.62811
   D25       -3.06922  -0.00103  -0.00233  -0.07234  -0.07444   3.13952
   D26       -0.00310   0.00106   0.00104   0.07884   0.07965   0.07655
         Item               Value     Threshold  Converged?
 Maximum Force            0.002340     0.000015     NO 
 RMS     Force            0.000684     0.000010     NO 
 Maximum Displacement     0.110398     0.000060     NO 
 RMS     Displacement     0.032104     0.000040     NO 
 GradGradGradGradGradGradGradGradGradGradGradGradGradGradGradGradGradGrad

                    Distance matrix (angstroms):
                    1          2          3          4          5
     1  C    0.000000
     2  C    1.538949   0.000000
     3  C    2.544294   1.528954   0.000000
     4  C    2.479224   1.517195   2.507055   0.000000
     5  O    3.179433   2.377809   3.618915   1.343755   0.000000
     6  O    3.244575   2.421052   2.860710   1.202818   2.230150
     7  H    1.106793   2.200125   3.511352   2.729136   2.980497
     8  H    1.107130   2.182448   2.792547   3.449320   4.111756
     9  H    1.107674   2.188259   2.806533   2.748527   3.674603
    10  H    2.155133   1.104267   2.170948   2.125269   2.412872
    11  H    2.825679   2.177308   1.106355   2.747632   4.045609
    12  H    2.775413   2.176742   1.107200   3.470437   4.473426
    13  H    3.513480   2.192225   1.106906   2.793908   3.758395
    14  H    3.959595   3.206898   4.306186   1.869698   0.973980
                    6          7          8          9         10
     6  O    0.000000
     7  H    3.614214   0.000000
     8  H    4.229406   1.791668   0.000000
     9  H    3.117733   1.796637   1.794294   0.000000
    10  H    3.214780   2.498201   2.506007   3.083522   0.000000
    11  H    2.666681   3.838325   3.189979   2.635752   3.091198
    12  H    3.932711   3.794116   2.564783   3.129190   2.537206
    13  H    3.039111   4.367565   3.798047   3.835297   2.513413
    14  H    2.262852   3.725256   4.962491   4.271131   3.357944
                   11         12         13         14
    11  H    0.000000
    12  H    1.798085   0.000000
    13  H    1.788168   1.792066   0.000000
    14  H    4.571405   5.253638   4.356235   0.000000
 Framework group  C1[X(C4H8O2)]
 Deg. of freedom    36
                         Standard orientation:                         
 ---------------------------------------------------------------------
 Center     Atomic      Atomic             Coordinates (Angstroms)
 Number     Number       Type             X           Y           Z
 ---------------------------------------------------------------------
      1          6           0        1.201420    1.280641    0.518482
      2          6           0        0.629758    0.183455   -0.396805
      3          6           0        1.489356   -1.080908   -0.383522
      4          6           0       -0.786998   -0.124231    0.050421
      5          8           0       -1.699323    0.616595   -0.601128
      6          8           0       -1.099629   -0.985552    0.829626
      7          1           0        0.580427    2.196361    0.489946
      8          1           0        2.225198    1.550199    0.194518
      9          1           0        1.252268    0.924069    1.565961
     10          1           0        0.569368    0.588737   -1.422234
     11          1           0        1.503861   -1.526632    0.628971
     12          1           0        2.528995   -0.841714   -0.679882
     13          1           0        1.099794   -1.844629   -1.083674
     14          1           0       -2.569505    0.351525   -0.253051
 ---------------------------------------------------------------------
 Rotational constants (GHZ):           4.9752908           2.8839572           2.3374250
   100 basis functions,   182 primitive gaussians,   106 cartesian basis functions
    24 alpha electrons       24 beta electrons
       nuclear repulsion energy       247.3441795495 Hartrees.
 NAtoms=   14 NActive=   14 NUniq=   14 SFac= 1.00D+00 NAtFMM=   60 NAOKFM=F Big=F
 Nuclear repulsion after empirical dispersion term =      247.3377601343 Hartrees.
   1 Symmetry operations used in ECPInt.
 ECPInt:  NShTT=    1378 NPrTT=    5562 LenC2=    1374 LenP2D=    4570.
 LDataN:  DoStor=T MaxTD1= 4 Len=   56
 Initial guess from the checkpoint file:  "monomer.chk"
 B after Tr=    -0.000000   -0.000000    0.000000
         Rot=    0.999912   -0.003631   -0.003891    0.012163 Ang=  -1.52 deg.
 ExpMin= 1.22D-01 ExpMax= 2.27D+03 ExpMxC= 3.41D+02 IAcc=3 IRadAn=         5 AccDes= 0.00D+00
 Harris functional with IExCor= 4639 and IRadAn=       5 diagonalized for initial guess.
 HarFok:  IExCor= 4639 AccDes= 0.00D+00 IRadAn=         5 IDoV= 1 UseB2=F ITyADJ=14
 ICtDFT=  3500011 ScaDFX=  1.000000  1.000000  1.000000  1.000000
 FoFCou: FMM=F IPFlag=           0 FMFlag=      100000 FMFlg1=           0
         NFxFlg=           0 DoJE=T BraDBF=F KetDBF=T FulRan=T
         wScrn=  0.000000 ICntrl=       500 IOpCl=  0 I1Cent=   200000004 NGrid=           0
         NMat0=    1 NMatS0=      1 NMatT0=    0 NMatD0=    1 NMtDS0=    0 NMtDT0=    0
 Petite list used in FoFCou.
     Accept linear search using points  3 and  4.
     Accept linear search using points  2 and  3.
     Minimum is close to point  2 DX=  7.60D-02 DF= -2.98D-06 DXR=  7.79D-02 DFR=  6.10D-03 which will be used.
     Minimum is close to point  2 DX=  1.87D-02 DF= -1.07D-07 DXR=  2.04D-02 DFR=  4.15D-04 which will be used.
     Accept linear search using points  1 and  2.
     Minimum is close to point  2 DX= -3.92D-02 DF= -2.52D-07 DXR=  4.55D-02 DFR=  1.68D-03 which will be used.
     Accept linear search using points  1 and  2.
     Accept linear search using points  1 and  2.
     Accept linear search using points  1 and  2.
     Minimum is close to point  2 DX= -3.80D-04 DF= -1.34D-11 DXR=  3.80D-04 DFR=  1.45D-07 which will be used.
 SCF Done:  E(RwB97XD) =  -307.371831201     a.u. after   11 cycles
            Convg  =    0.7315D-08                    42 Fock formations.
              S**2 =  0.0000                  -V/T =  2.0090
   1 Symmetry operations used in ECPInt.
 ECPInt:  NShTT=    1378 NPrTT=    5562 LenC2=    1374 LenP2D=    4570.
 LDataN:  DoStor=T MaxTD1= 5 Len=  102
 Calling FoFJK, ICntrl=      2127 FMM=F ISym2X=0 I1Cent= 0 IOpClX= 0 NMat=1 NMatS=1 NMatT=0.

 GradGradGradGradGradGradGradGradGradGradGradGradGradGradGradGradGradGrad
 Using GEDIIS/GDIIS optimizer.
 FormGI is forming the generalized inverse of G from B-inverse, IUseBI=4.
 Internal  Forces:  Max     0.003357957 RMS     0.001448183
 Step number   3 out of a maximum of   71
 All quantities printed in internal units (Hartrees-Bohrs-Radians)
 Mixed Optimization -- RFO/linear search
 Trust test=-1.47D+00 RLast= 2.52D-01 DXMaxT set to 2.40D-01
 ITU= -1  1  0
 Use linear search instead of GDIIS.
     Eigenvalues ---    0.00332   0.00421   0.00540   0.02477   0.03963
     Eigenvalues ---    0.04482   0.05299   0.05489   0.05564   0.05636
     Eigenvalues ---    0.05662   0.06001   0.15663   0.16000   0.16000
     Eigenvalues ---    0.16000   0.16000   0.16045   0.16172   0.16966
     Eigenvalues ---    0.17859   0.24378   0.25022   0.28974   0.29683
     Eigenvalues ---    0.31017   0.34312   0.35045   0.35105   0.35125
     Eigenvalues ---    0.35148   0.35164   0.35642   0.52963   0.56870
     Eigenvalues ---    1.04392
 Quartic linear search produced a step of -0.72171.
 Iteration  1 RMS(Cart)=  0.02727881 RMS(Int)=  0.00066539
 Iteration  2 RMS(Cart)=  0.00097391 RMS(Int)=  0.00016836
 Iteration  3 RMS(Cart)=  0.00000036 RMS(Int)=  0.00016836
 Variable       Old X    -DE/DX   Delta X   Delta X   Delta X     New X
                                 (Linear)    (Quad)   (Total)
    R1        2.90819  -0.00070   0.00264  -0.00691  -0.00426   2.90393
    R2        2.09154  -0.00241  -0.00474  -0.00173  -0.00648   2.08506
    R3        2.09217  -0.00245  -0.00523  -0.00129  -0.00652   2.08565
    R4        2.09320  -0.00237  -0.00554  -0.00078  -0.00632   2.08688
    R5        2.88930  -0.00182   0.00233  -0.00654  -0.00420   2.88510
    R6        2.86708  -0.00049  -0.00071  -0.00073  -0.00144   2.86564
    R7        2.08676  -0.00129  -0.00376   0.00067  -0.00309   2.08367
    R8        2.09071  -0.00249  -0.00523  -0.00108  -0.00631   2.08439
    R9        2.09231  -0.00251  -0.00551  -0.00104  -0.00655   2.08576
   R10        2.09175  -0.00258  -0.00493  -0.00170  -0.00663   2.08512
   R11        2.53933   0.00020  -0.00183   0.00176  -0.00008   2.53925
   R12        2.27300  -0.00025  -0.00069   0.00021  -0.00048   2.27252
   R13        1.84055   0.00009  -0.00251   0.00260   0.00009   1.84064
    A1        1.94562  -0.00040  -0.00111  -0.00177  -0.00288   1.94275
    A2        1.92096   0.00047   0.00030  -0.00026   0.00004   1.92099
    A3        1.92834   0.00017  -0.00289   0.00312   0.00023   1.92857
    A4        1.88583  -0.00002   0.00137  -0.00000   0.00137   1.88720
    A5        1.89281   0.00005   0.00092  -0.00015   0.00077   1.89358
    A6        1.88877  -0.00028   0.00159  -0.00100   0.00059   1.88936
    A7        1.95580  -0.00066  -0.00141  -0.00149  -0.00289   1.95291
    A8        1.89246   0.00149  -0.00203   0.00233   0.00031   1.89277
    A9        1.88698  -0.00016   0.00395  -0.00229   0.00166   1.88863
   A10        1.93342  -0.00080  -0.00255   0.00098  -0.00157   1.93185
   A11        1.92018   0.00061   0.00243  -0.00064   0.00179   1.92196
   A12        1.87244  -0.00045  -0.00027   0.00119   0.00091   1.87335
   A13        1.92674   0.00033  -0.00331   0.00343   0.00012   1.92687
   A14        1.92509  -0.00038  -0.00105   0.00068  -0.00036   1.92473
   A15        1.94679  -0.00043  -0.00143  -0.00156  -0.00299   1.94381
   A16        1.89619   0.00006   0.00168  -0.00096   0.00073   1.89692
   A17        1.88127   0.00003   0.00203  -0.00111   0.00093   1.88220
   A18        1.88621   0.00040   0.00231  -0.00060   0.00171   1.88792
   A19        1.95979   0.00004  -0.00449   0.00471   0.00093   1.96072
   A20        2.18816   0.00114   0.00066   0.00211   0.00347   2.19163
   A21        2.13226  -0.00074   0.00400  -0.00670  -0.00198   2.13028
   A22        1.85799   0.00203   0.00926   0.00299   0.01225   1.87024
    D1        3.12674   0.00025  -0.00015   0.00296   0.00281   3.12956
    D2       -1.01703  -0.00016  -0.00567   0.00484  -0.00083  -1.01786
    D3        1.00770   0.00001  -0.00497   0.00625   0.00129   1.00899
    D4        1.03447   0.00023  -0.00134   0.00428   0.00294   1.03741
    D5       -3.10930  -0.00018  -0.00686   0.00615  -0.00071  -3.11001
    D6       -1.08457  -0.00001  -0.00616   0.00757   0.00141  -1.08316
    D7       -1.05043   0.00017  -0.00168   0.00371   0.00203  -1.04840
    D8        1.08899  -0.00024  -0.00720   0.00559  -0.00162   1.08738
    D9        3.11372  -0.00007  -0.00649   0.00700   0.00051   3.11423
   D10        1.10159   0.00033   0.00925  -0.01586  -0.00660   1.09499
   D11       -0.99416   0.00029   0.00995  -0.01731  -0.00736  -1.00151
   D12       -3.09043   0.00032   0.00868  -0.01598  -0.00731  -3.09774
   D13       -1.01439  -0.00056   0.01459  -0.01851  -0.00392  -1.01831
   D14       -3.11014  -0.00061   0.01529  -0.01996  -0.00467  -3.11481
   D15        1.07677  -0.00057   0.01401  -0.01863  -0.00462   1.07215
   D16       -3.08176   0.00011   0.01498  -0.02018  -0.00520  -3.08695
   D17        1.10568   0.00007   0.01568  -0.02163  -0.00595   1.09973
   D18       -0.99059   0.00010   0.01440  -0.02030  -0.00590  -0.99649
   D19        1.60227  -0.00301  -0.02688  -0.04425  -0.07122   1.53105
   D20       -1.62095   0.00304   0.08842  -0.04298   0.04553  -1.57542
   D21       -2.52797  -0.00335  -0.03163  -0.04390  -0.07564  -2.60360
   D22        0.53200   0.00270   0.08366  -0.04264   0.04111   0.57312
   D23       -0.43186  -0.00336  -0.03032  -0.04339  -0.07380  -0.50566
   D24        2.62811   0.00269   0.08497  -0.04212   0.04294   2.67106
   D25        3.13952   0.00290   0.05373   0.00075   0.05420  -3.08946
   D26        0.07655  -0.00303  -0.05749  -0.00092  -0.05813   0.01842
         Item               Value     Threshold  Converged?
 Maximum Force            0.003358     0.000015     NO 
 RMS     Force            0.001448     0.000010     NO 
 Maximum Displacement     0.094158     0.000060     NO 
 RMS     Displacement     0.027369     0.000040     NO 
 GradGradGradGradGradGradGradGradGradGradGradGradGradGradGradGradGradGrad

                    Distance matrix (angstroms):
                    1          2          3          4          5
     1  C    0.000000
     2  C    1.536693   0.000000
     3  C    2.538102   1.526729   0.000000
     4  C    2.477048   1.516432   2.503238   0.000000
     5  O    3.137389   2.377867   3.636018   1.343715   0.000000
     6  O    3.224450   2.422265   2.870689   1.202566   2.228682
     7  H    1.103366   2.193461   3.501500   2.723471   2.916185
     8  H    1.103679   2.177908   2.785949   3.444142   4.075741
     9  H    1.104328   2.183923   2.797866   2.744400   3.622400
    10  H    2.153199   1.102630   2.169070   2.124097   2.431708
    11  H    2.814761   2.172927   1.103014   2.743984   4.049933
    12  H    2.770415   2.171915   1.103736   3.463937   4.483218
    13  H    3.503636   2.185451   1.103398   2.783532   3.795010
    14  H    3.913271   3.211479   4.333742   1.877887   0.974027
                    6          7          8          9         10
     6  O    0.000000
     7  H    3.585510   0.000000
     8  H    4.210772   1.786989   0.000000
     9  H    3.088545   1.791642   1.789171   0.000000
    10  H    3.220962   2.493067   2.502312   3.078463   0.000000
    11  H    2.672853   3.824023   3.177533   2.623323   3.086225
    12  H    3.937070   3.785330   2.561277   3.123037   2.531489
    13  H    3.054812   4.353983   3.789414   3.821647   2.509849
    14  H    2.271099   3.651707   4.921588   4.211313   3.379326
                   11         12         13         14
    11  H    0.000000
    12  H    1.793025   0.000000
    13  H    1.783237   1.787530   0.000000
    14  H    4.586346   5.271997   4.409990   0.000000
 Framework group  C1[X(C4H8O2)]
 Deg. of freedom    36
                         Standard orientation:                         
 ---------------------------------------------------------------------
 Center     Atomic      Atomic             Coordinates (Angstroms)
 Number     Number       Type             X           Y           Z
 ---------------------------------------------------------------------
      1          6           0        1.149829    1.295759    0.528197
      2          6           0        0.631605    0.187839   -0.402061
      3          6           0        1.527898   -1.047698   -0.370264
      4          6           0       -0.783017   -0.165700    0.014377
      5          8           0       -1.701276    0.609452   -0.586880
      6          8           0       -1.086115   -1.009672    0.815630
      7          1           0        0.502184    2.188172    0.488549
      8          1           0        2.168226    1.596902    0.227718
      9          1           0        1.188935    0.937406    1.572034
     10          1           0        0.580961    0.593437   -1.426131
     11          1           0        1.537373   -1.489946    0.640165
     12          1           0        2.561497   -0.777741   -0.647809
     13          1           0        1.173207   -1.819983   -1.074009
     14          1           0       -2.571149    0.352312   -0.232016
 ---------------------------------------------------------------------
 Rotational constants (GHZ):           4.9945245           2.9024211           2.3403245
   100 basis functions,   182 primitive gaussians,   106 cartesian basis functions
    24 alpha electrons       24 beta electrons
       nuclear repulsion energy       247.6816385739 Hartrees.
 NAtoms=   14 NActive=   14 NUniq=   14 SFac= 1.00D+00 NAtFMM=   60 NAOKFM=F Big=F
 Nuclear repulsion after empirical dispersion term =      247.6752023683 Hartrees.
   1 Symmetry operations used in ECPInt.
 ECPInt:  NShTT=    1378 NPrTT=    5562 LenC2=    1374 LenP2D=    4572.
 LDataN:  DoStor=T MaxTD1= 4 Len=   56
 Lowest energy guess from the checkpoint file:  "monomer.chk"
 B after Tr=    -0.000000   -0.000000    0.000000
         Rot=    0.999974   -0.006861   -0.000028    0.002016 Ang=  -0.82 deg.
 B after Tr=     0.000000    0.000000    0.000000
         Rot=    0.999936   -0.003201    0.003888   -0.010125 Ang=  -1.30 deg.
     Accept linear search using points  3 and  4.
     Minimum is close to point  2 DX=  2.94D-02 DF= -4.55D-07 DXR=  5.55D-02 DFR=  3.09D-03 which will be used.
     Accept linear search using points  1 and  2.
     Accept linear search using points  1 and  2.
     Accept linear search using points  1 and  2.
     Minimum is close to point  2 DX= -1.11D-04 DF= -6.25D-13 DXR=  1.11D-04 DFR=  1.21D-08 which will be used.
 SCF Done:  E(RwB97XD) =  -307.372639875     a.u. after    8 cycles
            Convg  =    0.7505D-09                    37 Fock formations.
              S**2 =  0.0000                  -V/T =  2.0089
   1 Symmetry operations used in ECPInt.
 ECPInt:  NShTT=    1378 NPrTT=    5562 LenC2=    1374 LenP2D=    4572.
 LDataN:  DoStor=T MaxTD1= 5 Len=  102
 Calling FoFJK, ICntrl=      2127 FMM=F ISym2X=0 I1Cent= 0 IOpClX= 0 NMat=1 NMatS=1 NMatT=0.

 GradGradGradGradGradGradGradGradGradGradGradGradGradGradGradGradGradGrad
 Using GEDIIS/GDIIS optimizer.
 FormGI is forming the generalized inverse of G from B-inverse, IUseBI=4.
 Internal  Forces:  Max     0.000872334 RMS     0.000233025
 Step number   4 out of a maximum of   71
 All quantities printed in internal units (Hartrees-Bohrs-Radians)
 Mixed Optimization -- En-DIIS/RFO-DIIS
 Trust test= 1.16D+00 RLast= 1.65D-01 DXMaxT set to 4.03D-01
 ITU=  1 -1  1  0
 Use linear search instead of GDIIS.
     Eigenvalues ---    0.00270   0.00335   0.00460   0.02477   0.03954
     Eigenvalues ---    0.04463   0.05460   0.05554   0.05586   0.05651
     Eigenvalues ---    0.05704   0.05987   0.15509   0.16000   0.16000
     Eigenvalues ---    0.16000   0.16007   0.16054   0.16273   0.16941
     Eigenvalues ---    0.17851   0.25027   0.26782   0.29625   0.30497
     Eigenvalues ---    0.32541   0.34364   0.35086   0.35106   0.35134
     Eigenvalues ---    0.35164   0.35169   0.36286   0.53931   0.57044
     Eigenvalues ---    1.04364
 Quartic linear search produced a step of  0.18283.
 Iteration  1 RMS(Cart)=  0.03027390 RMS(Int)=  0.00078662
 Iteration  2 RMS(Cart)=  0.00092083 RMS(Int)=  0.00001417
 Iteration  3 RMS(Cart)=  0.00000071 RMS(Int)=  0.00001416
 Variable       Old X    -DE/DX   Delta X   Delta X   Delta X     New X
                                 (Linear)    (Quad)   (Total)
    R1        2.90393   0.00028  -0.00145  -0.00039  -0.00184   2.90209
    R2        2.08506  -0.00028   0.00002  -0.00034  -0.00032   2.08474
    R3        2.08565  -0.00031   0.00013  -0.00024  -0.00011   2.08554
    R4        2.08688  -0.00030   0.00025  -0.00006   0.00019   2.08707
    R5        2.88510   0.00002  -0.00136  -0.00151  -0.00287   2.88223
    R6        2.86564  -0.00060  -0.00008  -0.00248  -0.00256   2.86308
    R7        2.08367  -0.00002   0.00039   0.00081   0.00120   2.08487
    R8        2.08439  -0.00034   0.00017  -0.00033  -0.00016   2.08423
    R9        2.08576  -0.00031   0.00020  -0.00016   0.00004   2.08580
   R10        2.08512  -0.00029   0.00004  -0.00032  -0.00028   2.08484
   R11        2.53925  -0.00007   0.00045   0.00053   0.00098   2.54023
   R12        2.27252   0.00013   0.00009   0.00035   0.00044   2.27296
   R13        1.84064  -0.00042   0.00065  -0.00005   0.00060   1.84125
    A1        1.94275   0.00016  -0.00024   0.00152   0.00127   1.94402
    A2        1.92099   0.00002  -0.00007   0.00004  -0.00003   1.92096
    A3        1.92857   0.00007   0.00077   0.00153   0.00231   1.93088
    A4        1.88720  -0.00007  -0.00010  -0.00061  -0.00071   1.88649
    A5        1.89358  -0.00010  -0.00009  -0.00081  -0.00090   1.89268
    A6        1.88936  -0.00009  -0.00029  -0.00182  -0.00211   1.88725
    A7        1.95291   0.00020  -0.00017   0.00274   0.00256   1.95547
    A8        1.89277   0.00006   0.00057   0.00241   0.00297   1.89574
    A9        1.88863  -0.00011  -0.00070  -0.00274  -0.00343   1.88520
   A10        1.93185  -0.00012   0.00036   0.00065   0.00099   1.93285
   A11        1.92196   0.00000  -0.00029  -0.00092  -0.00121   1.92076
   A12        1.87335  -0.00004   0.00023  -0.00238  -0.00214   1.87121
   A13        1.92687   0.00013   0.00086   0.00219   0.00305   1.92991
   A14        1.92473  -0.00008   0.00020  -0.00029  -0.00009   1.92464
   A15        1.94381   0.00018  -0.00018   0.00159   0.00140   1.94521
   A16        1.89692  -0.00004  -0.00029  -0.00100  -0.00130   1.89562
   A17        1.88220  -0.00017  -0.00035  -0.00218  -0.00253   1.87967
   A18        1.88792  -0.00002  -0.00027  -0.00044  -0.00072   1.88720
   A19        1.96072  -0.00087   0.00131  -0.00281  -0.00156   1.95916
   A20        2.19163   0.00008   0.00047   0.00066   0.00107   2.19270
   A21        2.13028   0.00079  -0.00138   0.00215   0.00071   2.13099
   A22        1.87024  -0.00029  -0.00011  -0.00383  -0.00394   1.86630
    D1        3.12956   0.00001   0.00055  -0.00258  -0.00203   3.12753
    D2       -1.01786   0.00003   0.00128   0.00168   0.00296  -1.01490
    D3        1.00899  -0.00005   0.00149  -0.00132   0.00017   1.00917
    D4        1.03741  -0.00002   0.00088  -0.00281  -0.00194   1.03547
    D5       -3.11001  -0.00000   0.00161   0.00144   0.00305  -3.10696
    D6       -1.08316  -0.00008   0.00182  -0.00155   0.00026  -1.08289
    D7       -1.04840   0.00003   0.00080  -0.00155  -0.00076  -1.04915
    D8        1.08738   0.00006   0.00153   0.00270   0.00423   1.09161
    D9        3.11423  -0.00002   0.00174  -0.00029   0.00145   3.11567
   D10        1.09499   0.00001  -0.00355  -0.01275  -0.01630   1.07869
   D11       -1.00151   0.00003  -0.00387  -0.01272  -0.01659  -1.01810
   D12       -3.09774  -0.00000  -0.00353  -0.01300  -0.01654  -3.11427
   D13       -1.01831  -0.00012  -0.00441  -0.01815  -0.02256  -1.04087
   D14       -3.11481  -0.00010  -0.00473  -0.01812  -0.02285  -3.13765
   D15        1.07215  -0.00014  -0.00439  -0.01840  -0.02280   1.04935
   D16       -3.08695   0.00000  -0.00474  -0.01502  -0.01977  -3.10672
   D17        1.09973   0.00002  -0.00506  -0.01499  -0.02005   1.07968
   D18       -0.99649  -0.00001  -0.00473  -0.01528  -0.02000  -1.01650
   D19        1.53105  -0.00040  -0.00621  -0.06493  -0.07114   1.45991
   D20       -1.57542  -0.00027  -0.01407  -0.06479  -0.07887  -1.65429
   D21       -2.60360  -0.00018  -0.00581  -0.05948  -0.06528  -2.66889
   D22        0.57312  -0.00006  -0.01368  -0.05934  -0.07302   0.50009
   D23       -0.50566  -0.00027  -0.00581  -0.06170  -0.06750  -0.57317
   D24        2.67106  -0.00015  -0.01367  -0.06156  -0.07524   2.59581
   D25       -3.08946   0.00007  -0.00370   0.00081  -0.00287  -3.09234
   D26        0.01842  -0.00006   0.00393   0.00064   0.00456   0.02298
         Item               Value     Threshold  Converged?
 Maximum Force            0.000872     0.000015     NO 
 RMS     Force            0.000233     0.000010     NO 
 Maximum Displacement     0.137308     0.000060     NO 
 RMS     Displacement     0.030245     0.000040     NO 
 GradGradGradGradGradGradGradGradGradGradGradGradGradGradGradGradGradGrad

                    Distance matrix (angstroms):
                    1          2          3          4          5
     1  C    0.000000
     2  C    1.535717   0.000000
     3  C    2.538231   1.525210   0.000000
     4  C    2.477807   1.515079   2.501733   0.000000
     5  O    3.096345   2.375892   3.649374   1.344234   0.000000
     6  O    3.260980   2.421881   2.852814   1.202799   2.229780
     7  H    1.103197   2.193386   3.501405   2.724797   2.858256
     8  H    1.103621   2.176983   2.785963   3.444075   4.041729
     9  H    1.104429   2.184817   2.801207   2.750005   3.577962
    10  H    2.150246   1.103265   2.167331   2.121774   2.445506
    11  H    2.810566   2.173736   1.102929   2.755818   4.064310
    12  H    2.778640   2.170527   1.103757   3.462371   4.489483
    13  H    3.503978   2.185000   1.103248   2.773132   3.825788
    14  H    3.883625   3.208361   4.341073   1.875942   0.974345
                    6          7          8          9         10
     6  O    0.000000
     7  H    3.628979   0.000000
     8  H    4.239810   1.786345   0.000000
     9  H    3.145805   1.791005   1.787840   0.000000
    10  H    3.207907   2.490500   2.498604   3.077701   0.000000
    11  H    2.684835   3.822330   3.167836   2.622011   3.086816
    12  H    3.927648   3.790779   2.569996   3.138255   2.521795
    13  H    2.996090   4.354140   3.793903   3.821272   2.516004
    14  H    2.268865   3.611555   4.896199   4.177569   3.387284
                   11         12         13         14
    11  H    0.000000
    12  H    1.792139   0.000000
    13  H    1.781403   1.786960   0.000000
    14  H    4.599471   5.274663   4.426410   0.000000
 Framework group  C1[X(C4H8O2)]
 Deg. of freedom    36
                         Standard orientation:                         
 ---------------------------------------------------------------------
 Center     Atomic      Atomic             Coordinates (Angstroms)
 Number     Number       Type             X           Y           Z
 ---------------------------------------------------------------------
      1          6           0        1.135325    1.308343    0.522656
      2          6           0        0.633045    0.186096   -0.397508
      3          6           0        1.537419   -1.041130   -0.349646
      4          6           0       -0.781994   -0.173988    0.006800
      5          8           0       -1.693461    0.644213   -0.547042
      6          8           0       -1.092082   -1.061868    0.756626
      7          1           0        0.481687    2.195422    0.468886
      8          1           0        2.153271    1.614291    0.225733
      9          1           0        1.172007    0.964437    1.571535
     10          1           0        0.587798    0.582752   -1.426007
     11          1           0        1.560671   -1.466053    0.667876
     12          1           0        2.566619   -0.769386   -0.641508
     13          1           0        1.183375   -1.830206   -1.034604
     14          1           0       -2.563857    0.374060   -0.202403
 ---------------------------------------------------------------------
 Rotational constants (GHZ):           4.9855401           2.9504951           2.3141901
   100 basis functions,   182 primitive gaussians,   106 cartesian basis functions
    24 alpha electrons       24 beta electrons
       nuclear repulsion energy       247.7757230723 Hartrees.
 NAtoms=   14 NActive=   14 NUniq=   14 SFac= 1.00D+00 NAtFMM=   60 NAOKFM=F Big=F
 Nuclear repulsion after empirical dispersion term =      247.7692853310 Hartrees.
   1 Symmetry operations used in ECPInt.
 ECPInt:  NShTT=    1378 NPrTT=    5562 LenC2=    1374 LenP2D=    4571.
 LDataN:  DoStor=T MaxTD1= 4 Len=   56
 Initial guess from the checkpoint file:  "monomer.chk"
 B after Tr=     0.000000    0.000000   -0.000000
         Rot=    0.999978   -0.006115    0.001892   -0.001714 Ang=  -0.76 deg.
 ExpMin= 1.22D-01 ExpMax= 2.27D+03 ExpMxC= 3.41D+02 IAcc=3 IRadAn=         5 AccDes= 0.00D+00
 Harris functional with IExCor= 4639 and IRadAn=       5 diagonalized for initial guess.
 HarFok:  IExCor= 4639 AccDes= 0.00D+00 IRadAn=         5 IDoV= 1 UseB2=F ITyADJ=14
 ICtDFT=  3500011 ScaDFX=  1.000000  1.000000  1.000000  1.000000
 FoFCou: FMM=F IPFlag=           0 FMFlag=      100000 FMFlg1=           0
         NFxFlg=           0 DoJE=T BraDBF=F KetDBF=T FulRan=T
         wScrn=  0.000000 ICntrl=       500 IOpCl=  0 I1Cent=   200000004 NGrid=           0
         NMat0=    1 NMatS0=      1 NMatT0=    0 NMatD0=    1 NMtDS0=    0 NMtDT0=    0
 Petite list used in FoFCou.
     Minimum is close to point  4 DX=  1.19D-02 DF= -1.75D-07 DXR=  9.78D-03 DFR=  9.57D-05 which will be used.
     Minimum is close to point  2 DX=  2.70D-03 DF= -1.66D-09 DXR=  2.70D-03 DFR=  7.26D-06 which will be used.
     Accept linear search using points  1 and  2.
     Accept linear search using points  1 and  2.
     Accept linear search using points  1 and  2.
     Minimum is close to point  2 DX= -1.90D-04 DF= -3.35D-12 DXR=  1.90D-04 DFR=  3.63D-08 which will be used.
 SCF Done:  E(RwB97XD) =  -307.372736041     a.u. after    9 cycles
            Convg  =    0.5466D-08                    39 Fock formations.
              S**2 =  0.0000                  -V/T =  2.0089
   1 Symmetry operations used in ECPInt.
 ECPInt:  NShTT=    1378 NPrTT=    5562 LenC2=    1374 LenP2D=    4571.
 LDataN:  DoStor=T MaxTD1= 5 Len=  102
 Calling FoFJK, ICntrl=      2127 FMM=F ISym2X=0 I1Cent= 0 IOpClX= 0 NMat=1 NMatS=1 NMatT=0.

 GradGradGradGradGradGradGradGradGradGradGradGradGradGradGradGradGradGrad
 Using GEDIIS/GDIIS optimizer.
 FormGI is forming the generalized inverse of G from B-inverse, IUseBI=4.
 Internal  Forces:  Max     0.000834622 RMS     0.000252318
 Step number   5 out of a maximum of   71
 All quantities printed in internal units (Hartrees-Bohrs-Radians)
 Mixed Optimization -- En-DIIS/RFO-DIIS
 Swapping is turned off.
 Trust test= 1.72D+00 RLast= 1.87D-01 DXMaxT set to 5.60D-01
 ITU=  1  1 -1  1  0
     Eigenvalues ---    0.00046   0.00336   0.00476   0.02478   0.03909
     Eigenvalues ---    0.04513   0.05406   0.05549   0.05609   0.05640
     Eigenvalues ---    0.05727   0.06004   0.15966   0.16000   0.16000
     Eigenvalues ---    0.16000   0.16022   0.16128   0.16915   0.17208
     Eigenvalues ---    0.18698   0.25080   0.27796   0.29595   0.32763
     Eigenvalues ---    0.34266   0.35008   0.35099   0.35110   0.35147
     Eigenvalues ---    0.35164   0.35483   0.37467   0.55178   0.58264
     Eigenvalues ---    1.05720
 En-DIIS/RFO-DIIS/Sim-DIIS IScMMF=       -3 using points:     5    4
 RFO step:  Lambda=-3.17330736D-04.
 DidBck=F Rises=F RFO-DIIS coefs:    3.00000   -2.00000
 Iteration  1 RMS(Cart)=  0.08623051 RMS(Int)=  0.03441759
 Iteration  2 RMS(Cart)=  0.04562339 RMS(Int)=  0.00175310
 Iteration  3 RMS(Cart)=  0.00207746 RMS(Int)=  0.00004521
 Iteration  4 RMS(Cart)=  0.00000356 RMS(Int)=  0.00004513
 Iteration  5 RMS(Cart)=  0.00000000 RMS(Int)=  0.00004513
 Variable       Old X    -DE/DX   Delta X   Delta X   Delta X     New X
                                 (Linear)    (Quad)   (Total)
    R1        2.90209   0.00083  -0.00369   0.00092  -0.00277   2.89932
    R2        2.08474  -0.00028  -0.00064  -0.00117  -0.00181   2.08293
    R3        2.08554  -0.00024  -0.00022  -0.00016  -0.00038   2.08516
    R4        2.08707  -0.00028   0.00038   0.00019   0.00057   2.08764
    R5        2.88223   0.00051  -0.00574  -0.00182  -0.00756   2.87467
    R6        2.86308   0.00024  -0.00512   0.00165  -0.00346   2.85962
    R7        2.08487  -0.00017   0.00240   0.00147   0.00387   2.08874
    R8        2.08423  -0.00028  -0.00032  -0.00029  -0.00061   2.08363
    R9        2.08580  -0.00028   0.00008  -0.00007   0.00001   2.08581
   R10        2.08484  -0.00028  -0.00057  -0.00096  -0.00153   2.08331
   R11        2.54023  -0.00024   0.00196   0.00135   0.00331   2.54355
   R12        2.27296  -0.00041   0.00088  -0.00058   0.00030   2.27326
   R13        1.84125  -0.00069   0.00120  -0.00027   0.00093   1.84217
    A1        1.94402  -0.00001   0.00254  -0.00031   0.00222   1.94624
    A2        1.92096   0.00005  -0.00006   0.00025   0.00019   1.92115
    A3        1.93088  -0.00013   0.00462   0.00144   0.00604   1.93692
    A4        1.88649   0.00003  -0.00142   0.00107  -0.00035   1.88614
    A5        1.89268   0.00007  -0.00180   0.00038  -0.00145   1.89123
    A6        1.88725   0.00000  -0.00422  -0.00292  -0.00713   1.88012
    A7        1.95547  -0.00005   0.00513   0.00195   0.00691   1.96238
    A8        1.89574   0.00014   0.00594   0.00710   0.01291   1.90865
    A9        1.88520  -0.00002  -0.00686  -0.00636  -0.01316   1.87205
   A10        1.93285   0.00002   0.00199   0.00531   0.00711   1.93995
   A11        1.92076   0.00005  -0.00242  -0.00232  -0.00469   1.91606
   A12        1.87121  -0.00015  -0.00429  -0.00623  -0.01044   1.86077
   A13        1.92991  -0.00006   0.00609   0.00304   0.00912   1.93903
   A14        1.92464  -0.00009  -0.00019   0.00024   0.00004   1.92468
   A15        1.94521  -0.00003   0.00280  -0.00058   0.00222   1.94743
   A16        1.89562   0.00006  -0.00259  -0.00114  -0.00374   1.89188
   A17        1.87967   0.00001  -0.00506  -0.00330  -0.00836   1.87131
   A18        1.88720   0.00012  -0.00144   0.00162   0.00019   1.88739
   A19        1.95916  -0.00065  -0.00313  -0.00171  -0.00487   1.95429
   A20        2.19270   0.00041   0.00214   0.00635   0.00845   2.20114
   A21        2.13099   0.00023   0.00142  -0.00476  -0.00337   2.12762
   A22        1.86630   0.00044  -0.00788   0.00478  -0.00310   1.86319
    D1        3.12753  -0.00002  -0.00405  -0.01246  -0.01656   3.11097
    D2       -1.01490   0.00008   0.00592   0.00049   0.00646  -1.00844
    D3        1.00917  -0.00004   0.00035  -0.00651  -0.00618   1.00299
    D4        1.03547  -0.00008  -0.00388  -0.01377  -0.01768   1.01779
    D5       -3.10696   0.00002   0.00610  -0.00082   0.00533  -3.10162
    D6       -1.08289  -0.00009   0.00053  -0.00782  -0.00730  -1.09020
    D7       -1.04915  -0.00003  -0.00151  -0.01122  -0.01276  -1.06191
    D8        1.09161   0.00007   0.00847   0.00173   0.01025   1.10186
    D9        3.11567  -0.00004   0.00289  -0.00527  -0.00238   3.11329
   D10        1.07869   0.00008  -0.03260  -0.01255  -0.04513   1.03356
   D11       -1.01810   0.00010  -0.03317  -0.01324  -0.04640  -1.06449
   D12       -3.11427   0.00003  -0.03307  -0.01506  -0.04811   3.12080
   D13       -1.04087  -0.00009  -0.04512  -0.02675  -0.07188  -1.11275
   D14       -3.13765  -0.00007  -0.04569  -0.02744  -0.07314   3.07239
   D15        1.04935  -0.00014  -0.04559  -0.02926  -0.07486   0.97449
   D16       -3.10672   0.00005  -0.03954  -0.02088  -0.06042   3.11605
   D17        1.07968   0.00007  -0.04011  -0.02157  -0.06168   1.01800
   D18       -1.01650   0.00000  -0.04001  -0.02339  -0.06340  -1.07989
   D19        1.45991  -0.00046  -0.14227  -0.17038  -0.31269   1.14723
   D20       -1.65429  -0.00002  -0.15775  -0.16555  -0.32335  -1.97764
   D21       -2.66889  -0.00041  -0.13057  -0.15966  -0.29018  -2.95906
   D22        0.50009   0.00003  -0.14605  -0.15482  -0.30084   0.19926
   D23       -0.57317  -0.00043  -0.13501  -0.16326  -0.29825  -0.87141
   D24        2.59581   0.00001  -0.15048  -0.15842  -0.30891   2.28690
   D25       -3.09234   0.00020  -0.00575   0.00193  -0.00379  -3.09612
   D26        0.02298  -0.00022   0.00912  -0.00251   0.00657   0.02955
         Item               Value     Threshold  Converged?
 Maximum Force            0.000835     0.000015     NO 
 RMS     Force            0.000252     0.000010     NO 
 Maximum Displacement     0.621998     0.000060     NO 
 RMS     Displacement     0.127477     0.000040     NO 
 GradGradGradGradGradGradGradGradGradGradGradGradGradGradGradGradGradGrad

                    Distance matrix (angstroms):
                    1          2          3          4          5
     1  C    0.000000
     2  C    1.534253   0.000000
     3  C    2.539587   1.521210   0.000000
     4  C    2.486559   1.513246   2.503044   0.000000
     5  O    2.923326   2.371878   3.692820   1.345987   0.000000
     6  O    3.407414   2.425482   2.816712   1.202957   2.229402
     7  H    1.102240   2.192961   3.500904   2.735389   2.628492
     8  H    1.103420   2.175684   2.781744   3.449566   3.906946
     9  H    1.104731   2.188134   2.815931   2.771750   3.359642
    10  H    2.140561   1.105313   2.161927   2.113791   2.533806
    11  H    2.800798   2.176551   1.102607   2.799644   4.081229
    12  H    2.802744   2.167047   1.103761   3.461269   4.515499
    13  H    3.504327   2.182441   1.102441   2.744440   3.945140
    14  H    3.763983   3.204362   4.372552   1.875745   0.974837
                    6          7          8          9         10
     6  O    0.000000
     7  H    3.788066   0.000000
     8  H    4.356063   1.785183   0.000000
     9  H    3.381670   1.789541   1.783289   0.000000
    10  H    3.140172   2.477506   2.489699   3.074432   0.000000
    11  H    2.781236   3.820973   3.133671   2.626110   3.087610
    12  H    3.907527   3.803392   2.590826   3.188586   2.492239
    13  H    2.802995   4.352672   3.802520   3.822318   2.533957
    14  H    2.264626   3.457922   4.799244   4.015878   3.444499
                   11         12         13         14
    11  H    0.000000
    12  H    1.789472   0.000000
    13  H    1.775036   1.786431   0.000000
    14  H    4.626275   5.293312   4.504875   0.000000
 Framework group  C1[X(C4H8O2)]
 Deg. of freedom    36
                         Standard orientation:                         
 ---------------------------------------------------------------------
 Center     Atomic      Atomic             Coordinates (Angstroms)
 Number     Number       Type             X           Y           Z
 ---------------------------------------------------------------------
      1          6           0        1.086508    1.367687    0.445031
      2          6           0        0.643276    0.157269   -0.387055
      3          6           0        1.573338   -1.034716   -0.219016
      4          6           0       -0.780522   -0.205833   -0.025295
      5          8           0       -1.651298    0.757821   -0.378568
      6          8           0       -1.136794   -1.213128    0.527454
      7          1           0        0.420410    2.231764    0.288132
      8          1           0        2.109556    1.668250    0.161179
      9          1           0        1.094038    1.125318    1.522821
     10          1           0        0.629267    0.474497   -1.445774
     11          1           0        1.623791   -1.353237    0.835375
     12          1           0        2.592559   -0.774756   -0.553529
     13          1           0        1.230336   -1.902555   -0.806025
     14          1           0       -2.530831    0.466730   -0.075263
 ---------------------------------------------------------------------
 Rotational constants (GHZ):           4.9492711           3.1351287           2.2158031
   100 basis functions,   182 primitive gaussians,   106 cartesian basis functions
    24 alpha electrons       24 beta electrons
       nuclear repulsion energy       248.0273077953 Hartrees.
 NAtoms=   14 NActive=   14 NUniq=   14 SFac= 1.00D+00 NAtFMM=   60 NAOKFM=F Big=F
 Nuclear repulsion after empirical dispersion term =      248.0208815070 Hartrees.
   1 Symmetry operations used in ECPInt.
 ECPInt:  NShTT=    1378 NPrTT=    5562 LenC2=    1374 LenP2D=    4580.
 LDataN:  DoStor=T MaxTD1= 4 Len=   56
 Initial guess from the checkpoint file:  "monomer.chk"
 B after Tr=    -0.000000   -0.000000   -0.000000
         Rot=    0.999937   -0.006493    0.008596   -0.003164 Ang=  -1.29 deg.
 ExpMin= 1.22D-01 ExpMax= 2.27D+03 ExpMxC= 3.41D+02 IAcc=3 IRadAn=         5 AccDes= 0.00D+00
 Harris functional with IExCor= 4639 and IRadAn=       5 diagonalized for initial guess.
 HarFok:  IExCor= 4639 AccDes= 0.00D+00 IRadAn=         5 IDoV= 1 UseB2=F ITyADJ=14
 ICtDFT=  3500011 ScaDFX=  1.000000  1.000000  1.000000  1.000000
 FoFCou: FMM=F IPFlag=           0 FMFlag=      100000 FMFlg1=           0
         NFxFlg=           0 DoJE=T BraDBF=F KetDBF=T FulRan=T
         wScrn=  0.000000 ICntrl=       500 IOpCl=  0 I1Cent=   200000004 NGrid=           0
         NMat0=    1 NMatS0=      1 NMatT0=    0 NMatD0=    1 NMtDS0=    0 NMtDT0=    0
 Petite list used in FoFCou.
     Minimum is close to point  4 DX=  1.13D-02 DF= -2.82D-06 DXR=  9.29D-03 DFR=  8.65D-05 which will be used.
     Accept linear search using points  1 and  2.
     Minimum is close to point  2 DX= -8.53D-03 DF= -2.96D-07 DXR=  8.60D-03 DFR=  7.41D-05 which will be used.
     Accept linear search using points  1 and  2.
     Accept linear search using points  1 and  2.
     Accept linear search using points  1 and  2.
     Accept linear search using points  2 and  3.
     Accept linear search using points  1 and  2.
     Accept linear search using points  1 and  2.
     Accept linear search using points  1 and  2.
     Minimum is close to point  2 DX= -6.07D-04 DF= -4.50D-11 DXR=  6.07D-04 DFR=  3.69D-07 which will be used.
     Minimum is close to point  2 DX=  8.36D-05 DF=  0.00D+00 DXR=  8.36D-05 DFR=  0.00D+00 which will be used.
 SCF Done:  E(RwB97XD) =  -307.372933848     a.u. after   15 cycles
            Convg  =    0.3701D-08                    55 Fock formations.
              S**2 =  0.0000                  -V/T =  2.0089
   1 Symmetry operations used in ECPInt.
 ECPInt:  NShTT=    1378 NPrTT=    5562 LenC2=    1374 LenP2D=    4580.
 LDataN:  DoStor=T MaxTD1= 5 Len=  102
 Calling FoFJK, ICntrl=      2127 FMM=F ISym2X=0 I1Cent= 0 IOpClX= 0 NMat=1 NMatS=1 NMatT=0.

 GradGradGradGradGradGradGradGradGradGradGradGradGradGradGradGradGradGrad
 Using GEDIIS/GDIIS optimizer.
 FormGI is forming the generalized inverse of G from B-inverse, IUseBI=4.
 Internal  Forces:  Max     0.001693669 RMS     0.000565997
 Step number   6 out of a maximum of   71
 All quantities printed in internal units (Hartrees-Bohrs-Radians)
 Mixed Optimization -- En-DIIS/RFO-DIIS
 Swapping is turned off.
 Trust test= 8.08D-01 RLast= 7.73D-01 DXMaxT set to 9.42D-01
 ITU=  1  1  1 -1  1  0
     Eigenvalues ---    0.00070   0.00337   0.00476   0.02528   0.03770
     Eigenvalues ---    0.04620   0.05412   0.05522   0.05591   0.05616
     Eigenvalues ---    0.05701   0.06168   0.15992   0.15999   0.16000
     Eigenvalues ---    0.16012   0.16095   0.16142   0.17132   0.17482
     Eigenvalues ---    0.19046   0.25486   0.27799   0.29618   0.32704
     Eigenvalues ---    0.34277   0.34948   0.35094   0.35110   0.35151
     Eigenvalues ---    0.35173   0.35457   0.37703   0.55112   0.58276
     Eigenvalues ---    1.05764
 En-DIIS/RFO-DIIS/Sim-DIIS IScMMF=       -3 using points:     6    5    4
 RFO step:  Lambda=-9.28761710D-05.
 DidBck=F Rises=F RFO-DIIS coefs:    1.12295   -1.72787    1.60492
 Iteration  1 RMS(Cart)=  0.03642765 RMS(Int)=  0.00090035
 Iteration  2 RMS(Cart)=  0.00124451 RMS(Int)=  0.00003521
 Iteration  3 RMS(Cart)=  0.00000102 RMS(Int)=  0.00003520
 Iteration  4 RMS(Cart)=  0.00000000 RMS(Int)=  0.00003520
[...]
 ! A19   A(2,4,5)              111.9861         -DE/DX =    0.0                 !
 ! A20   A(2,4,6)              126.0096         -DE/DX =    0.0                 !
 ! A21   A(5,4,6)              122.0019         -DE/DX =    0.0                 !
 ! A22   A(4,5,14)             107.0892         -DE/DX =    0.0                 !
 ! D1    D(7,1,2,3)            177.9308         -DE/DX =    0.0                 !
 ! D2    D(7,1,2,4)            -57.9875         -DE/DX =    0.0                 !
 ! D3    D(7,1,2,10)            57.1982         -DE/DX =    0.0                 !
 ! D4    D(8,1,2,3)             57.8096         -DE/DX =    0.0                 !
 ! D5    D(8,1,2,4)           -178.1087         -DE/DX =    0.0                 !
 ! D6    D(8,1,2,10)           -62.923          -DE/DX =    0.0                 !
 ! D7    D(9,1,2,3)            -61.3159         -DE/DX =    0.0                 !
 ! D8    D(9,1,2,4)             62.7658         -DE/DX =    0.0                 !
 ! D9    D(9,1,2,10)           177.9515         -DE/DX =    0.0                 !
 ! D10   D(1,2,3,11)            61.3171         -DE/DX =    0.0                 !
 ! D11   D(1,2,3,12)           -58.693          -DE/DX =    0.0                 !
 ! D12   D(1,2,3,13)          -179.0931         -DE/DX =    0.0                 !
 ! D13   D(4,2,3,11)           -62.3939         -DE/DX =    0.0                 !
 ! D14   D(4,2,3,12)           177.596          -DE/DX =    0.0                 !
 ! D15   D(4,2,3,13)            57.1958         -DE/DX =    0.0                 !
 ! D16   D(10,2,3,11)         -179.0607         -DE/DX =    0.0                 !
 ! D17   D(10,2,3,12)           60.9292         -DE/DX =    0.0                 !
 ! D18   D(10,2,3,13)          -59.4709         -DE/DX =    0.0                 !
 ! D19   D(1,2,4,5)             63.3957         -DE/DX =    0.0                 !
 ! D20   D(1,2,4,6)           -116.054          -DE/DX =    0.0                 !
 ! D21   D(3,2,4,5)           -171.6326         -DE/DX =    0.0                 !
 ! D22   D(3,2,4,6)              8.9177         -DE/DX =    0.0                 !
 ! D23   D(10,2,4,5)           -52.8077         -DE/DX =    0.0                 !
 ! D24   D(10,2,4,6)           127.7426         -DE/DX =    0.0                 !
 ! D25   D(2,4,5,14)          -178.8561         -DE/DX =    0.0                 !
 ! D26   D(6,4,5,14)             0.6189         -DE/DX =    0.0                 !
 --------------------------------------------------------------------------------
 GradGradGradGradGradGradGradGradGradGradGradGradGradGradGradGradGradGrad


 ----------------------------------------------------------------------

 Electric dipole moment (input orientation):
 (Debye = 10**-18 statcoulomb cm , SI units = C m)
                  (au)            (Debye)         (10**-30 SI)
   Tot        0.615976D+00      0.156566D+01      0.522247D+01
   x         -0.115370D+00     -0.293242D+00     -0.978151D+00
   y         -0.591040D+00     -0.150227D+01     -0.501105D+01
   z         -0.129569D+00     -0.329331D+00     -0.109853D+01

 Dipole polarizability, Alpha (input orientation).
 (esu units = cm**3 , SI units = C**2 m**2 J**-1)
 Alpha(0;0):
               (au)            (10**-24 esu)      (10**-40 SI)
   iso        0.464206D+02      0.687882D+01      0.765372D+01
   aniso      0.112665D+02      0.166952D+01      0.185760D+01
   xx         0.506313D+02      0.750279D+01      0.834798D+01
   yx        -0.176127D-01     -0.260994D-02     -0.290394D-02
   yy         0.496470D+02      0.735692D+01      0.818568D+01
   zx         0.763471D+00      0.113135D+00      0.125879D+00
   zy         0.456595D-01      0.676604D-02      0.752823D-02
   zz         0.389834D+02      0.577674D+01      0.642749D+01

 ----------------------------------------------------------------------

 Dipole orientation:
     6         -2.07602686          1.33925561          2.45120922
     6         -1.11330402         -0.83157301          0.78177796
     6         -3.08709446         -1.70438094         -1.12841833
     6          1.31109223         -0.06141389         -0.53840237
     8          3.19070197          0.38996158          1.11126290
     8          1.59794611          0.16184393         -2.78107778
     1         -0.65365049          1.89938273          3.86443397
     1         -3.80391465          0.75074354          3.45790030
     1         -2.54715833          3.00900566          1.29140218
     1         -0.60593698         -2.42045848          2.03911504
     1         -3.59715821         -0.15324091         -2.42355772
     1         -4.81201989         -2.33606918         -0.14251463
     1         -2.37709634         -3.28100895         -2.28890649
     1          4.65920330          0.90291720          0.13022005

 Electric dipole moment (dipole orientation):
 (Debye = 10**-18 statcoulomb cm , SI units = C m)
                  (au)            (Debye)         (10**-30 SI)
   Tot        0.615976D+00      0.156566D+01      0.522247D+01
   x          0.000000D+00      0.000000D+00      0.000000D+00
   y          0.000000D+00      0.000000D+00      0.000000D+00
   z          0.615976D+00      0.156566D+01      0.522247D+01

 Dipole polarizability, Alpha (dipole orientation).
 (esu units = cm**3 , SI units = C**2 m**2 J**-1)
 Alpha(0;0):
               (au)            (10**-24 esu)      (10**-40 SI)
   iso        0.464206D+02      0.687882D+01      0.765372D+01
   aniso      0.112665D+02      0.166952D+01      0.185760D+01
   xx         0.499309D+02      0.739900D+01      0.823250D+01
   yx         0.274845D+01      0.407279D+00      0.453159D+00
   yy         0.400488D+02      0.593462D+01      0.660315D+01
   zx        -0.702746D+00     -0.104136D+00     -0.115867D+00
   zy         0.192580D+01      0.285375D+00      0.317522D+00
   zz         0.492819D+02      0.730283D+01      0.812549D+01

 ----------------------------------------------------------------------
 1\1\GINC-C200\Freq\RwB97XD\def2SVPP\C4H8O2\PETERCHAO1\29-Mar-2024\0\\#
 T Geom=AllCheck Guess=TCheck SCRF=Check GenChk RwB97XD/def2SVPP Freq\\
 Monomer\\0,1\C,-1.2044627833,-1.2511074237,0.6129295164\C,-0.714883851
 2,-0.2041584894,-0.3989123371\C,-1.6083495581,1.0313796423,-0.43383080
 83\C,0.7222286641,0.1781375838,-0.1011998503\O,1.5600093272,-0.8643409
 372,-0.2419313309\O,1.1094465072,1.2660527405,0.233363128\H,-0.5696474
 633,-2.1513789854,0.5990534491\H,-2.2383380058,-1.5519600001,0.3733107
 049\H,-1.2003989346,-0.8366620889,1.6365475371\H,-0.7036411474,-0.6812
 136682,-1.3959185337\H,-1.6201970187,1.5326214087,0.5484850375\H,-2.64
 20347897,0.7463173731,-0.6933522805\H,-1.252385358,1.7645132541,-1.175
 5668419\H,2.4521226655,-0.5465614539,-0.0178229706\\Version=ES64L-G16R
 evB.01\State=1-A\HF=-307.3730162\RMSD=3.655e-10\RMSF=2.943e-07\ZeroPoi
 nt=0.1198089\Thermal=0.1267024\Dipole=-0.1153705,-0.5910403,-0.1295686
 \DipoleDeriv=0.0046467,0.0335519,-0.0222206,0.0592003,0.0216802,0.0247
 894,-0.054223,-0.0180688,0.0784216,-0.111066,-0.1079687,-0.0218831,-0.
 1441292,0.0396191,-0.0238129,-0.0169353,-0.0112632,0.0945943,0.0483112
 ,-0.0014122,0.0220701,0.001524,-0.0002635,0.0177376,0.0078607,0.030847
 3,0.0260956,1.4301778,-0.1099301,0.0523866,-0.2168989,1.5369239,0.2759
 129,0.1092581,0.346248,0.3209593,-0.9183504,0.5320355,0.089943,0.42117
 98,-0.8662786,-0.0668445,0.0479052,-0.0534806,-0.3899136,-0.7749223,-0
 .2705991,-0.0935171,-0.0227106,-1.0286611,-0.1357641,-0.0826161,-0.223
 7849,-0.3799231,0.0373542,0.0950564,0.0043735,0.0646927,-0.0554413,0.0
 360069,0.0146437,0.0145692,0.0546536,-0.1121939,-0.0821057,-0.0186902,
 -0.0557249,0.0520897,0.0163547,-0.0385972,0.010672,0.0447372,0.0703575
 ,-0.0226362,-0.0026592,-0.009702,0.0180865,-0.0852421,0.0251536,-0.017
 7614,-0.0970442,0.0134715,0.0179328,0.028406,0.0286912,0.000577,-0.050
 6682,0.0136911,-0.0483835,-0.0811812,0.071584,0.0072705,-0.0219942,0.0
 343987,0.0274708,-0.0318013,0.0162467,-0.0787639,-0.0687579,-0.1252091
 ,-0.0098385,-0.0456236,-0.0591864,0.0331531,-0.0210361,-0.0435458,-0.0
 113689,0.0728716,0.0519429,-0.0303575,0.0538651,0.0073202,-0.0370813,0
 .0778977,0.0349508,0.0898375,-0.0078598,0.3138961,-0.050999,-0.0244562
 ,-0.1086549,0.2581256,-0.03353,-0.0337926,-0.0292986,0.3323466\Polar=5
 0.6313366,-0.0176127,49.6469742,0.7634705,0.0456595,38.9833631\Quadrup
 ole=3.3438636,-3.5573576,0.213494,-1.4728217,0.1533837,-0.9593819\PG=C
 01 [X(C4H8O2)]\NImag=0\\0.58324360,-0.03006275,0.54504943,0.02354939,0
 .04823261,0.53587963,-0.09432624,-0.02034871,0.02274085,0.51508218,-0.
 02642209,-0.12925766,0.05152854,-0.02335632,0.53098361,0.03113137,0.05
 348697,-0.13121788,0.00246061,0.05291101,0.55194636,0.00796666,-0.0072
 9088,-0.00162685,-0.12625042,0.06037383,-0.00158584,0.56325380,0.01371
 239,-0.02465901,0.00384659,0.06250256,-0.17021985,-0.00106765,0.047931
 20,0.53525957,-0.01425164,0.02108790,-0.00098643,-0.00024121,-0.002338
 77,-0.08404738,-0.00089180,-0.00244313,0.59257204,-0.01072676,-0.01481
 959,0.00718839,-0.18741629,-0.01971119,-0.02294041,-0.02662132,0.00418
 584,-0.00490296,0.68551046,-0.02377106,-0.00975480,-0.00304721,-0.0168
 8479,-0.08356690,-0.00232334,0.02696937,0.00931252,0.00644249,0.131817
 37,0.96599598,0.02639956,0.00448792,0.00741803,-0.01823297,-0.00160035
 ,-0.10025217,-0.00257136,0.00190422,-0.00155679,0.09870345,0.19948959,
 0.31123643,-0.00211113,0.00243293,-0.00153581,-0.03396148,0.03147699,0
 .00136986,-0.00646115,-0.00497732,-0.00137887,-0.21464340,0.10114140,0
 .00469663,0.62047053,0.00016932,-0.00243879,0.00142862,0.00137750,0.00
 607122,-0.00118693,-0.00088566,0.00027220,-0.00030306,0.07093860,-0.21
 708629,-0.02779562,0.00369020,0.41319297,-0.00129195,0.00078849,-0.000
 06002,-0.00619527,0.00307791,0.01000673,-0.00128644,-0.00071795,0.0009
 7305,-0.00405555,-0.02151480,-0.07491192,0.08994457,0.09606501,0.08153
 015,-0.00349028,0.00035196,-0.00378223,-0.00718415,-0.03744243,-0.0150
 2833,0.00099716,-0.00311957,0.00034485,-0.21005781,-0.20748826,-0.0717
 6481,0.03461534,0.03804086,0.01003042,0.18668175,-0.00077122,0.0015311
 4,-0.00274172,-0.01415039,-0.01898133,-0.01289864,0.00362246,-0.001852
 48,0.00086920,-0.21802279,-0.66487286,-0.18042684,0.02128951,-0.101815
 81,-0.03104788,0.22134915,0.78353513,-0.00499994,-0.00012147,-0.003742
 05,-0.00884490,-0.01548208,0.02083227,0.00175828,-0.00078624,-0.001092
 27,-0.07451398,-0.17861983,-0.13783043,0.00600818,-0.02849885,0.025338
 29,0.07951051,0.22335945,0.10020705,-0.14268275,0.13259942,0.00236717,
 0.00669120,-0.01076976,-0.00085554,-0.00070040,-0.00130316,0.00127814,
 0.00114665,-0.00136515,-0.00060765,-0.00123981,-0.00042847,0.00032791,
 -0.00011213,0.00035319,0.00028234,0.14798061,0.12914061,-0.23058248,-0
 .00527999,0.01171215,-0.01618943,-0.00209896,-0.00290437,-0.00202910,0
 .00381324,0.00315678,-0.00298803,-0.00021630,-0.00031834,0.00165544,-0
 .00041589,-0.00066562,0.00084294,0.00012668,-0.13984904,0.24614042,0.0
 0368539,-0.00700307,-0.04998438,-0.01413139,0.01763758,0.00059079,0.00
 241989,0.00262558,-0.00295193,-0.00093934,0.00031989,0.00069261,0.0001
 0292,-0.00011457,-0.00039423,0.00017303,-0.00023697,-0.00003556,-0.004
 51026,0.00224919,0.04940606,-0.28690683,-0.06756944,-0.05787318,-0.009
 26199,-0.00182075,-0.00221056,0.00073450,0.00092130,-0.00054142,0.0013
 4248,0.00009979,0.00221442,-0.00052265,-0.00031669,-0.00001715,-0.0005
 6430,-0.00079716,-0.00047167,-0.01332561,-0.00630895,-0.00380674,0.304
 77965,-0.06625053,-0.06732164,-0.01783859,-0.02215867,-0.00758825,-0.0
 0395684,-0.00104445,0.00086355,-0.00089160,0.00236471,-0.00321248,0.00
 447833,-0.00042079,0.00110646,-0.00057126,-0.00139349,-0.00043097,-0.0
 0122773,0.02389717,0.00992125,0.00676764,0.07464964,0.06933094,-0.0597
 3025,-0.01835249,-0.06239152,0.02329226,0.00744521,0.00371553,0.000440
 69,-0.00090165,0.00069032,-0.00130957,0.00319827,-0.00422712,0.0007889
 4,-0.00058292,0.00053155,0.00157078,0.00089254,0.00156123,0.00182837,0
 .00050351,-0.00055306,0.06128785,0.01473848,0.06383472,-0.05040969,-0.
 00049694,-0.00350973,-0.00116059,0.00429870,0.01116631,-0.00008734,0.0
 0027034,-0.00088048,0.00083097,0.00111751,0.00191636,-0.00017855,0.000
 01640,-0.00049406,0.00009182,-0.00010164,-0.00052368,0.00118845,0.0053
 8733,0.01810500,0.00263940,-0.01127178,-0.02783794,0.04710198,-0.00013
 370,-0.08983828,-0.09739338,0.00002613,0.00839079,0.02230644,-0.000138
 15,0.00186462,0.00063485,0.00082476,0.00178546,0.00080189,0.00013726,-
 0.00007101,-0.00001670,0.00036997,-0.00023841,-0.00035027,-0.00315440,
 -0.00754046,-0.02310407,0.00119191,-0.00338235,-0.00607011,0.00267361,
 0.09207753,-0.00293353,-0.09546186,-0.27569875,0.00104525,-0.00766541,
 -0.01904420,0.00004187,-0.00111315,0.00091031,-0.00217883,-0.00142258,
 -0.00093031,0.00056645,-0.00005645,0.00033136,0.00069341,0.00092659,0.
 00060300,-0.00018723,0.00135860,0.00227714,0.00102367,-0.00140473,-0.0
 0411856,0.00042190,0.10025674,0.29706412,0.00047195,0.00467652,0.01138
 931,-0.05160135,0.00151498,-0.00331466,-0.00033487,0.00965049,0.018830
 84,0.00407515,-0.01443585,-0.03338767,-0.00146710,0.00096064,0.0022350
 1,-0.00648653,-0.00307846,0.00268545,0.00045742,0.00004760,-0.00080090
 ,0.00018098,0.00084523,0.00018286,-0.00007092,-0.00173805,0.00179549,0
 .05547804,-0.00030386,0.00836203,0.02388858,0.00126201,-0.09402897,-0.
 10443730,0.00011334,-0.01218872,-0.02360216,-0.00046627,-0.00659898,-0
 .00994010,0.00139406,0.00038139,0.00096220,-0.00268665,0.00010734,0.00
 079859,0.00046043,0.00088922,-0.00017824,0.00027859,0.00089349,-0.0008
 0159,-0.00181984,-0.00283924,0.00352605,-0.00060476,0.10758475,0.00007
 666,-0.00759052,-0.02119749,-0.00257545,-0.10264935,-0.25766933,0.0000
 4437,0.00156729,0.00318466,0.00223043,-0.00498286,-0.00702930,0.000103
 05,0.00076918,0.00134200,-0.00148882,0.00084131,0.00009427,-0.00043923
 ,-0.00000721,0.00049028,0.00017839,-0.00035061,0.00109893,0.00176575,0
 .00373096,-0.00171975,0.00007077,0.10847963,0.27903651,0.00037966,-0.0
 0103336,0.00027095,-0.00054654,0.00922317,0.01889918,-0.04821032,-0.00
 054964,-0.00077586,0.00081958,0.00237524,0.00215865,0.00034951,-0.0009
 3853,-0.00025705,-0.00032627,-0.00126237,-0.00089745,-0.00012111,-0.00
 013702,0.00001064,-0.00002235,-0.00000768,-0.00018654,0.00030879,-0.00
 001356,-0.00037139,-0.00231713,0.00337298,-0.00036190,0.04731008,-0.00
 047113,0.00127046,-0.00147886,0.00019074,-0.01284764,-0.02469256,0.000
 41718,-0.10242109,-0.10760769,-0.00145346,-0.00070778,-0.00073775,0.00
 013236,0.00011126,0.00017931,-0.00000799,0.00087242,0.00057685,0.00003
 023,0.00037701,0.00029331,-0.00002483,-0.00010164,0.00002670,0.0000301
 4,-0.00034071,0.00087521,0.00354177,-0.00377907,0.00071060,-0.00424152
 ,0.11014201,-0.00005411,0.00057637,0.00127533,0.00084768,0.00128236,0.
 00169521,0.00170844,-0.10910098,-0.26770688,-0.00116858,-0.00183199,-0
 .00019984,0.00022048,0.00052716,0.00010405,-0.00051761,0.00141574,0.00
 043786,0.00000626,-0.00002490,0.00015831,0.00007753,-0.00003175,-0.000
 05843,-0.00018908,-0.00044480,0.00014651,-0.00021415,0.00059825,0.0012
 0130,-0.00065495,0.11824425,0.28238864,0.00069243,-0.00131900,0.000413
 63,-0.01688592,-0.00643657,-0.00433905,-0.28399948,-0.06709396,-0.0597
 0192,0.00044435,0.00281843,0.00035624,-0.00186275,0.00030662,-0.000267
 42,-0.00014595,0.00034349,-0.00000291,0.00028171,0.00007046,0.00024597
 ,0.00050791,0.00060045,-0.00037970,0.00000200,0.00007732,-0.00000896,0
 .00032841,-0.00013786,0.00042130,0.00304971,0.00111091,0.00100033,0.30
 454784,0.00079638,0.00152587,-0.00016971,0.02701531,0.00709022,0.00789
 252,-0.06961681,-0.06794909,-0.01741082,0.00086152,-0.00668304,-0.0003
 8830,0.00212817,0.00057639,0.00038327,-0.00058935,0.00155324,0.0000199
 6,-0.00009426,0.00019315,-0.00027028,-0.00036781,-0.00046889,0.0001290
 8,-0.00009232,-0.00007540,0.00004950,-0.00057284,0.00107168,-0.0002037
 6,-0.01249035,-0.00373734,-0.00085055,0.07041193,0.07152624,-0.0005655
 3,-0.00020633,-0.00011726,0.00099666,-0.00051420,-0.00107618,-0.059702
 69,-0.01662371,-0.06542815,0.00010826,-0.00054933,0.00052305,-0.000112
 15,0.00018385,0.00005467,-0.00027609,0.00032917,0.00042360,0.00020386,
 -0.00003059,-0.00003615,-0.00002586,0.00051288,0.00006387,-0.00010516,
 -0.00004313,-0.00006064,0.00042761,0.00035383,0.00020727,-0.02696735,-
 0.00576963,-0.00366473,0.06492237,0.01825001,0.06218495,-0.00275693,0.
 00270291,0.00028391,0.00674046,0.01307373,-0.01539675,-0.07943955,-0.0
 6122419,0.06336058,0.00062415,0.00181839,-0.00097653,0.00036152,-0.000
 40466,0.00006074,-0.00057196,-0.00063258,0.00001674,0.00056770,0.00095
 868,-0.00064250,0.00020354,0.00020124,0.00011976,-0.00013193,-0.000090
 43,0.00004559,0.00070546,-0.00068308,0.00017799,-0.00051777,0.00071348
 ,-0.00112926,-0.00689645,-0.01781914,0.02102949,0.08114316,0.00445054,
 -0.00380239,-0.00100880,-0.00983261,-0.01585829,0.01779645,-0.05860873
 ,-0.16675194,0.12146998,-0.00135664,-0.00113749,-0.00015400,-0.0000560
 0,0.00027792,-0.00007520,0.00009731,0.00125987,-0.00013832,-0.00045425
 ,-0.00098805,0.00128412,0.00011978,0.00033460,-0.00028027,0.00007781,0
 .00011192,0.00007181,-0.00060321,0.00041306,-0.00029497,0.00568546,0.0
 1111623,-0.01028425,-0.00093922,-0.00433844,0.00410780,0.06137449,0.17
 935388,-0.00045574,0.00027241,0.00076255,-0.00077122,-0.00242239,0.000
 36478,0.06097835,0.12269627,-0.17524715,0.00080605,0.00234392,0.000650
 06,0.00003343,-0.00071636,-0.00029841,0.00004657,-0.00157319,0.0001672
 2,0.00023432,0.00013528,0.00023301,0.00014083,-0.00004007,-0.00008181,
 0.00004763,-0.00027072,0.00042246,-0.00052489,0.00000080,0.00059990,0.
 00920882,0.01931791,-0.01574333,-0.00270992,-0.00730684,0.00692019,-0.
 06693987,-0.13251606,0.18126244,0.00065631,0.00017694,0.00012420,0.000
 08112,0.00599770,0.00064381,-0.00084728,-0.00090630,-0.00024825,-0.045
 32820,-0.00421240,-0.00890433,-0.39334888,-0.11252613,-0.08873378,0.00
 655331,-0.00814120,-0.00000698,-0.00013193,-0.00029028,0.00008829,0.00
 021526,-0.00001104,-0.00006750,-0.00012440,-0.00003267,0.00004629,0.00
 058048,-0.00017908,-0.00020331,-0.00015584,0.00003212,0.00006702,-0.00
 006380,0.00042958,0.00006659,-0.00003140,0.00004527,-0.00009435,0.4319
 4526,-0.00008290,-0.00008388,0.00003331,0.00264509,-0.00399751,-0.0017
 3116,0.00106166,0.00049884,0.00027957,0.04168034,0.01951469,0.01009731
 ,-0.15805044,-0.10223335,-0.04709652,-0.00681590,-0.00151022,0.0003432
 5,0.00007806,0.00029811,-0.00027011,-0.00005539,0.00005593,0.00005523,
 -0.00008932,0.00009553,0.00005969,-0.00020404,-0.00026799,-0.00001969,
 0.00001719,0.00004587,-0.00007492,0.00018700,-0.00028459,-0.00000060,0
 .00001114,0.00000912,0.00007903,0.11961750,0.08785943,-0.00055967,-0.0
 0019692,0.00006023,-0.00039092,-0.00121006,0.00415547,0.00027308,0.000
 11453,0.00068659,0.00297263,0.00249778,0.00641769,-0.10080769,-0.03971
 908,-0.04454730,0.00048833,0.00029123,-0.00696448,0.00007155,-0.000112
 66,0.00010710,0.00002389,-0.00018413,-0.00006565,0.00011718,-0.0000377
 0,-0.00018269,0.00062492,0.00035146,0.00036074,-0.00007574,0.00006235,
 -0.00003400,0.00005004,-0.00012409,0.00000551,-0.00000989,0.00002170,-
 0.00001191,0.09722230,0.03824560,0.04001269\\0.00000002,0.00000021,-0.
 00000028,-0.00000021,0.00000010,0.00000030,0.00000002,0.00000003,0.000
 00016,0.,-0.00000080,0.00000013,0.00000003,-0.00000067,0.00000006,0.00
 000032,0.,-0.00000010,-0.00000043,0.00000012,0.00000019,-0.00000026,0.
 00000042,0.00000012,-0.00000016,0.00000041,-0.00000010,0.00000005,-0.0
 0000033,0.00000026,0.00000028,0.00000044,-0.00000041,0.00000018,0.0000
 0057,-0.00000015,0.00000025,0.00000004,-0.00000025,-0.00000008,-0.0000
 0055,0.00000009\\\@


 WE HAVE LEFT UNDONE THOSE THINGS WHICH WE OUGHT TO HAVE DONE,
 AND WE HAVE DONE THOSE THINGS WHICH WE OUGHT NOT TO HAVE DONE.
                   BOOK OF COMMON PRAYER                      
 File lengths (MBytes):  RWF=     22 Int=      0 D2E=      0 Chk=      2 Scr=      1
 Normal termination of Gaussian 16 at Fri Mar 29 15:39:43 2024.
real 342.36
user 1298.64
sys 10.95
