 Entering Gaussian System, Link 0=g16
 Input=gaussian_test.inp
 Output=gaussian_test.log
 Initial command:
 /sw/restricted/lms/sw/Gaussian/g16_B01/g16/l1.exe "/scratch/user/peterchao1/peterchao1/6931800_1675363831000000435337104/Gau-262164.inp" -scrdir="/scratch/user/peterchao1/peterchao1/6931800_1675363831000000435337104/"
 Entering Link 1 = /sw/restricted/lms/sw/Gaussian/g16_B01/g16/l1.exe PID=    262185.
  
 Copyright (c) 1988-2017, Gaussian, Inc.  All Rights Reserved.
  
 This is part of the Gaussian(R) 16 program.  It is based on
 the Gaussian(R) 09 system (copyright 2009, Gaussian, Inc.),
 the Gaussian(R) 03 system (copyright 2003, Gaussian, Inc.),
 the Gaussian(R) 98 system (copyright 1998, Gaussian, Inc.),
 the Gaussian(R) 94 system (copyright 1995, Gaussian, Inc.),
 the Gaussian 92(TM) system (copyright 1992, Gaussian, Inc.),
 the Gaussian 90(TM) system (copyright 1990, Gaussian, Inc.),
 the Gaussian 88(TM) system (copyright 1988, Gaussian, Inc.),
 the Gaussian 86(TM) system (copyright 1986, Carnegie Mellon
 University), and the Gaussian 82(TM) system (copyright 1983,
 Carnegie Mellon University). Gaussian is a federally registered
 trademark of Gaussian, Inc.
  
 This software contains proprietary and confidential information,
 including trade secrets, belonging to Gaussian, Inc.
  
 This software is provided under written license and may be
 used, copied, transmitted, or stored only in accord with that
 written license.
  
 The following legend is applicable only to US Government
 contracts under FAR:
  
                    RESTRICTED RIGHTS LEGEND
  
 Use, reproduction and disclosure by the US Government is
 subject to restrictions as set forth in subparagraphs (a)
 and (c) of the Commercial Computer Software - Restricted
 Rights clause in FAR 52.227-19.
  
 Gaussian, Inc.
 340 Quinnipiac St., Bldg. 40, Wallingford CT 06492
  
  
 ---------------------------------------------------------------
 Warning -- This program may not be used in any manner that
 competes with the business of Gaussian, Inc. or will provide
 assistance to any competitor of Gaussian, Inc.  The licensee
 of this program is prohibited from giving any competitor of
 Gaussian, Inc. access to this program.  By using this program,
 the user acknowledges that Gaussian, Inc. is engaged in the
 business of creating and licensing software in the field of
 computational chemistry and represents and warrants to the
 licensee that it is not a competitor of Gaussian, Inc. and that
 it will not use this program in any manner prohibited above.
 ---------------------------------------------------------------
  

 Cite this work as:
 Gaussian 16, Revision B.01,
 M. J. Frisch, G. W. Trucks, H. B. Schlegel, G. E. Scuseria, 
 M. A. Robb, J. R. Cheeseman, G. Scalmani, V. Barone, 
 G. A. Petersson, H. Nakatsuji, X. Li, M. Caricato, A. V. Marenich, 
 J. Bloino, B. G. Janesko, R. Gomperts, B. Mennucci, H. P. Hratchian, 
 J. V. Ortiz, A. F. Izmaylov, J. L. Sonnenberg, D. Williams-Young, 
 F. Ding, F. Lipparini, F. Egidi, J. Goings, B. Peng, A. Petrone, 
 T. Henderson, D. Ranasinghe, V. G. Zakrzewski, J. Gao, N. Rega, 
 G. Zheng, W. Liang, M. Hada, M. Ehara, K. Toyota, R. Fukuda, 
 J. Hasegawa, M. Ishida, T. Nakajima, Y. Honda, O. Kitao, H. Nakai, 
 T. Vreven, K. Throssell, J. A. Montgomery, Jr., J. E. Peralta, 
 F. Ogliaro, M. J. Bearpark, J. J. Heyd, E. N. Brothers, K. N. Kudin, 
 V. N. Staroverov, T. A. Keith, R. Kobayashi, J. Normand, 
 K. Raghavachari, A. P. Rendell, J. C. Burant, S. S. Iyengar, 
 J. Tomasi, M. Cossi, J. M. Millam, M. Klene, C. Adamo, R. Cammi, 
 J. W. Ochterski, R. L. Martin, K. Morokuma, O. Farkas, 
 J. B. Foresman, and D. J. Fox, Gaussian, Inc., Wallingford CT, 2016.
 
 ******************************************
 Gaussian 16:  ES64L-G16RevB.01 20-Dec-2017
                 2-Feb-2023 
 ******************************************
 %chk=20.chk
 %nprocshared=4
 Will use up to    4 processors via shared memory.
 %mem=8000mb
 --------------------------------------------------------------
 #T wB97XD//def2svpp Volume=tight Geom=AllCheckpoint Guess=Read
 --------------------------------------------------------------
 Structure from the checkpoint file:  "20.chk"
 -------
 Monomer
 -------
 Charge =  0 Multiplicity = 1
 Redundant internal coordinates found in file.  (old form).
 C,0,-0.5779428167,-0.900295487,1.6961877523
 C,0,-0.1740257742,-0.0254220664,0.5007498232
 C,0,0.2198308517,-0.8824006865,-0.7114583702
 Cl,0,1.6034828713,-1.9813581128,-0.3898859261
 C,0,-1.3343860921,0.8986850226,0.0898874378
 Cl,0,-2.8215257013,0.0240681179,-0.4110479096
 C,0,0.996423973,0.857290405,0.96380198
 Cl,0,1.6003994269,2.0020859485,-0.2855169506
 H,0,-1.4222734814,-1.554883345,1.4260587559
 H,0,-0.8921444752,-0.2749174083,2.5500630033
 H,0,0.2617827452,-1.5364943325,2.0184547533
 H,0,0.518933049,-0.2446463152,-1.5559686438
 H,0,-0.6239347451,-1.5148952669,-1.0194106732
 H,0,-1.0468289136,1.5409160423,-0.7541494718
 H,0,-1.620526471,1.5407526201,0.9370348543
 H,0,1.8508357559,0.2255270971,1.2447924789
 H,0,0.7003581846,1.4667890464,1.8308622569
 Recover connectivity data from disk.
                           ----------------------------
                           !    Current Parameters    !
                           ! (Angstroms and Degrees)  !
 --------------------------                            --------------------------
 ! Name  Definition              Value                                          !
 --------------------------------------------------------------------------------
 ! R1    R(1,2)                  1.5355                                         !
 ! R2    R(1,9)                  1.102                                          !
 ! R3    R(1,10)                 1.104                                          !
 ! R4    R(1,11)                 1.1017                                         !
 ! R5    R(2,3)                  1.5359                                         !
 ! R6    R(2,5)                  1.5392                                         !
 ! R7    R(2,7)                  1.5374                                         !
 ! R8    R(3,4)                  1.796                                          !
 ! R9    R(3,12)                 1.0997                                         !
 ! R10   R(3,13)                 1.0986                                         !
 ! R11   R(5,6)                  1.7965                                         !
 ! R12   R(5,14)                 1.0989                                         !
 ! R13   R(5,15)                 1.1008                                         !
 ! R14   R(7,8)                  1.7989                                         !
 ! R15   R(7,16)                 1.0991                                         !
 ! R16   R(7,17)                 1.1004                                         !
 ! A1    A(2,1,9)              110.4362                                         !
 ! A2    A(2,1,10)             110.7478                                         !
 ! A3    A(2,1,11)             110.8711                                         !
 ! A4    A(9,1,10)             107.9391                                         !
 ! A5    A(9,1,11)             108.221                                          !
 ! A6    A(10,1,11)            108.529                                          !
 ! A7    A(1,2,3)              111.347                                          !
 ! A8    A(1,2,5)              110.5845                                         !
 ! A9    A(1,2,7)              107.0332                                         !
 ! A10   A(3,2,5)              108.5196                                         !
 ! A11   A(3,2,7)              111.2755                                         !
 ! A12   A(5,2,7)              108.0362                                         !
 ! A13   A(2,3,4)              113.4319                                         !
 ! A14   A(2,3,12)             110.6254                                         !
 ! A15   A(2,3,13)             110.2146                                         !
 ! A16   A(4,3,12)             106.4281                                         !
 ! A17   A(4,3,13)             106.8352                                         !
 ! A18   A(12,3,13)            109.1183                                         !
 ! A19   A(2,5,6)              113.9652                                         !
 ! A20   A(2,5,14)             111.0163                                         !
 ! A21   A(2,5,15)             109.9203                                         !
 ! A22   A(6,5,14)             106.6769                                         !
 ! A23   A(6,5,15)             106.4614                                         !
 ! A24   A(14,5,15)            108.5558                                         !
 ! A25   A(2,7,8)              114.3192                                         !
 ! A26   A(2,7,16)             109.8035                                         !
 ! A27   A(2,7,17)             110.5182                                         !
 ! A28   A(8,7,16)             106.3994                                         !
 ! A29   A(8,7,17)             106.5624                                         !
 ! A30   A(16,7,17)            109.0303                                         !
 ! D1    D(9,1,2,3)            -58.5378                                         !
 ! D2    D(9,1,2,5)             62.197                                          !
 ! D3    D(9,1,2,7)            179.6464                                         !
 ! D4    D(10,1,2,3)          -178.0523                                         !
 ! D5    D(10,1,2,5)           -57.3175                                         !
 ! D6    D(10,1,2,7)            60.1319                                         !
 ! D7    D(11,1,2,3)            61.4086                                         !
 ! D8    D(11,1,2,5)          -177.8566                                         !
 ! D9    D(11,1,2,7)           -60.4071                                         !
 ! D10   D(1,2,3,4)            -59.7797                                         !
 ! D11   D(1,2,3,12)          -179.2824                                         !
 ! D12   D(1,2,3,13)            59.9531                                         !
 ! D13   D(5,2,3,4)            178.2811                                         !
 ! D14   D(5,2,3,12)            58.7784                                         !
 ! D15   D(5,2,3,13)           -61.9862                                         !
 ! D16   D(7,2,3,4)             59.5405                                         !
 ! D17   D(7,2,3,12)           -59.9622                                         !
 ! D18   D(7,2,3,13)           179.2733                                         !
 ! D19   D(1,2,5,6)            -60.5288                                         !
 ! D20   D(1,2,5,14)           178.9936                                         !
 ! D21   D(1,2,5,15)            58.8725                                         !
 ! D22   D(3,2,5,6)             61.8749                                         !
 ! D23   D(3,2,5,14)           -58.6027                                         !
 ! D24   D(3,2,5,15)          -178.7238                                         !
 ! D25   D(7,2,5,6)           -177.3601                                         !
 ! D26   D(7,2,5,14)            62.1624                                         !
 ! D27   D(7,2,5,15)           -57.9588                                         !
 ! D28   D(1,2,7,8)           -178.4506                                         !
 ! D29   D(1,2,7,16)            62.0753                                         !
 ! D30   D(1,2,7,17)           -58.2429                                         !
 ! D31   D(3,2,7,8)             59.6888                                         !
 ! D32   D(3,2,7,16)           -59.7853                                         !
 ! D33   D(3,2,7,17)           179.8965                                         !
 ! D34   D(5,2,7,8)            -59.3412                                         !
 ! D35   D(5,2,7,16)          -178.8153                                         !
 ! D36   D(5,2,7,17)            60.8665                                         !
 --------------------------------------------------------------------------------
                    Distance matrix (angstroms):
                    1          2          3          4          5
     1  C    0.000000
     2  C    1.535456   0.000000
     3  C    2.536439   1.535898   0.000000
     4  Cl   3.206091   2.788988   1.795998   0.000000
     5  C    2.527595   1.539226   2.495999   4.141969   0.000000
     6  Cl   3.213807   2.800550   3.187755   4.858280   1.796518
     7  C    2.470653   1.537385   2.536951   3.202954   2.489602
     8  Cl   4.134749   2.806704   3.226090   3.984812   3.157750
     9  H    1.101975   2.180269   2.778078   3.554538   2.795188
    10  H    1.104049   2.185778   3.499007   4.217036   2.761410
    11  H    1.101701   2.185566   2.807494   2.792520   3.492453
    12  H    3.494214   2.181362   1.099723   2.356303   2.729623
    13  H    2.784658   2.175278   1.098556   2.361203   2.749664
    14  H    3.490490   2.188601   2.734724   4.423037   1.098885
    15  H    2.760799   2.176146   3.460653   4.955827   1.100811
    16  H    2.714811   2.171782   2.777517   2.757481   3.454357
    17  H    2.693563   2.181843   3.494709   4.199652   2.737502
                    6          7          8          9         10
     6  Cl   0.000000
     7  C    4.142609   0.000000
     8  Cl   4.845796   1.798928   0.000000
     9  H    2.797491   3.447080   4.971727   0.000000
    10  H    3.546841   2.713818   4.408858   1.784022   0.000000
    11  H    4.224290   2.717020   4.429642   1.785306   1.790456
    12  H    3.541428   2.791327   2.798468   3.791766   4.341837
    13  H    2.750985   3.490839   4.225567   2.572793   3.788222
    14  H    2.359681   2.755646   2.727657   3.805028   3.773460
    15  H    2.357978   2.704860   3.475892   3.140288   2.535559
    16  H    4.961185   1.099136   2.358119   3.730411   3.078655
    17  H    4.417156   1.100426   2.361287   3.714826   2.467155
                   11         12         13         14         15
    11  H    0.000000
    12  H    3.809396   0.000000
    13  H    3.164425   1.790970   0.000000
    14  H    4.343990   2.506543   3.096318   0.000000
    15  H    3.765900   3.738984   3.762693   1.785842   0.000000
    16  H    2.495669   3.136764   3.778912   3.757988   3.724901
    17  H    3.040929   3.799020   4.332234   3.120968   2.488153
                   16         17
    16  H    0.000000
    17  H    1.791035   0.000000
 Framework group  C1[X(C5H9Cl3)]
 Deg. of freedom    45
                         Standard orientation:                         
 ---------------------------------------------------------------------
 Center     Atomic      Atomic             Coordinates (Angstroms)
 Number     Number       Type             X           Y           Z
 ---------------------------------------------------------------------
      1          6           0       -0.577829   -0.870231    1.670744
      2          6           0       -0.167603   -0.017902    0.461251
      3          6           0        0.244866   -0.897420   -0.728413
      4         17           0        1.632751   -1.979322   -0.369420
      5          6           0       -1.330057    0.888919    0.018994
      6         17           0       -2.805731   -0.006797   -0.478556
      7          6           0        0.991744    0.882821    0.917501
      8         17           0        1.600685    2.005312   -0.349521
      9          1           0       -1.414692   -1.536457    1.405882
     10          1           0       -0.905291   -0.229247    2.507901
     11          1           0        0.262924   -1.493402    2.015035
     12          1           0        0.548287   -0.275498   -1.583128
     13          1           0       -0.591192   -1.542354   -1.031550
     14          1           0       -1.038217    1.515244   -0.835462
     15          1           0       -1.629506    1.546650    0.849359
     16          1           0        1.847582    0.263319    1.220583
     17          1           0        0.682391    1.508339    1.768362
 ---------------------------------------------------------------------
 Rotational constants (GHZ):           1.2009699           0.8440508           0.6039063
   142 basis functions,   272 primitive gaussians,   150 cartesian basis functions
    45 alpha electrons       45 beta electrons
       nuclear repulsion energy       634.1584193816 Hartrees.
 NAtoms=   17 NActive=   17 NUniq=   17 SFac= 1.00D+00 NAtFMM=   60 NAOKFM=F Big=F
 Nuclear repulsion after empirical dispersion term =      634.1460867071 Hartrees.
   1 Symmetry operations used in ECPInt.
 ECPInt:  NShTT=    2628 NPrTT=   11486 LenC2=    2576 LenP2D=    8556.
 LDataN:  DoStor=T MaxTD1= 4 Len=   56
 Initial guess from the checkpoint file:  "20.chk"
 B after Tr=    -0.000000    0.000000    0.000000
         Rot=    1.000000    0.000000    0.000000   -0.000000 Ang=   0.00 deg.
 Skip diagonalization as Alpha Fock matrix is already diagonal.
 SCF Done:  E(RwB97XD) =  -1575.91077843     A.U. after    1 cycles
            NFock=  1  Conv=0.00D+00     -V/T= 2.0032

 **********************************************************************

            Population analysis using the SCF Density.

 **********************************************************************

 Orbital symmetries:
       Occupied  (A) (A) (A) (A) (A) (A) (A) (A) (A) (A) (A) (A)
                 (A) (A) (A) (A) (A) (A) (A) (A) (A) (A) (A) (A)
                 (A) (A) (A) (A) (A) (A) (A) (A) (A) (A) (A) (A)
                 (A) (A) (A) (A) (A) (A) (A) (A) (A)
       Virtual   (A) (A) (A) (A) (A) (A) (A) (A) (A) (A) (A) (A)
                 (A) (A) (A) (A) (A) (A) (A) (A) (A) (A) (A) (A)
                 (A) (A) (A) (A) (A) (A) (A) (A) (A) (A) (A) (A)
                 (A) (A) (A) (A) (A) (A) (A) (A) (A) (A) (A) (A)
                 (A) (A) (A) (A) (A) (A) (A) (A) (A) (A) (A) (A)
                 (A) (A) (A) (A) (A) (A) (A) (A) (A) (A) (A) (A)
                 (A) (A) (A) (A) (A) (A) (A) (A) (A) (A) (A) (A)
                 (A) (A) (A) (A) (A) (A) (A) (A) (A) (A) (A) (A)
                 (A)
 The electronic state is 1-A.
 Alpha  occ. eigenvalues -- -101.67375-101.67353-101.66859 -10.36462 -10.36419
 Alpha  occ. eigenvalues --  -10.35670 -10.35135 -10.30241  -9.58139  -9.58119
 Alpha  occ. eigenvalues --   -9.57623  -7.33518  -7.33504  -7.33004  -7.32562
 Alpha  occ. eigenvalues --   -7.32536  -7.32529  -7.32506  -7.32045  -7.32010
 Alpha  occ. eigenvalues --   -0.99873  -0.95477  -0.94849  -0.89009  -0.79258
 Alpha  occ. eigenvalues --   -0.77397  -0.76281  -0.64875  -0.59552  -0.58011
 Alpha  occ. eigenvalues --   -0.56677  -0.54455  -0.52385  -0.50172  -0.48768
 Alpha  occ. eigenvalues --   -0.48393  -0.46484  -0.45710  -0.45010  -0.40027
 Alpha  occ. eigenvalues --   -0.39042  -0.38848  -0.37862  -0.37652  -0.37264
 Alpha virt. eigenvalues --    0.10179   0.10721   0.11345   0.13850   0.16485
 Alpha virt. eigenvalues --    0.17482   0.17798   0.19157   0.19692   0.22026
 Alpha virt. eigenvalues --    0.23517   0.24626   0.25663   0.26633   0.28104
 Alpha virt. eigenvalues --    0.28977   0.46035   0.46452   0.47556   0.48596
 Alpha virt. eigenvalues --    0.49433   0.53588   0.55606   0.58712   0.62698
 Alpha virt. eigenvalues --    0.63578   0.64760   0.66209   0.67647   0.69715
 Alpha virt. eigenvalues --    0.71111   0.72410   0.73812   0.74461   0.75035
 Alpha virt. eigenvalues --    0.75894   0.76097   0.76947   0.77706   0.79010
 Alpha virt. eigenvalues --    0.79656   0.80864   0.81505   0.84456   0.85078
 Alpha virt. eigenvalues --    0.86969   0.87318   0.87822   0.88892   0.89510
 Alpha virt. eigenvalues --    0.89973   0.90594   0.91014   0.91553   0.92982
 Alpha virt. eigenvalues --    0.94409   0.94918   1.00160   1.01124   1.07279
 Alpha virt. eigenvalues --    1.12127   1.12925   1.16202   1.16989   1.19265
 Alpha virt. eigenvalues --    1.19867   1.22731   1.27685   1.28489   1.40950
 Alpha virt. eigenvalues --    1.43013   1.43127   1.51205   1.55537   1.78550
 Alpha virt. eigenvalues --    1.80003   1.81825   1.87004   1.88369   1.89976
 Alpha virt. eigenvalues --    2.08313   2.08684   2.09832   2.10061   2.10746
 Alpha virt. eigenvalues --    2.20486   2.21027   2.22089   2.24476   2.26289
 Alpha virt. eigenvalues --    2.28612   2.31649   2.58768   2.60879   2.73307
 Alpha virt. eigenvalues --    2.74486   2.75220
          Condensed to atoms (all electrons):
 Mulliken charges:
               1
     1  C   -0.278953
     2  C   -0.272213
     3  C   -0.124451
     4  Cl  -0.151603
     5  C   -0.130870
     6  Cl  -0.147569
     7  C   -0.132238
     8  Cl  -0.149848
     9  H    0.142534
    10  H    0.122627
    11  H    0.140110
    12  H    0.162863
    13  H    0.166654
    14  H    0.167483
    15  H    0.156877
    16  H    0.172327
    17  H    0.156270
 Sum of Mulliken charges =  -0.00000
 Mulliken charges with hydrogens summed into heavy atoms:
               1
     1  C    0.126319
     2  C   -0.272213
     3  C    0.205066
     4  Cl  -0.151603
     5  C    0.193490
     6  Cl  -0.147569
     7  C    0.196359
     8  Cl  -0.149848
 Electronic spatial extent (au):  <R**2>=           1864.5333
 Charge=              0.0000 electrons
 Dipole moment (field-independent basis, Debye):
    X=             -0.5631    Y=              0.6850    Z=              1.5218  Tot=              1.7613
 Evaluate density.
 Using the total density.
 Monte-Carlo method of calculating molar volume:
 based on  0.001 e/bohr**3 density envelope.
 Number of points per bohr**3 =  100 CutOff= 1.00D-04
 Using the SCF density.
 There are      2223 points.  Will hold      2223 in memory.
 LenV=  1048212180 MDV=  1048576000.
 Box volume =10993.756 fraction occupied=0.115
 Integrated density= 7.2446421209386330D+01 error=-1.7553578790613670D+01
 Molar volume = 1266.038 bohr**3/mol (112.980 cm**3/mol)
 Recommended a0 for SCRF calculation =  4.41 angstrom (  8.33 bohr)
 1\1\GINC-C518\SP\RwB97XD\def2SVPP\C5H9Cl3\PETERCHAO1\02-Feb-2023\0\\#T
  wB97XD//def2svpp Volume=tight Geom=AllCheckpoint Guess=Read\\Monomer\
 \0,1\C,0,-0.5779428167,-0.900295487,1.6961877523\C,0,-0.1740257742,-0.
 0254220664,0.5007498232\C,0,0.2198308517,-0.8824006865,-0.7114583702\C
 l,0,1.6034828713,-1.9813581128,-0.3898859261\C,0,-1.3343860921,0.89868
 50226,0.0898874378\Cl,0,-2.8215257013,0.0240681179,-0.4110479096\C,0,0
 .996423973,0.857290405,0.96380198\Cl,0,1.6003994269,2.0020859485,-0.28
 55169506\H,0,-1.4222734814,-1.554883345,1.4260587559\H,0,-0.8921444752
 ,-0.2749174083,2.5500630033\H,0,0.2617827452,-1.5364943325,2.018454753
 3\H,0,0.518933049,-0.2446463152,-1.5559686438\H,0,-0.6239347451,-1.514
 8952669,-1.0194106732\H,0,-1.0468289136,1.5409160423,-0.7541494718\H,0
 ,-1.620526471,1.5407526201,0.9370348543\H,0,1.8508357559,0.2255270971,
 1.2447924789\H,0,0.7003581846,1.4667890464,1.8308622569\\Version=ES64L
 -G16RevB.01\State=1-A\HF=-1575.9107784\RMSD=0.000e+00\Dipole=-0.213421
 2,0.2582994,0.6065761\Quadrupole=-3.5896798,-0.517218,4.1068979,-0.224
 7559,0.5211605,0.7198745\PG=C01 [X(C5H9Cl3)]\\@


 NATURE REVEALS EVERY SECRET ONCE.
                    - RALPH WALDO EMERSON
 File lengths (MBytes):  RWF=     11 Int=      0 D2E=      0 Chk=      3 Scr=      1
 Normal termination of Gaussian 16 at Thu Feb  2 13:03:28 2023.
