10
 energy: -40.520225731770 gnorm: 0.231433101744 xtb: 6.5.1 (b24c23e)
cl           1.78310741118150       -1.12486776740675        1.36866617110905
c            1.91267453368036        0.00012024729406        0.00002075245005
cl           1.24176007313511       -0.76125928347048       -1.45793602031584
cl           1.00530047772270        1.48323174205256        0.36451159063187
cl           3.62087894686345        0.40318446773287       -0.27519819919379
cl          -2.85922867456322       -1.48603104199876        0.22734424840705
c           -1.91280995975807       -0.00003783245681        0.00001703504681
cl          -1.83562030477286        0.39393798025919       -1.73038405737328
cl          -2.68809536611782        1.33598727765966        0.87745412580040
cl          -0.26805668291311       -0.24421129586897        0.62552933903818
10
 energy: -40.606297124624 gnorm: 0.071535347470 xtb: 6.5.1 (b24c23e)
cl           1.87240067711887       -1.12036354595441        1.37432230829323
c            1.93378886002869        0.01336914632839       -0.00281472371137
cl           1.29237575419106       -0.75320143215944       -1.47799209708991
cl           1.16244849247913        1.59247991069056        0.33442853222633
cl           3.63466022358512        0.39946197679024       -0.27979159841163
cl          -2.90872950279608       -1.49995928498793        0.21672705277276
c           -1.99883085864885       -0.00411637746767       -0.01374735519049
cl          -1.83891605250917        0.39540363156107       -1.73554407793788
cl          -2.70921882594435        1.34826449845603        0.88033966013519
cl          -0.44006831304640       -0.37128402946027        0.70409728451428
10
 energy: -40.628453258227 gnorm: 0.038367420309 xtb: 6.5.1 (b24c23e)
cl           1.97484179500650       -1.08941361812134        1.37034618713666
c            2.01371451151652        0.03459448656161       -0.01256180743576
cl           1.33983338496283       -0.73549872972393       -1.46558523236607
cl           1.21363992292439        1.59193560999465        0.31727454022195
cl           3.71480087072012        0.39575251971706       -0.31308867240843
cl          -3.05456200014393       -1.48202496515608        0.16359149249895
c           -2.05928155267642       -0.02862612448604        0.00964682594678
cl          -1.84816899477815        0.39057978552926       -1.70063673998026
cl          -2.76724414865370        1.35196416625988        0.85459666922554
cl          -0.52766333442013       -0.42920863677851        0.77644172276113
10
 energy: -40.640149667537 gnorm: 0.020095274612 xtb: 6.5.1 (b24c23e)
cl           2.03822790665690       -1.05049372452302        1.36642843143592
c            2.09821389179820        0.04965720527248       -0.02712721371393
cl           1.37170287059927       -0.71907223965943       -1.44911264992474
cl           1.27662374779677        1.58208411842216        0.30719194285673
cl           3.79456526734342        0.40833596738734       -0.35833897160537
cl          -3.18713893525443       -1.45836569650422        0.11808848374259
c           -2.12040390450009       -0.04394605441992        0.02644973964683
cl          -1.82305358996531        0.37347416312236       -1.67570965388651
cl          -2.82854756461695        1.34656072453742        0.85107516856817
cl          -0.62027923539973       -0.48817996983859        0.84107970848080
10
 energy: -40.645509918161 gnorm: 0.012719108766 xtb: 6.5.1 (b24c23e)
cl           2.10179277678900       -1.01443249529563        1.35964099134270
c            2.16703218394790        0.06728261068035       -0.04125341032217
cl           1.42138539756555       -0.71944182670273       -1.43873830041884
cl           1.32863358270888        1.57938767547266        0.30973119585932
cl           3.86168417628012        0.41297342307442       -0.39975477897939
cl          -3.30597021035191       -1.43311627643602        0.07634689295101
c           -2.17604540806677       -0.05811961243710        0.04333475984136
cl          -1.80884329473047        0.36055304966380       -1.64616818374688
cl          -2.88772256042588        1.34102496450375        0.84562167851046
cl          -0.70203618925839       -0.53605701872694        0.89126414056293
10
 energy: -40.647845681761 gnorm: 0.008437341885 xtb: 6.5.1 (b24c23e)
cl           2.15514480689972       -0.99225613232763        1.36031911780383
c            2.22549007809136        0.07377992128130       -0.04938105905110
cl           1.46648976287437       -0.71910452728054       -1.43382684138044
cl           1.37845007552667        1.57767670634055        0.30350242673990
cl           3.91580006940145        0.42451190617421       -0.43053100339557
cl          -3.39183795010772       -1.41157646078634        0.04537445891245
c           -2.22848326937841       -0.06569916230672        0.05286187011697
cl          -1.80337042170210        0.35025292286100       -1.62236360848449
cl          -2.93723802903305        1.33751890100883        0.84634398635295
cl          -0.78053466811426       -0.57504958116809        0.92772563798600
10
 energy: -40.648828730162 gnorm: 0.005463255197 xtb: 6.5.1 (b24c23e)
cl           2.20693236608582       -0.97825085188235        1.35754771064264
c            2.26963924162857        0.08069449121159       -0.05696355623034
cl           1.50543018053969       -0.72621728663167       -1.43047275073922
cl           1.41656982338724        1.58301206561045        0.29491477228617
cl           3.95832816137509        0.43370202081854       -0.44812764660298
cl          -3.45992830026033       -1.39422411871820        0.01862910990540
c           -2.27184221420012       -0.07391430790903        0.05966580785020
cl          -1.80391290877550        0.34528452162755       -1.59991584905684
cl          -2.97407883902870        1.33673497227249        0.84580100210930
cl          -0.84722705629373       -0.60676701260280        0.95894638543617
10
 energy: -40.649210512897 gnorm: 0.003375094476 xtb: 6.5.1 (b24c23e)
cl           2.25078071615449       -0.96964549458924        1.35873002395689
c            2.30286516702035        0.08308367096455       -0.06185738860702
cl           1.53344422984561       -0.73049341115071       -1.42918354376370
cl           1.44503033529189        1.58642291653732        0.28506044594907
cl           3.98794911620741        0.44525423965082       -0.46391073457496
cl          -3.51058460004531       -1.37897488203685       -0.00360518000741
c           -2.30587164566491       -0.07931005339727        0.06387591787324
cl          -1.79853171678431        0.34079232090325       -1.58231486940634
cl          -3.00200463402676        1.33872499864098        0.84654445369999
cl          -0.90316651354043       -0.63579981172629        0.98668586048075
10
 energy: -40.649325713332 gnorm: 0.002174750529 xtb: 6.5.1 (b24c23e)
cl           2.28282581245317       -0.96211633119420        1.35838244405677
c            2.32437794911912        0.08654874399326       -0.06608715931606
cl           1.55236584184735       -0.73685257952238       -1.42678955064415
cl           1.46202558092612        1.58989905387120        0.27952605780795
cl           4.00703581787489        0.45302618866017       -0.47490567877083
cl          -3.54573492566152       -1.36751098521723       -0.02160615981412
c           -2.32805636967443       -0.08405612713449        0.06667764589865
cl          -1.79433440438443        0.33818567017449       -1.56861440365286
cl          -3.01804218848828        1.34108052483655        0.84703182276103
cl          -0.94255265955396       -0.65814966467081        1.00640996727412
10
 energy: -40.649355532521 gnorm: 0.001771296041 xtb: 6.5.1 (b24c23e)
cl           2.30079918686437       -0.95688841739314        1.35984522793411
c            2.33531393733360        0.08789536077293       -0.06805406020433
cl           1.56071351405463       -0.74008840216853       -1.42458123918130
cl           1.46961893666137        1.59067779405726        0.27579708054244
cl           4.01504439072053        0.45904953898638       -0.48381927564573
cl          -3.56523756746798       -1.35927501457867       -0.03345912421505
c           -2.33873312911052       -0.08678697004535        0.06799859823991
cl          -1.78718934753910        0.33653692416774       -1.56032995450776
cl          -3.02500272690320        1.34228879252927        0.84802380886986
cl          -0.96541674015568       -0.67335511253134        1.01860392376836
10
 energy: -40.649376213966 gnorm: 0.001256922940 xtb: 6.5.1 (b24c23e)
cl           2.31796916664024       -0.94947591997766        1.36155261963250
c            2.34267481339515        0.09022597847634       -0.07035413375950
cl           1.56528645669127       -0.74633590082639       -1.42008386058294
cl           1.47202627579740        1.59102222149292        0.27238267653483
cl           4.01860507305078        0.46590202457899       -0.49438394607447
cl          -3.58239866536348       -1.34940516699187       -0.04871206303251
c           -2.34531687798000       -0.08968538085394        0.06950817383569
cl          -1.77528235470697        0.33559422974334       -1.55060429103932
cl          -3.02672758955350        1.34363540690929        0.84983394383945
cl          -0.98692584351287       -0.69142299875444        1.03088586624678
10
 energy: -40.649406065058 gnorm: 0.001224615065 xtb: 6.5.1 (b24c23e)
cl           2.32905821129449       -0.94127946887613        1.36553039935067
c            2.34108693962199        0.09178401141148       -0.07168043509268
cl           1.56039216168153       -0.75483522123528       -1.41326010397273
cl           1.46383263183947        1.58916238764217        0.26873572859695
cl           4.01164943586481        0.47464121450303       -0.50743743435819
cl          -3.59106992524481       -1.33883227588917       -0.06521974308671
c           -2.34235228077172       -0.09178950761509        0.07054811232048
cl          -1.75383710739091        0.33734096349697       -1.54180457503573
cl          -3.01910495549097        1.34420541896779        0.85256144258004
cl          -0.99974465694585       -0.71034302860923        1.04205159429841
10
 energy: -40.649509586774 gnorm: 0.002439108891 xtb: 6.5.1 (b24c23e)
cl           2.35948977101702       -0.90600176819466        1.38319502530751
c            2.31774537441159        0.09808039180602       -0.07611748107397
cl           1.53063363754393       -0.79965373279555       -1.38191375280234
cl           1.40920910572104        1.57913790896064        0.25229102899330
cl           3.96678250843291        0.51067783825777       -0.55550848623918
cl          -3.60223368658947       -1.29615258110295       -0.13397813627246
c           -2.31412221478763       -0.09606203462586        0.07447310223266
cl          -1.66475990080308        0.35010787964518       -1.50680942760773
cl          -2.96915276982228        1.34677279908938        0.86886347358266
cl          -1.03368137066602       -0.78685220724343        1.07552963948004
10
 energy: -40.649553963462 gnorm: 0.002695284317 xtb: 6.5.1 (b24c23e)
cl           2.36058885815805       -0.89165703180790        1.39203370972499
c            2.30156690488115        0.09849038118090       -0.07664729134505
cl           1.51997594837494       -0.82040318101149       -1.37067439531307
cl           1.37868900905638        1.57267656533734        0.24125647624530
cl           3.94249182015848        0.52538498235866       -0.56902761189592
cl          -3.59788755719845       -1.27970178411358       -0.15521890448115
c           -2.29734777115488       -0.09643410677298        0.07479606592571
cl          -1.63013593482651        0.36058121955795       -1.49540874301054
cl          -2.94204274752617        1.34418983277925        0.88040508942769
cl          -1.03598807546496       -0.81307238371160        1.07851059032253
10
 energy: -40.649624484933 gnorm: 0.003422355405 xtb: 6.5.1 (b24c23e)
cl           2.35604901682585       -0.86314281501733        1.40933612711828
c            2.26884084425681        0.09765395265329       -0.07779979804806
cl           1.50770888355362       -0.86566984911437       -1.35156864768706
cl           1.31346667535121        1.55641956845563        0.21560716604410
cl           3.89629755669361        0.55566551176328       -0.58513762077488
cl          -3.58623245665675       -1.24799013007758       -0.19209152295503
c           -2.26346818826084       -0.09463493483915        0.07614159242886
cl          -1.57662292175729        0.38452767070094       -1.47600888750268
cl          -2.88672431861836        1.33905630512846        0.90772397337267
cl          -1.02940463692983       -0.86183078585664        1.07382260360428
10
 energy: -40.649674032405 gnorm: 0.003516840036 xtb: 6.5.1 (b24c23e)
cl           2.34167229026537       -0.84736883113976        1.41851374390458
c            2.24923117858839        0.09509500506244       -0.07792238246469
cl           1.51276345679766       -0.89331197914187       -1.34567381485139
cl           1.27107802336882        1.54305501077148        0.19587289564968
cl           3.87272818797413        0.57238053400651       -0.58023549557287
cl          -3.57509406019664       -1.23155949006681       -0.20058601546432
c           -2.24509513461652       -0.09109682941470        0.07571556308331
cl          -1.56185294227659        0.40211311239918       -1.47160612541916
cl          -2.85277159851684        1.33350279720118        0.93087598159550
cl          -1.01274894692977       -0.88275483588111        1.05507063513984
10
 energy: -40.649715819996 gnorm: 0.002831556731 xtb: 6.5.1 (b24c23e)
cl           2.33483547170648       -0.82838132157575        1.42926206423817
c            2.23572905391312        0.09217229368880       -0.07923045282125
cl           1.52688755038502       -0.92425692058609       -1.34092714629957
cl           1.22874356886416        1.52630701017417        0.17178344414084
cl           3.85571568900129        0.59605534177451       -0.57442723755957
cl          -3.58071144502315       -1.21084622120527       -0.21136730627773
c           -2.23337852029609       -0.08965155782322        0.07633919129088
cl          -1.54929776690180        0.42120160525122       -1.46711243979874
cl          -2.81883684858543        1.32849330097467        0.95730152019011
cl          -0.99977629860557       -0.91103903687649        1.03840334849734
10
 energy: -40.649742631049 gnorm: 0.002656337270 xtb: 6.5.1 (b24c23e)
cl           2.31644460715804       -0.83419404721533        1.42673731365674
c            2.24764299533624        0.08671820148044       -0.07735300180045
cl           1.56417681899906       -0.91740492121192       -1.35738561385923
cl           1.23541977748574        1.51801413463201        0.16279326282861
cl           3.87899024371883        0.59424806799146       -0.53767219937006
cl          -3.58829608277198       -1.21695831438444       -0.17715609636663
c           -2.24873488166290       -0.08711313493867        0.07399154877060
cl          -1.60572523392620        0.42355192049336       -1.48699135698134
cl          -2.82447265878851        1.32425242660037        0.96941074796863
cl          -0.97553513109029       -0.89105983965072        1.00365038075361
10
 energy: -40.649766682021 gnorm: 0.001907481548 xtb: 6.5.1 (b24c23e)
cl           2.32918303995050       -0.83111915980151        1.42855639997214
c            2.25056905652200        0.08925715399369       -0.07788544222485
cl           1.56160375023455       -0.92118629170804       -1.35227175936838
cl           1.23636835856092        1.52034172077248        0.16016015706424
cl           3.87878986792306        0.59806618079123       -0.54663181296325
cl          -3.59558336674627       -1.21162789237284       -0.18984027302052
c           -2.25122557636745       -0.08918696561979        0.07492586990976
cl          -1.59517452797252        0.42301624161672       -1.48002363070696
cl          -2.82308937575180        1.32619015879020        0.96925421486206
cl          -0.99153077189495       -0.90369665266559        1.01378126207625
10
 energy: -40.649778748426 gnorm: 0.001660171673 xtb: 6.5.1 (b24c23e)
cl           2.33959778243619       -0.82451505738798        1.43170167735622
c            2.25348910416986        0.09168740852566       -0.07876780247703
cl           1.56675291274537       -0.92801937572846       -1.34886593716920
cl           1.23209173667156        1.51849806238021        0.15358602875691
cl           3.87939709551704        0.60644752736432       -0.54959769552523
cl          -3.60820199640530       -1.19959800621018       -0.19858455232810
c           -2.25445121714647       -0.09164918728958        0.07575887111568
cl          -1.58815034533119        0.42338839205015       -1.47539602159535
cl          -2.81605971739298        1.32565831534959        0.97577427532085
cl          -1.00455490080606       -0.92184358525719        1.01441614214574
10
 energy: -40.649792104998 gnorm: 0.001244930468 xtb: 6.5.1 (b24c23e)
cl           2.34424244020263       -0.81942455225250        1.43453517903578
c            2.25669021968522        0.09408335056869       -0.07806652889766
cl           1.57651650106940       -0.93101089334310       -1.34760434433553
cl           1.22881083278432        1.51561209529145        0.14907932834507
cl           3.88129761920604        0.61449953479225       -0.54775064835193
cl          -3.62177841008625       -1.18729076369496       -0.20065786592652
c           -2.25748191446432       -0.09486597268923        0.07610749497847
cl          -1.59158423395300        0.42114320118828       -1.47509212105159
cl          -2.80525239014939        1.32462383619766        0.98265310006986
cl          -1.01155020983662       -0.93731534226199        1.00682139173455
10
 energy: -40.649807468617 gnorm: 0.000788906813 xtb: 6.5.1 (b24c23e)
cl           2.33948809534413       -0.81623867571970        1.43625612923858
c            2.25533014492059        0.09689819398881       -0.07635969306825
cl           1.57364108744688       -0.92750366476724       -1.34522797732404
cl           1.23200994892189        1.52070449951169        0.15248541466765
cl           3.88046758904093        0.61332169143186       -0.54718241846712
cl          -3.62576545505134       -1.18203925926682       -0.19500666164905
c           -2.25493177941583       -0.09670492931698        0.07447143640111
cl          -1.59621613564454        0.41431965738606       -1.48234195093817
cl          -2.79339068054069        1.32400721893466        0.98321006166053
cl          -1.01072236056399       -0.94671023838580        0.99972064507924
10
 energy: -40.649826152927 gnorm: 0.000499395184 xtb: 6.5.1 (b24c23e)
cl           2.33190166169320       -0.81355908324069        1.43851143363526
c            2.25156853350697        0.10095053551092       -0.07318964346935
cl           1.56833152702496       -0.92050238253427       -1.34314543449382
cl           1.23235583591531        1.52665218579746        0.15645502890325
cl           3.87801352635373        0.61225643973387       -0.54354132612820
cl          -3.63284805102981       -1.17608221084000       -0.18528043179121
c           -2.25190157780021       -0.10071363752533        0.07233889355202
cl          -1.60115543731856        0.40352906323875       -1.49156090091069
cl          -2.77038657296165        1.32528564204259        0.98229223567305
cl          -1.00596899092592       -0.95776205838674        0.98714513063015
10
 energy: -40.649848168005 gnorm: 0.000769786379 xtb: 6.5.1 (b24c23e)
cl           2.32254485020453       -0.81165522752498        1.44092650586517
c            2.24524416660366        0.10564663049563       -0.06945068718463
cl           1.56378707816912       -0.91234107949438       -1.34330045999116
cl           1.22669657339189        1.53149442940156        0.15951767918739
cl           3.87377571612473        0.61513428031413       -0.53431677577905
cl          -3.64254420123939       -1.16522177315558       -0.16970788910861
c           -2.24607499495251       -0.10523233401634        0.06971537540342
cl          -1.60714591231517        0.38778046464490       -1.50477087759484
cl          -2.73668715523408        1.32913060603867        0.98054310305261
cl          -0.99968566629474       -0.97468150290704        0.97086901175015
10
 energy: -40.649880049368 gnorm: 0.001549909661 xtb: 6.5.1 (b24c23e)
cl           2.30732264731093       -0.81080699794221        1.44299080293780
c            2.23610642771624        0.11197060824144       -0.06484765742190
cl           1.56464312428034       -0.90328608419322       -1.34659124224119
cl           1.21191327212261        1.53379974991273        0.16293534323854
cl           3.86638971251910        0.62663610629064       -0.51856005664317
cl          -3.65911311083426       -1.14544033891654       -0.14535002935035
c           -2.23737974674351       -0.11153586831898        0.06617447380466
cl          -1.61474996180581        0.36240717328804       -1.52309224690411
cl          -2.68253268850238        1.33728951591519        0.97755402375906
cl          -0.99268922160521       -1.00097937048052        0.94881157442110
10
 energy: -40.649928335043 gnorm: 0.003725791053 xtb: 6.5.1 (b24c23e)
cl           2.28454217459901       -0.81070312688919        1.44483701415922
c            2.22032648640024        0.12183285273530       -0.05802439146690
cl           1.57337697845395       -0.89067811619457       -1.35553722848127
cl           1.17965278837574        1.53231141938890        0.16666400315030
cl           3.85181360664165        0.65408328495696       -0.48861087411530
cl          -3.68960655386872       -1.10530443131459       -0.10281777624178
c           -2.22214029176393       -0.12162431382283        0.06067138796223
cl          -1.62579960534969        0.31641787689798       -1.55222734629122
cl          -2.58654986608484        1.35331925495938        0.97091154649443
cl          -0.98570526294533       -1.04960020692074        0.91415865043069
10
 energy: -40.649961219125 gnorm: 0.005411659857 xtb: 6.5.1 (b24c23e)
cl           2.27056701030350       -0.80987148675403        1.44607548238138
c            2.20956086024369        0.12869500820519       -0.05355366319159
cl           1.58268520520020       -0.88444190132821       -1.36127808726429
cl           1.15191449542831        1.52768624218520        0.16717059718250
cl           3.84029525130551        0.67823814688263       -0.46771164539188
cl          -3.71183288384903       -1.07144144849521       -0.07352307296427
c           -2.21075127023760       -0.12878832170857        0.05665274146028
cl          -1.63233405232876        0.28403959441898       -1.57052435070654
cl          -2.51483177880618        1.36369387663154        0.96547466957742
cl          -0.98536238280154       -1.08775521624091        0.89124231451737
10
 energy: -40.650029067519 gnorm: 0.005395340750 xtb: 6.5.1 (b24c23e)
cl           2.26398107151083       -0.80758716511469        1.44738043675387
c            2.20113311045003        0.13308384203664       -0.05089238453884
cl           1.59540768871042       -0.88522904912249       -1.36532788199682
cl           1.12293564150520        1.51852140934828        0.16379998603978
cl           3.82846566096344        0.70430621158403       -0.45205062939534
cl          -3.72899336842481       -1.03704467705693       -0.05327991568075
c           -2.20122372591624       -0.13366105301670        0.05363994034345
cl          -1.63480853203644        0.25995373709498       -1.58034170509170
cl          -2.45487269266823        1.37010271602759        0.96107922304981
cl          -0.99211439963610       -1.12239147798407        0.87601791611690
10
 energy: -40.650161754670 gnorm: 0.003185350947 xtb: 6.5.1 (b24c23e)
cl           2.26772874596089       -0.80066521548085        1.45005252018562
c            2.19209094975971        0.13523213090158       -0.04960083268249
cl           1.62316535745319       -0.90080505339507       -1.36716592452192
cl           1.07341739893450        1.49355463550480        0.15285566966764
cl           3.80697272327204        0.75236503949851       -0.43786073038122
cl          -3.74798185647164       -0.97785092305929       -0.03713703346928
c           -2.18960140906551       -0.13637883318960        0.04967091739016
cl          -1.63133596898798        0.23423447067008       -1.58227388187553
cl          -2.37829754676756        1.37233632101101        0.95755733313030
cl          -1.01624793962956       -1.17196807866453        0.86392694815707
10
 energy: -40.650150026073 gnorm: 0.006554465560 xtb: 6.5.1 (b24c23e)
cl           2.25963608006963       -0.79432502330685        1.45396035919874
c            2.17680938221154        0.14226722421299       -0.04359878968887
cl           1.64597698056343       -0.90403105837129       -1.37002008885953
cl           1.02460110977795        1.47518334640638        0.15354920176590
cl           3.77988041974990        0.80233182397643       -0.41542117837242
cl          -3.77976821571958       -0.91075557975907       -0.00192576515894
c           -2.17396445435359       -0.14316661061781        0.04205577912802
cl          -1.63557843122196        0.18515738033102       -1.60462958003683
cl          -2.26871877161006        1.38135160139364        0.95316923752087
cl          -1.02896364500915       -1.23395861046878        0.83288581010339
10
 energy: -40.650221497361 gnorm: 0.002333006935 xtb: 6.5.1 (b24c23e)
cl           2.26959272706278       -0.79513066160233        1.45322673221407
c            2.18595127032842        0.13794975557167       -0.04591727550581
cl           1.63752479900824       -0.90492547726097       -1.36466611222053
cl           1.05061855230754        1.48074401272430        0.15631651008516
cl           3.78900753723449        0.78215443633155       -0.43187297521694
cl          -3.76529898558253       -0.93610359342769       -0.02148466950154
c           -2.18359215117463       -0.13865214036156        0.04412592783657
cl          -1.63356465845966        0.20624991863752       -1.59485203234644
cl          -2.32226047388507        1.37269766415714        0.95696162528323
cl          -1.02806816238146       -1.20492942097299        0.84818725497255
10
 energy: -40.650233687178 gnorm: 0.001920202655 xtb: 6.5.1 (b24c23e)
cl           2.27154594681103       -0.79344562230332        1.45344667409686
c            2.18550584304870        0.13991522723239       -0.04501669698928
cl           1.64047268046782       -0.90497868055036       -1.36250581240515
cl           1.04616081218028        1.47805821917985        0.15898581136296
cl           3.78570320786191        0.78855000346808       -0.43149708140512
cl          -3.77066924787431       -0.92507153481038       -0.01727896850183
c           -2.18297849414606       -0.14031037718878        0.04304835594731
cl          -1.63554098619033        0.19953926657432       -1.59830043710124
cl          -2.30829648047377        1.37263671056089        0.95452938272465
cl          -1.03199282722715       -1.21483871836604        0.84461375787116
10
 energy: -40.650245298860 gnorm: 0.001748036423 xtb: 6.5.1 (b24c23e)
cl           2.27847402978341       -0.78982150761144        1.45520687016788
c            2.18478007086901        0.14579070607778       -0.04173017087241
cl           1.64871026646046       -0.90219792480137       -1.35856296366346
cl           1.03484490891751        1.47119253849418        0.16783270882930
cl           3.77749239925200        0.80812151769694       -0.42797614702510
cl          -3.78823710034357       -0.89322688114891       -0.00080653191752
c           -2.18362853471599       -0.14564075215401        0.03932674596584
cl          -1.64373402978283        0.17673067446069       -1.61131258861286
cl          -2.26323401510536        1.37343124984549        0.94627725210543
cl          -1.04555754087651       -1.24432512706267        0.83176981062321
10
 energy: -40.650251529415 gnorm: 0.000732868960 xtb: 6.5.1 (b24c23e)
cl           2.27965482777672       -0.79148310370342        1.45493383806246
c            2.18715930591355        0.14495345843276       -0.04249215384877
cl           1.64619051154299       -0.90154809133424       -1.35943517825350
cl           1.04112860675546        1.47408444490589        0.16691394896611
cl           3.78261262335160        0.80166217125952       -0.42939494093111
cl          -3.78481866588181       -0.90208893209130       -0.00439191163242
c           -2.18643979034630       -0.14503926131239        0.04087450489156
cl          -1.64433524230265        0.18286336739690       -1.60840372260871
cl          -2.27774396550988        1.37231237724322        0.94641121876704
cl          -1.04349775684156       -1.23566193700027        0.83500938218765
10
 energy: -40.650253327413 gnorm: 0.000212562984 xtb: 6.5.1 (b24c23e)
cl           2.27936196112487       -0.79230178679534        1.45549307033095
c            2.18769222108208        0.14553510737453       -0.04195152551766
cl           1.64575283837129       -0.89955164991330       -1.36065317709361
cl           1.04258517778052        1.47585914232904        0.16677884510731
cl           3.78455995359056        0.80112868129689       -0.42766170289119
cl          -3.78627599483160       -0.90211408201465       -0.00190835542198
c           -2.18765899539715       -0.14576997483295        0.04099000885656
cl          -1.64651003461100        0.18108666044378       -1.60977743595657
cl          -2.27588351961292        1.37230942593094        0.94559826649461
cl          -1.04371315303852       -1.23612703002227        0.83311699169187
