You are running Q-Chem version: 5.3.2

#
# job setting
#
local host:  c382.cluster
current dir: /scratch/user/peterchao1/peterchao1/6337365_1664471386000000016301599
input file:  qchem_test.inp
output file: 
nprocs     : 0
nthreads   : 8
#
# qchem installation setting
#
QC:          /sw/restricted/qchem/sw/5.3.2
QCAUX:       /sw/restricted/qchem/sw/5.3.2/qcaux
QCPROG:      /sw/restricted/qchem/sw/5.3.2/exe/qcprog.exe_s
QCPROG_S:    /sw/restricted/qchem/sw/5.3.2/exe/qcprog.exe_s
PARALLEL:    -DSERIAL
QCMPI:       seq
#
# qchem directory setting
#
qcrun:       qchem211841
QCSCRATCH:   /scratch/user/peterchao1/peterchao1/6337365_1664471386000000016301599
QCLOCALSCR:  
QCTMPDIR:    /scratch/user/peterchao1/peterchao1/6337365_1664471386000000016301599
QCFILEPREF:  /scratch/user/peterchao1/peterchao1/6337365_1664471386000000016301599/qchem211841
QCSAVEDIR:   
workdirs:    /scratch/user/peterchao1/peterchao1/6337365_1664471386000000016301599/qchem211841
workdir0:    /scratch/user/peterchao1/peterchao1/6337365_1664471386000000016301599/qchem211841
partmpdirs =  
#
# parallel setting
#
QCRSH:           ssh
QCMPI:           seq
QCMPIRUN:        
QCMACHINEFILE:   /scratch/user/peterchao1/peterchao1/6337365_1664471386000000016301599/qchem211841/hostfile

#
# env setting
#
exported envs:   QC QCAUX QCSCRATCH QCRUNNAME QCFILEPREF QCPROG QCPROG_S GUIFILE

Running Job 1 of 1 qchem_test.inp
qchem qchem_test.inp_211841.0 /scratch/user/peterchao1/peterchao1/6337365_1664471386000000016301599/qchem211841/ 0
/sw/restricted/qchem/sw/5.3.2/exe/qcprog.exe_s qchem_test.inp_211841.0 /scratch/user/peterchao1/peterchao1/6337365_1664471386000000016301599/qchem211841/
                  Welcome to Q-Chem
     A Quantum Leap Into The Future Of Chemistry


 Q-Chem 5.3, Q-Chem, Inc., Pleasanton, CA (2020)

 License issued to: MRG Daniel Tabor and Mike Hall, Texas A&M University

 Yihan Shao,  Zhengting Gan,  E. Epifanovsky,  A. T. B. Gilbert,  M. Wormit,  
 J. Kussmann,  A. W. Lange,  A. Behn,  Jia Deng,  Xintian Feng,  D. Ghosh,  
 M. Goldey,  P. R. Horn,  L. D. Jacobson,  I. Kaliman,  T. Kus,  A. Landau,  
 Jie Liu,  E. I. Proynov,  R. M. Richard,  R. P. Steele,  E. J. Sundstrom,  
 H. L. Woodcock III,  P. M. Zimmerman,  D. Zuev,  B. Alam,  B. Albrecht,  
 A. Aldossary,  E. Alguire,  S. A. Baeppler,  D. Barton,  Z. Benda,  
 Y. A. Bernard,  E. J. Berquist,  K. B. Bravaya,  H. Burton,  K. Carter-Fenk,  
 D. Casanova,  Chun-Min Chang,  Yunqing Chen,  A. Chien,  K. D. Closser,  
 M. P. Coons,  S. Coriani,  S. Dasgupta,  A. L. Dempwolff,  M. Diedenhofen,  
 Hainam Do,  R. G. Edgar,  Po-Tung Fang,  S. Faraji,  S. Fatehi,  
 Qingguo Feng,  J. Fosso-Tande,  J. Gayvert,  Qinghui Ge,  A. Ghysels,  
 G. Gidofalvi,  J. Gomes,  J. Gonthier,  S. Gulania,  A. Gunina,  D. Hait,  
 M. W. D. Hanson-Heine,  S. Hammes-Schiffer,  P. H. P. Harbach,  
 A. W. Hauser,  M. F. Herbst,  J. E. Herr,  E. G. Hohenstein,  Z. C. Holden,  
 S. Houck,  Kerwin Hui,  B. C. Huynh,  M. Ivanov,  T.-C. Jagau,  Hyunjun Ji,  
 B. Kaduk,  K. Khistyaev,  Jaehoon Kim,  P. Klunzinger,  K. Koh,  
 D. Kosenkov,  L. Koulias,  T. Kowalczyk,  C. M. Krauter,  A. Kunitsa,  
 Ka Un Lao,  A. Laurent,  K. V. Lawler,  Joonho Lee,  D. Lefrancois,  
 S. Lehtola,  D. S. Levine,  Yi-Pei Li,  You-Sheng Lin,  Fenglai Liu,  
 Kuan-Yu Liu,  E. Livshits,  M. Loipersberger,  A. Luenser,  A. Manjanath,  
 P. Manohar,  E. Mansoor,  S. F. Manzer,  Shan-Ping Mao,  Yuezhi Mao,  
 N. Mardirossian,  A. V. Marenich,  T. Markovich,  L. A. Martinez-Martinez,  
 S. A. Maurer,  N. J. Mayhall,  S. C. McKenzie,  J.-M. Mewes,  P. Morgante,  
 A. F. Morrison,  J. W. Mullinax,  K. Nanda,  T. S. Nguyen-Beck,  
 R. Olivares-Amaya,  K. J. Oosterbaan,  J. A. Parkhill,  S. K. Paul,  
 F. Pavosevic,  Zheng Pei,  T. M. Perrine,  F. Plasser,  P. Pokhilko,  
 S. Prager,  A. Prociuk,  E. Ramos,  B. Rana,  D. R. Rehn,  F. Rob,  
 E. Rossomme,  M. Scheurer,  M. Schneider,  N. Sergueev,  S. M. Sharada,  
 S. Sharma,  W. Skomorowski,  D. W. Small,  T. Stauch,  C. J. Stein,  
 T. Stein,  Yu-Chuan Su,  S. P. Veccham,  Zhen Tao,  A. J. W. Thom,  
 A. Tkatchenko,  T. Tsuchimochi,  N. M. Tubman,  L. Vogt,  M. L. Vidal,  
 O. Vydrov,  M. A. Watson,  J. Wenzel,  M. de Wergifosse,  T. A. Wesolowski,  
 A. White,  J. Witte,  A. Yamada,  Jun Yang,  K. Yao,  S. Yeganeh,  
 S. R. Yost,  Zhi-Qiang You,  A. Zech,  Igor Ying Zhang,  Xing Zhang,  
 Yan Zhao,  Ying Zhu,  B. R. Brooks,  G. K. L. Chan,  C. J. Cramer,  
 M. S. Gordon,  W. J. Hehre,  A. Klamt,  M. W. Schmidt,  C. D. Sherrill,  
 D. G. Truhlar,  A. Aspuru-Guzik,  R. Baer,  A. T. Bell,  N. A. Besley,  
 Jeng-Da Chai,  A. E. DePrince, III,  R. A. DiStasio Jr.,  A. Dreuw,  
 B. D. Dunietz,  T. R. Furlani,  Chao-Ping Hsu,  Yousung Jung,  Jing Kong,  
 D. S. Lambrecht,  WanZhen Liang,  C. Ochsenfeld,  V. A. Rassolov,  
 L. V. Slipchenko,  J. E. Subotnik,  T. Van Voorhis,  J. M. Herbert,  
 A. I. Krylov,  P. M. W. Gill,  M. Head-Gordon

 Contributors to earlier versions of Q-Chem not listed above: 
 R. D. Adamson,  B. Austin,  J. Baker,  G. J. O. Beran,  K. Brandhorst,  
 S. T. Brown,  E. F. C. Byrd,  A. K. Chakraborty,  C.-L. Cheng,  
 Siu Hung Chien,  D. M. Chipman,  D. L. Crittenden,  H. Dachsel,  
 R. J. Doerksen,  A. D. Dutoi,  L. Fusti-Molnar,  W. A. Goddard III,  
 A. Golubeva-Zadorozhnaya,  S. R. Gwaltney,  G. Hawkins,  A. Heyden,  
 S. Hirata,  G. Kedziora,  F. J. Keil,  C. Kelley,  Jihan Kim,  R. A. King,  
 R. Z. Khaliullin,  P. P. Korambath,  W. Kurlancheek,  A. M. Lee,  M. S. Lee,  
 S. V. Levchenko,  Ching Yeh Lin,  D. Liotard,  R. C. Lochan,  I. Lotan,  
 P. E. Maslen,  N. Nair,  D. P. O'Neill,  D. Neuhauser,  E. Neuscamman,  
 C. M. Oana,  R. Olson,  B. Peters,  R. Peverati,  P. A. Pieniazek,  
 Y. M. Rhee,  J. Ritchie,  M. A. Rohrdanz,  E. Rosta,  N. J. Russ,  
 H. F. Schaefer III,  N. E. Schultz,  N. Shenvi,  A. C. Simmonett,  A. Sodt,  
 D. Stuck,  K. S. Thanthiriwatte,  V. Vanovschi,  Tao Wang,  A. Warshel,  
 C. F. Williams,  Q. Wu,  X. Xu,  W. Zhang

 Please cite Q-Chem as follows:
 Y. Shao et al., Mol. Phys. 113, 184-215 (2015)
 DOI: 10.1080/00268976.2014.952696

 Q-Chem 5.3.2 for Intel X86 EM64T Linux

 Parts of Q-Chem use Armadillo 9.800.1 (Horizon Scraper).
 http://arma.sourceforge.net/

 Q-Chem begins on Thu Sep 29 12:10:28 2022  

Host: 
0

     Scratch files written to /scratch/user/peterchao1/peterchao1/6337365_1664471386000000016301599/qchem211841//
 Dec820 |scratch|qcdevops|jenkins|workspace|build_RNUM -1
Processing $rem in /sw/restricted/qchem/sw/5.3.2/config/preferences:
Processing $rem in /home/peterchao1/.qchemrc:

 Q-Chem warning in module libgen/rem_setup.C, line 2945:

 Neither GIA nor STOLL is specified by user. Use STOLL as the default


Checking the input file for inconsistencies... 	...done.

--------------------------------------------------------------
User input:
--------------------------------------------------------------
$molecule
0 1
--
0 1
O        2.956915   -2.228307   -0.534687
C        3.635781   -0.985512   -0.502024
C        2.710997    0.158799   -0.044306
C        2.297129   -0.072908    1.434892
O        1.807411   -1.372130    1.664526
C        3.458258    1.506777   -0.155327
O        2.779087    2.571103    0.431310
C        1.447322    0.230015   -0.903330
O        1.049848   -0.851196   -1.528110
O        0.806594    1.266651   -0.995127
H        2.577159   -2.339576    0.370734
H        4.016007   -0.801383   -1.521189
H        4.507466   -1.038663    0.176529
H        1.565761    0.692342    1.741520
H        3.202776    0.060668    2.052449
H        0.826671   -1.372138    1.570690
H        3.688577    1.699729   -1.225049
H        4.422948    1.411490    0.372548
H        1.907264    2.615003    0.003143
H        1.664709   -1.616988   -1.301275
--
0 1
O       -2.956936    2.228309    0.534651
C       -3.635790    0.985506    0.502009
C       -2.710998   -0.158802    0.044307
C       -3.458248   -1.506786    0.155344
O       -2.779066   -2.571116   -0.431271
C       -2.297133    0.072891   -1.434894
O       -1.807401    1.372105   -1.664539
C       -1.447322   -0.229997    0.903333
O       -1.049862    0.851226    1.528102
O       -0.806583   -1.266623    0.995142
H       -2.577175    2.339568   -0.370768
H       -4.507477    1.038639   -0.176544
H       -4.016014    0.801391    1.521177
H       -4.422935   -1.411514   -0.372539
H       -3.688574   -1.699721    1.225067
H       -1.907244   -2.615002   -0.003100
H       -3.202786   -0.060672   -2.052444
H       -1.565779   -0.692372   -1.741523
H       -0.826661    1.372113   -1.570683
H       -1.664731    1.617007    1.301254
$end

$rem
JOBTYPE           eda
EDA2              2
METHOD            wB97X-D
BASIS             def2-SV(P)
SCF_CONVERGENCE   8
THRESH            14
SYMMETRY          false
DISP_FREE_X       wB97X-D
DISP_FREE_C       none
EDA_BSSE          true
$end
--------------------------------------------------------------
 ----------------------------------------------------------------
             Standard Nuclear Orientation (Angstroms)
    I     Atom           X                Y                Z
 ----------------------------------------------------------------
    1      O       2.9569150454    -2.2283070083    -0.5346867727
    2      C       3.6357810406    -0.9855120025    -0.5020238929
    3      C       2.7109970368     0.1587990377    -0.0443060009
    4      C       2.2971290401    -0.0729078223     1.4348920220
    5      O       1.8074110456    -1.3721298023     1.6645261472
    6      C       3.4582580313     1.5067770300    -0.1553271312
    7      O       2.7790870281     2.5711030835     0.4313097680
    8      C       1.4473220351     0.2300149504    -0.9033300057
    9      O       1.0498480383    -0.8511961109    -1.5281099015
   10      O       0.8065940309     1.2666509391    -0.9951271039
   11      H       2.5771590473    -2.3395759231     0.3707342385
   12      H       4.0160070382    -0.8013830986    -1.5211889111
   13      H       4.5074660419    -1.0386629341     0.1765291108
   14      H       1.5657610376     0.6923422042     1.7415199499
   15      H       3.2027760406     0.0606682404     2.0524490077
   16      H       0.8266710455    -1.3721378151     1.5706901488
   17      H       3.6885770288     1.6997289285    -1.2250491501
   18      H       4.4229480326     1.4114900843     0.3725478763
   19      H       1.9072640272     2.6150030391     0.0031427652
   20      H       1.6647090417    -1.6169880868    -1.3012748292
   21      O      -2.9569359704     2.2283090708     0.5346508102
   22      C      -3.6357899656     0.9855060650     0.5020089304
   23      C      -2.7109979618    -0.1588019752     0.0443070384
   24      C      -3.4582479563    -1.5067859675     0.1553441687
   25      O      -2.7790659531    -2.5711160210    -0.4312707305
   26      C      -2.2971329651     0.0728908848    -1.4348939845
   27      O      -1.8074009706     1.3721048648    -1.6645391097
   28      C      -1.4473219601    -0.2299968879     0.9033330432
   29      O      -1.0498619633     0.8512261734     1.5281019390
   30      O      -0.8065829559    -1.2666228766     0.9951421414
   31      H      -2.5771749723     2.3395679856    -0.3707682010
   32      H      -4.5074769669     1.0386389966    -0.1765440733
   33      H      -4.0160139632     0.8013911611     1.5211769486
   34      H      -4.4229349576    -1.4115140218    -0.3725388388
   35      H      -3.6885739538    -1.6997208660     1.2250671876
   36      H      -1.9072439522    -2.6150019765    -0.0030997277
   37      H      -3.2027859656    -0.0606721779    -2.0524439702
   38      H      -1.5657789626    -0.6923721417    -1.7415229124
   39      H      -0.8266609705     1.3721128776    -1.5706831113
   40      H      -1.6647309667     1.6170071493     1.3012538667
 ----------------------------------------------------------------
 Molecular Point Group                 C1    NOp =  1
 Largest Abelian Subgroup              C1    NOp =  1
 Nuclear Repulsion Energy =        1928.76890561 hartrees
 There are       80 alpha and       80 beta electrons
 Requested basis set is def2-SV(P)
 There are 160 shells and 320 basis functions

 Total QAlloc Memory Limit   7500 MB
 Mega-Array Size       188 MB
 MEM_STATIC part       192 MB
 A cutoff of  1.0D-14 yielded  10859 shell pairs
 There are     41951 function pairs (     46791 Cartesian)
 Smallest overlap matrix eigenvalue = 1.15E-03

 Scale SEOQF with 1.000000e-01/1.000000e-01/1.000000e-01

 Standard Electronic Orientation quadrupole field applied
 Nucleus-field energy     =     0.0000000419 hartrees

 -----------------------------------------------------------------------
  General SCF calculation program by
  Eric Jon Sundstrom, Paul Horn, Yuezhi Mao, Dmitri Zuev, Alec White,
  David Stuck, Shaama M.S., Shane Yost, Joonho Lee, David Small,
  Daniel Levine, Susi Lehtola, Hugh Burton, Evgeny Epifanovsky,
  Bang C. Huynh
 -----------------------------------------------------------------------
================================================================
                 ALMO-EDA with the EDA2 driver                  
================================================================
 The second-generation ALMO-EDA (for DFT):                      
 P. R. Horn, Y. Mao and M. Head-Gordon, PCCP, 18, 23067 (2016)  
 Decomposition of the frozen energy:                            
 P. R. Horn, Y. Mao and M. Head-Gordon, JCP, 144, 114107 (2016) 
Using eda2 option set 2
Option set summary: Frozen orbital wavefunction, initial wavefunction decomposition, and traditional AO-based POL.
--------------------------------
Printing EDA Options
--------------------------------
eda_child_super_basis      0
fragmo_guess_mode          0
child_mp                   0
child_mp_orders            0
cls_elec                   1
cls_disp                   0
scfmi_mode                 1
scfmi_occs                 0
scfmi_virts                0
frz_relax                  0
frz_relax_method           0
dc_pen_start               0
dc_pen_conv                0
dc_pen_increment           0
dc_pen_steps               0
dc_pen_thresh_factor       0
dc_pen_pre_newton_thresh   0
frz_ortho_decomp           1
frz_ortho_decomp_conv      6
plot_mo_ortho_frz          0
frgm_method                2
scfmi_freeze_ss            0
separate_rehyb             0
plot_diff_den              0
eda_nocv                   0
eda_vct_relax              1
disp_free_x                -110
disp_free_c                0
eda_bsse                   1
eda_pct_a                  0
eda_covp                   0
--------------------------------
Attempting to make child job directory: /scratch/user/peterchao1/peterchao1/6337365_1664471386000000016301599/qchem211841//Frg1/
Attempting to make child job directory: /scratch/user/peterchao1/peterchao1/6337365_1664471386000000016301599/qchem211841//Frg2/
Creating input file /scratch/user/peterchao1/peterchao1/6337365_1664471386000000016301599/qchem211841/Frg1.input
using default PutDataFrgm: nothing
calling putenv with: QCSCRATCH=/scratch/user/peterchao1/peterchao1/6337365_1664471386000000016301599/qchem211841/ 
Spawning Job For Fragment 0
Done Job For Fragment 0
calling putenv with: QCSCRATCH=/scratch/user/peterchao1/peterchao1/6337365_1664471386000000016301599 
calling putenv with: QCTHREADS=8 
Creating input file /scratch/user/peterchao1/peterchao1/6337365_1664471386000000016301599/qchem211841/Frg2.input
using default PutDataFrgm: nothing
calling putenv with: QCSCRATCH=/scratch/user/peterchao1/peterchao1/6337365_1664471386000000016301599/qchem211841/ 
Spawning Job For Fragment 1
Done Job For Fragment 1
calling putenv with: QCSCRATCH=/scratch/user/peterchao1/peterchao1/6337365_1664471386000000016301599 
calling putenv with: QCTHREADS=8 
Doing General SCFMI
 Exchange:     0.2220 Hartree-Fock + 1.0000 wB97X-D + LR-HF
 Correlation:  1.0000 wB97X-D
 Using SG-2 standard quadrature grid
 Dispersion:   Grimme D
performing fock build before subrot guess so that all methods have access
Printing subrot_rss_gen Method Specification:
Occupied Subspace Method is 0
Virtual Subspace Method is 0
Energy of the unrelaxed supersystem initial determinant -1144.068324474004
write pseudocanon occs and virts to disk
write pseudocanon orbital energies to disk
Tolerance of ortho_decomp_scf: 1.00e-06
GDM subspace size: 20
Beginning the Orthogonal Decomposition of the Initial Supersystem Wavefunction
    1   -1143.9451670990      4.75e-02     ortho_decomp Preconditoned Steepest Descent
    2   -1143.9562009958      7.09e-04     ortho_decomp BFGS Step
    3   -1143.9562144141      4.90e-05     ortho_decomp BFGS Step
    4   -1143.9562144532      1.88e-06     ortho_decomp BFGS Step
    5   -1143.9562144533      5.68e-08     ortho_decomp 00000 Convergence criterion met
 Exchange:     0.2220 Hartree-Fock + 1.0000 wB97X-D + LR-HF
 Correlation:  1.0000 wB97X-D
 Using SG-2 standard quadrature grid
 Dispersion:   Grimme D
 Long-range K will be added via erf
 Coulomb attenuation parameter = 0.2 bohr**(-1)
 Exchange:     0.2220 Hartree-Fock + 1.0000 wB97X-D + LR-HF
 Correlation:  1.0000 wB97X-D
 Using SG-2 standard quadrature grid
 Dispersion:   Grimme D
 Long-range K will be added via erf
 Coulomb attenuation parameter = 0.2 bohr**(-1)
 Exchange:     0.2220 Hartree-Fock + 1.0000 wB97X-D + LR-HF
 Correlation:  1.0000 wB97X-D
 Using SG-2 standard quadrature grid
 Dispersion:   Grimme D
 Long-range K will be added via erf
 Coulomb attenuation parameter = 0.2 bohr**(-1)
Doing General SCFMI
 Exchange:     0.2220 Hartree-Fock + 1.0000 wB97X-D + LR-HF
 Correlation:  1.0000 wB97X-D
 Using SG-2 standard quadrature grid
 Dispersion:   Grimme D
performing fock build at end of subrot_r(subrot) constructor so that all methods have access
<S^2> of initial wavefunction before polarization iterations 0.0000000000
Beginning iterations for the determination of the polarized wavefunction
Energy prior to optimization (guess energy) = -1144.068324474005
Begin Timing: Total SCF Calculation
begin iterations for algorithm: DIIS         
the SCF tolerance is set to 1.00e-08
    1   -1144.0683244740      4.34e-04     00000 
    2   -1144.0773765903      2.09e-04     00000 
    3   -1144.0780164372      1.79e-04     00000 
    4   -1144.0787224004      3.34e-05     00000 
    5   -1144.0787626687      1.27e-05     00000 
    6   -1144.0787678606      6.40e-06     00000 
    7   -1144.0787690499      1.15e-06     00000 
    8   -1144.0787690942      4.46e-07     00000 
    9   -1144.0787691008      1.44e-07     00000 
   10   -1144.0787691016      6.08e-08     00000 
   11   -1144.0787691018      1.82e-08     00000 
   12   -1144.0787691018      6.20e-09     00000 Convergence criterion met
write pseudocanon occs and virts to disk
write pseudocanon orbital energies to disk
Timing for Total SCF: 55.00s (wall), 423.09s (cpu)
<S^2> of polarized wavefunction after polarization iterations 0.0000000000
relaxing scfmi constraint to allow all rotations in the entire AO span
Doing General SCFMI
 Exchange:     0.2220 Hartree-Fock + 1.0000 wB97X-D + LR-HF
 Correlation:  1.0000 wB97X-D
 Using SG-2 standard quadrature grid
 Dispersion:   Grimme D
performing fock build at end of subrot_r(subrot) constructor so that all methods have access
<S^2> of polarized wavefunction before ct-allowed iterations 0.0000000000
Beginning iterations for the determination of the CT-Allowed wavefunction
Energy prior to optimization (guess energy) = -1144.078769101812
Begin Timing: Total SCF Calculation
begin iterations for algorithm: DIIS         
the SCF tolerance is set to 1.00e-08
    1   -1144.0787691018      5.16e-04     00000 
    2   -1144.1017441782      1.07e-04     00000 
    3   -1144.1027316870      8.17e-05     00000 
    4   -1144.1029797048      2.35e-05     00000 
    5   -1144.1030091406      8.75e-06     00000 
    6   -1144.1030129299      2.30e-06     00000 
    7   -1144.1030132135      8.91e-07     00000 
    8   -1144.1030132609      2.12e-07     00000 
    9   -1144.1030132647      6.52e-08     00000 
   10   -1144.1030132653      3.34e-08     00000 
   11   -1144.1030132654      1.06e-08     00000 
   12   -1144.1030132654      3.85e-09     00000 Convergence criterion met
write pseudocanon occs and virts to disk
write pseudocanon orbital energies to disk
Timing for Total SCF: 55.00s (wall), 425.18s (cpu)
<S^2> of ct_allowed wavefunction after ct-allowed iterations 0.0000000000
Attempting to make child job directory: /scratch/user/peterchao1/peterchao1/6337365_1664471386000000016301599/qchem211841//FrgBSSE1/
Attempting to make child job directory: /scratch/user/peterchao1/peterchao1/6337365_1664471386000000016301599/qchem211841//FrgBSSE2/
Creating input file /scratch/user/peterchao1/peterchao1/6337365_1664471386000000016301599/qchem211841/FrgBSSE1.input
calling putenv with: QCSCRATCH=/scratch/user/peterchao1/peterchao1/6337365_1664471386000000016301599/qchem211841/ 
Spawning Job For Fragment 0
Done Job For Fragment 0
calling putenv with: QCSCRATCH=/scratch/user/peterchao1/peterchao1/6337365_1664471386000000016301599 
calling putenv with: QCTHREADS=8 
Creating input file /scratch/user/peterchao1/peterchao1/6337365_1664471386000000016301599/qchem211841/FrgBSSE2.input
calling putenv with: QCSCRATCH=/scratch/user/peterchao1/peterchao1/6337365_1664471386000000016301599/qchem211841/ 
Spawning Job For Fragment 1
Done Job For Fragment 1
calling putenv with: QCSCRATCH=/scratch/user/peterchao1/peterchao1/6337365_1664471386000000016301599 
calling putenv with: QCTHREADS=8 
====================================================================
   Evaluating the BSSE with fragment SCF in the supersystem basis
   Fragment contributions (kJ/mol) 
   Frgm 1: 13.1383
   Frgm 2: 13.1383
   BSSE (kJ/mol) = 26.2767
====================================================================

================================
        Results of EDA2         
================================
Basic EDA Quantities
--------------------
Fragment Energies (Ha):
1 -572.0268660244
2 -572.0268662505
--------------------
  E_prp (kJ/mol) = 0.0000
  E_frz (kJ/mol) = -38.3123
  E_pol (kJ/mol) = -27.4227
  E_vct (kJ/mol) = -37.3772 (CP-corrected)
  E_int (kJ/mol) = -103.1121 (CP-corrected)
--------------------


Decomposition of frozen interaction energy
--------------------
  --------------------
  Orthogonal Frozen Decomposition:
  --------------------
     E_elec   (ELEC)   (kJ/mol) = -214.6620
     E_pauli  (PAULI)  (kJ/mol) = 197.7677
     E_disp   (DISP)   (kJ/mol) = -21.4180
  --------------------
  Classical Frozen Decomposition:
  --------------------
     E_cls_elec  (CLS ELEC)  (kJ/mol) = -122.1279
     E_mod_pauli (MOD PAULI) (kJ/mol) = 105.2336 (FRZ - CLS ELEC - DISP)
     E_disp      (DISP)      (kJ/mol) = -21.4180
  --------------------
--------------------

Simplified EDA Summary (kJ/mol)
--------------------
 PREPARATION      0.0000
 FROZEN           -38.3123 (ELEC + PAULI + DISP)
[ELEC + PAULI = -16.8943, DISP = -21.4180]
 POLARIZATION    -27.4227
 CHARGE TRANSFER -37.3772     (counterpoise-corrected)
 TOTAL           -103.1121     (PRP + FRZ + POL + CT)
--------------------
 
 --------------------------------------------------------------
 
                    Orbital Energies (a.u.)
 --------------------------------------------------------------
 
 Alpha MOs
 -- Occupied --
-19.3154 -19.3154 -19.2866 -19.2866 -19.2792 -19.2791 -19.2665 -19.2665
-19.2513 -19.2513 -10.4614 -10.4614 -10.3723 -10.3723 -10.3596 -10.3596
-10.3589 -10.3589 -10.3406 -10.3406  -1.2305  -1.2275  -1.1599  -1.1567
 -1.1412  -1.1373  -1.1244  -1.1223  -1.1180  -1.1170  -0.9254  -0.9237
 -0.7908  -0.7891  -0.7764  -0.7754  -0.7544  -0.7469  -0.7275  -0.7261
 -0.6644  -0.6600  -0.6443  -0.6329  -0.6202  -0.6181  -0.5959  -0.5811
 -0.5810  -0.5714  -0.5693  -0.5656  -0.5576  -0.5562  -0.5478  -0.5440
 -0.5347  -0.5337  -0.5191  -0.5183  -0.5003  -0.4964  -0.4903  -0.4901
 -0.4777  -0.4773  -0.4524  -0.4420  -0.4367  -0.4271  -0.4220  -0.4172
 -0.3988  -0.3974  -0.3854  -0.3816  -0.3747  -0.3714  -0.3586  -0.3575
 -- Virtual --
  0.0499   0.0552   0.1247   0.1303   0.1425   0.1467   0.1567   0.1575
  0.1690   0.1700   0.1857   0.1908   0.2104   0.2105   0.2171   0.2172
  0.2229   0.2243   0.2379   0.2449   0.2473   0.2523   0.2560   0.2645
  0.2670   0.2822   0.2879   0.2919   0.3137   0.3185   0.3188   0.3228
  0.3274   0.3415   0.3751   0.3761   0.3938   0.4307   0.4313   0.4374
  0.4935   0.5020   0.5043   0.5095   0.5178   0.5275   0.5597   0.5680
  0.5737   0.5817   0.5881   0.5900   0.6052   0.6083   0.6185   0.6299
  0.6490   0.6537   0.6580   0.6589   0.6669   0.6706   0.6714   0.6923
  0.6929   0.6938   0.7017   0.7142   0.7194   0.7316   0.7396   0.7411
  0.7474   0.7544   0.7569   0.7571   0.7663   0.7766   0.7791   0.7848
  0.7972   0.7977   0.8138   0.8153   0.8224   0.8225   0.8288   0.8517
  0.8898   0.9030   0.9263   0.9269   0.9672   0.9712   1.0034   1.0103
  1.0391   1.0490   1.0659   1.0885   1.1054   1.1081   1.1220   1.1243
  1.1492   1.1735   1.1777   1.1796   1.1913   1.2061   1.2219   1.2270
  1.2339   1.2387   1.2579   1.2711   1.2898   1.2988   1.3423   1.3435
  1.3450   1.3589   1.3858   1.4018   1.4180   1.4255   1.4534   1.4708
  1.5037   1.5076   1.5304   1.5311   1.5550   1.5688   1.5974   1.5992
  1.6258   1.6267   1.6356   1.6467   1.6575   1.6643   1.7225   1.7227
  1.7546   1.7690   1.7758   1.7866   1.8201   1.8309   1.8568   1.8577
  1.8789   1.8927   1.8950   1.9216   1.9513   1.9585   1.9791   1.9883
  2.0361   2.0420   2.0456   2.0475   2.0923   2.1066   2.1395   2.1408
  2.1524   2.1559   2.1653   2.1723   2.1794   2.1881   2.2081   2.2204
  2.2298   2.2382   2.2789   2.2949   2.4280   2.4349   2.4761   2.4866
  2.5622   2.5642   2.6376   2.6399   2.6456   2.6497   2.6720   2.6781
  2.7021   2.7029   2.7071   2.7078   2.7152   2.7219   2.7409   2.7474
  2.7788   2.7847   2.8892   2.8901   2.8964   2.9022   2.9443   2.9448
  2.9761   2.9783   3.0121   3.0141   3.0258   3.0300   3.0466   3.0496
  3.0672   3.0724   3.0959   3.0966   3.1083   3.1095   3.1166   3.1171
  3.1513   3.1644   3.2259   3.2457   3.3957   3.4205   3.4396   3.4409
  3.4799   3.4808   3.4959   3.5005   3.6477   3.6569   3.7321   3.7338
 --------------------------------------------------------------
 
          Ground-State Mulliken Net Atomic Charges

     Atom                 Charge (a.u.)
  ----------------------------------------
      1 O                    -0.518948
      2 C                     0.058393
      3 C                    -0.462997
      4 C                     0.079511
      5 O                    -0.541948
      6 C                     0.097753
      7 O                    -0.486061
      8 C                     0.337650
      9 O                    -0.346903
     10 O                    -0.342762
     11 H                     0.352640
     12 H                     0.131538
     13 H                     0.124520
     14 H                     0.147432
     15 H                     0.117519
     16 H                     0.351560
     17 H                     0.102526
     18 H                     0.108612
     19 H                     0.334850
     20 H                     0.355116
     21 O                    -0.518948
     22 C                     0.058392
     23 C                    -0.462997
     24 C                     0.097753
     25 O                    -0.486060
     26 C                     0.079512
     27 O                    -0.541949
     28 C                     0.337650
     29 O                    -0.346902
     30 O                    -0.342761
     31 H                     0.352640
     32 H                     0.124520
     33 H                     0.131538
     34 H                     0.108612
     35 H                     0.102525
     36 H                     0.334850
     37 H                     0.117518
     38 H                     0.147431
     39 H                     0.351561
     40 H                     0.355116
  ----------------------------------------
  Sum of atomic charges =     0.000000

 -----------------------------------------------------------------
                    Cartesian Multipole Moments
 -----------------------------------------------------------------
    Charge (ESU x 10^10)
                 0.0000
    Dipole Moment (Debye)
         X      -0.0000      Y      -0.0001      Z       0.0000
       Tot       0.0001
    Quadrupole Moments (Debye-Ang)
        XX    -103.7881     XY      -3.9753     YY    -136.1446
        XZ      -6.3586     YZ      -3.5604     ZZ    -123.9549
    Octopole Moments (Debye-Ang^2)
       XXX      -0.0005    XXY      -0.0004    XYY       0.0001
       YYY       0.0004    XXZ      -0.0005    XYZ      -0.0004
       YYZ      -0.0000    XZZ      -0.0003    YZZ      -0.0003
       ZZZ       0.0003
    Hexadecapole Moments (Debye-Ang^3)
      XXXX   -4363.2938   XXXY     -41.2393   XXYY   -1270.3421
      XYYY     -84.8884   YYYY   -1637.1789   XXXZ     -10.7793
      XXYZ     -59.8908   XYYZ     -24.3717   YYYZ     -62.8017
      XXZZ    -910.2430   XYZZ      10.6817   YYZZ    -423.2064
      XZZZ     -30.3941   YZZZ      21.4245   ZZZZ    -872.7875
 -----------------------------------------------------------------
Archival summary:
1\1\c382.cluster\SP\ProcedureUnspecified\BasisUnspecified\101020\petercha\ThuSep2912:18:172022ThuSep2912:18:172022\0\\#,ProcedureUnspecified,BasisUnspecified,\\0,1\O\C,1,1.22212\O,2,1.31048,1,120.332\H,3,1.00794,2,109.544,1,176.945,0\C,2,1.52966,1,120.983,3,179.017,0\C,5,1.54083,2,111.32,1,156.994,0\H,6,1.10326,5,110.936,2,-64.7061,0\H,6,1.10594,5,109.056,2,176.898,0\O,6,1.4165,5,111.765,2,54.4651,0\H,9,0.98812,6,105.181,5,54.8257,0\C,5,1.54524,2,108.575,1,36.2001,0\H,11,1.10379,5,108.239,2,173.727,0\H,11,1.11112,5,108.717,2,57.7015,0\O,11,1.39219,5,113.623,2,-67.6952,0\H,14,0.972281,11,106.642,5,57.0575,0\C,5,1.55338,2,108.76,1,-82.4123,0\H,16,1.10206,5,109.766,2,53.2578,0\H,16,1.10427,5,107.217,2,170.02,0\O,16,1.40731,5,112.693,2,-71.5167,0\H,19,0.985221,16,109.322,5,93.085,0\H,1,1.73491,2,124.756,3,-16.0771,0\O,21,0.985219,1,165.632,2,-83.4673,0\C,22,1.40731,21,109.321,1,63.8498,0\H,23,1.10206,22,111.39,21,30.7947,0\H,23,1.10427,22,107.807,21,148.796,0\C,23,1.55338,22,112.693,21,-93.0865,0\C,26,1.52966,23,108.76,22,71.5179,0\O,27,1.22212,26,120.983,23,82.4124,0\O,27,1.31048,26,118.678,23,-96.6208,0\H,29,1.00794,27,109.544,26,2.09432,0\C,26,1.54084,23,109.39,22,-50.2584,0\H,31,1.10326,26,110.936,23,-175.072,0\H,31,1.10594,26,109.056,23,-56.6756,0\O,31,1.4165,26,111.765,23,65.7571,0\H,34,0.988121,31,105.18,26,-54.8262,0\C,26,1.54524,23,109.11,22,-170.207,0\H,36,1.10379,26,108.239,23,67.8826,0\H,36,1.11112,26,108.717,23,-176.092,0\O,36,1.39219,26,113.623,23,-50.6957,0\H,39,0.972281,36,106.642,26,-57.0577,0\\\@

 Total job time:  468.98s(wall), 1669.31s(cpu) 
 Thu Sep 29 12:18:17 2022

        *************************************************************
        *                                                           *
        *  Thank you very much for using Q-Chem.  Have a nice day.  *
        *                                                           *
        *************************************************************


remove work dirs /scratch/user/peterchao1/peterchao1/6337365_1664471386000000016301599/qchem211841.0 -- /scratch/user/peterchao1/peterchao1/6337365_1664471386000000016301599/qchem211841.-1
rm -rf /scratch/user/peterchao1/peterchao1/6337365_1664471386000000016301599/qchem211841
real 509.31
user 2543.90
sys 76.88
