 Entering Gaussian System, Link 0=g16
 Input=gaussian_test.inp
 Output=gaussian_test.log
 Initial command:
 /sw/restricted/lms/sw/Gaussian/g16_B01/g16/l1.exe "/scratch/user/peterchao1/peterchao1/6931802_1675363831000000461843231/Gau-225008.inp" -scrdir="/scratch/user/peterchao1/peterchao1/6931802_1675363831000000461843231/"
 Entering Link 1 = /sw/restricted/lms/sw/Gaussian/g16_B01/g16/l1.exe PID=    225009.
  
 Copyright (c) 1988-2017, Gaussian, Inc.  All Rights Reserved.
  
 This is part of the Gaussian(R) 16 program.  It is based on
 the Gaussian(R) 09 system (copyright 2009, Gaussian, Inc.),
 the Gaussian(R) 03 system (copyright 2003, Gaussian, Inc.),
 the Gaussian(R) 98 system (copyright 1998, Gaussian, Inc.),
 the Gaussian(R) 94 system (copyright 1995, Gaussian, Inc.),
 the Gaussian 92(TM) system (copyright 1992, Gaussian, Inc.),
 the Gaussian 90(TM) system (copyright 1990, Gaussian, Inc.),
 the Gaussian 88(TM) system (copyright 1988, Gaussian, Inc.),
 the Gaussian 86(TM) system (copyright 1986, Carnegie Mellon
 University), and the Gaussian 82(TM) system (copyright 1983,
 Carnegie Mellon University). Gaussian is a federally registered
 trademark of Gaussian, Inc.
  
 This software contains proprietary and confidential information,
 including trade secrets, belonging to Gaussian, Inc.
  
 This software is provided under written license and may be
 used, copied, transmitted, or stored only in accord with that
 written license.
  
 The following legend is applicable only to US Government
 contracts under FAR:
  
                    RESTRICTED RIGHTS LEGEND
  
 Use, reproduction and disclosure by the US Government is
 subject to restrictions as set forth in subparagraphs (a)
 and (c) of the Commercial Computer Software - Restricted
 Rights clause in FAR 52.227-19.
  
 Gaussian, Inc.
 340 Quinnipiac St., Bldg. 40, Wallingford CT 06492
  
  
 ---------------------------------------------------------------
 Warning -- This program may not be used in any manner that
 competes with the business of Gaussian, Inc. or will provide
 assistance to any competitor of Gaussian, Inc.  The licensee
 of this program is prohibited from giving any competitor of
 Gaussian, Inc. access to this program.  By using this program,
 the user acknowledges that Gaussian, Inc. is engaged in the
 business of creating and licensing software in the field of
 computational chemistry and represents and warrants to the
 licensee that it is not a competitor of Gaussian, Inc. and that
 it will not use this program in any manner prohibited above.
 ---------------------------------------------------------------
  

 Cite this work as:
 Gaussian 16, Revision B.01,
 M. J. Frisch, G. W. Trucks, H. B. Schlegel, G. E. Scuseria, 
 M. A. Robb, J. R. Cheeseman, G. Scalmani, V. Barone, 
 G. A. Petersson, H. Nakatsuji, X. Li, M. Caricato, A. V. Marenich, 
 J. Bloino, B. G. Janesko, R. Gomperts, B. Mennucci, H. P. Hratchian, 
 J. V. Ortiz, A. F. Izmaylov, J. L. Sonnenberg, D. Williams-Young, 
 F. Ding, F. Lipparini, F. Egidi, J. Goings, B. Peng, A. Petrone, 
 T. Henderson, D. Ranasinghe, V. G. Zakrzewski, J. Gao, N. Rega, 
 G. Zheng, W. Liang, M. Hada, M. Ehara, K. Toyota, R. Fukuda, 
 J. Hasegawa, M. Ishida, T. Nakajima, Y. Honda, O. Kitao, H. Nakai, 
 T. Vreven, K. Throssell, J. A. Montgomery, Jr., J. E. Peralta, 
 F. Ogliaro, M. J. Bearpark, J. J. Heyd, E. N. Brothers, K. N. Kudin, 
 V. N. Staroverov, T. A. Keith, R. Kobayashi, J. Normand, 
 K. Raghavachari, A. P. Rendell, J. C. Burant, S. S. Iyengar, 
 J. Tomasi, M. Cossi, J. M. Millam, M. Klene, C. Adamo, R. Cammi, 
 J. W. Ochterski, R. L. Martin, K. Morokuma, O. Farkas, 
 J. B. Foresman, and D. J. Fox, Gaussian, Inc., Wallingford CT, 2016.
 
 ******************************************
 Gaussian 16:  ES64L-G16RevB.01 20-Dec-2017
                 2-Feb-2023 
 ******************************************
 %chk=32.chk
 %nprocshared=4
 Will use up to    4 processors via shared memory.
 %mem=8000mb
 --------------------------------------------------------------
 #T wB97XD//def2svpp Volume=tight Geom=AllCheckpoint Guess=Read
 --------------------------------------------------------------
 Structure from the checkpoint file:  "32.chk"
 -------
 Monomer
 -------
 Charge =  0 Multiplicity = 1
 Redundant internal coordinates found in file.  (old form).
 C,0,-2.8222497836,0.2254141713,0.0001642292
 C,0,-1.4466489842,-0.4349601684,-0.0003017563
 C,0,-0.3123054523,0.5828114412,0.0002570473
 C,0,1.0590539113,-0.0470408763,-0.0001899294
 O,0,2.0325388282,0.8797195171,0.0003207078
 O,0,1.2949997116,-1.2255219799,-0.0009116413
 H,0,-2.9621507137,0.8634199566,-0.8907981084
 H,0,-2.962063744,0.8623430836,0.8919103511
 H,0,-3.6249677759,-0.5310150946,-0.0002535496
 H,0,-1.3410575991,-1.0920751422,-0.8804575934
 H,0,-1.340971466,-1.0931372272,0.8790498002
 H,0,-0.3728548604,1.2505155686,0.8794711362
 H,0,-0.3729405785,1.2515761179,-0.8781447204
 H,0,2.8813124943,0.4035473386,-0.0000079332
 Recover connectivity data from disk.
                           ----------------------------
                           !    Current Parameters    !
                           ! (Angstroms and Degrees)  !
 --------------------------                            --------------------------
 ! Name  Definition              Value                                          !
 --------------------------------------------------------------------------------
 ! R1    R(1,2)                  1.5259                                         !
 ! R2    R(1,7)                  1.1047                                         !
 ! R3    R(1,8)                  1.1047                                         !
 ! R4    R(1,9)                  1.103                                          !
 ! R5    R(2,3)                  1.524                                          !
 ! R6    R(2,10)                 1.1035                                         !
 ! R7    R(2,11)                 1.1035                                         !
 ! R8    R(3,4)                  1.5091                                         !
 ! R9    R(3,12)                 1.1057                                         !
 ! R10   R(3,13)                 1.1057                                         !
 ! R11   R(4,5)                  1.3441                                         !
 ! R12   R(4,6)                  1.2019                                         !
 ! R13   R(5,14)                 0.9732                                         !
 ! A1    A(2,1,7)              111.3371                                         !
 ! A2    A(2,1,8)              111.3371                                         !
 ! A3    A(2,1,9)              111.0566                                         !
 ! A4    A(7,1,8)              107.5785                                         !
 ! A5    A(7,1,9)              107.674                                          !
 ! A6    A(8,1,9)              107.674                                          !
 ! A7    A(1,2,3)              112.4565                                         !
 ! A8    A(1,2,10)             110.1348                                         !
 ! A9    A(1,2,11)             110.1348                                         !
 ! A10   A(3,2,10)             109.0723                                         !
 ! A11   A(3,2,11)             109.0723                                         !
 ! A12   A(10,2,11)            105.7401                                         !
 ! A13   A(2,3,4)              113.4316                                         !
 ! A14   A(2,3,12)             111.2737                                         !
 ! A15   A(2,3,13)             111.2737                                         !
 ! A16   A(4,3,12)             107.5806                                         !
 ! A17   A(4,3,13)             107.5806                                         !
 ! A18   A(12,3,13)            105.276                                          !
 ! A19   A(3,4,5)              111.7397                                         !
 ! A20   A(3,4,6)              125.9905                                         !
 ! A21   A(5,4,6)              122.2699                                         !
 ! A22   A(4,5,14)             107.1156                                         !
 ! D1    D(7,1,2,3)             60.0228                                         !
 ! D2    D(7,1,2,10)           -61.8563                                         !
 ! D3    D(7,1,2,11)          -178.0982                                         !
 ! D4    D(8,1,2,3)            -60.0228                                         !
 ! D5    D(8,1,2,10)           178.0981                                         !
 ! D6    D(8,1,2,11)            61.8562                                         !
 ! D7    D(9,1,2,3)            180.0                                            !
 ! D8    D(9,1,2,10)            58.1209                                         !
 ! D9    D(9,1,2,11)           -58.121                                          !
 ! D10   D(1,2,3,4)            180.0                                            !
 ! D11   D(1,2,3,12)            58.5327                                         !
 ! D12   D(1,2,3,13)           -58.5328                                         !
 ! D13   D(10,2,3,4)           -57.5196                                         !
 ! D14   D(10,2,3,12)         -178.9868                                         !
 ! D15   D(10,2,3,13)           63.9477                                         !
 ! D16   D(11,2,3,4)            57.5196                                         !
 ! D17   D(11,2,3,12)          -63.9477                                         !
 ! D18   D(11,2,3,13)          178.9868                                         !
 ! D19   D(2,3,4,5)            179.9999                                         !
 ! D20   D(2,3,4,6)             -0.0001                                         !
 ! D21   D(12,3,4,5)           -56.487                                          !
 ! D22   D(12,3,4,6)           123.513                                          !
 ! D23   D(13,3,4,5)            56.4869                                         !
 ! D24   D(13,3,4,6)          -123.5131                                         !
 ! D25   D(3,4,5,14)           180.0                                            !
 ! D26   D(6,4,5,14)             0.0                                            !
 --------------------------------------------------------------------------------
                    Distance matrix (angstroms):
                    1          2          3          4          5
     1  C    0.000000
     2  C    1.525900   0.000000
     3  C    2.535262   1.524006   0.000000
     4  C    3.890855   2.535553   1.509086   0.000000
     5  O    4.898682   3.719292   2.363567   1.344083   0.000000
     6  O    4.365428   2.853353   2.419401   1.201869   2.230697
     7  H    1.104734   2.185296   2.809698   4.218081   5.073587
     8  H    1.104734   2.185296   2.809698   4.218081   5.073587
     9  H    1.102969   2.180436   3.494902   4.708959   5.830742
    10  H    2.169148   1.103460   2.153888   2.761793   4.005608
    11  H    2.169148   1.103460   2.153888   2.761793   4.005609
    12  H    2.797061   2.183544   1.105673   2.123163   2.587724
    13  H    2.797061   2.183544   1.105673   2.123162   2.587723
    14  H    5.706343   4.408440   3.198645   1.877140   0.973220
                    6          7          8          9         10
     6  O    0.000000
     7  H    4.824822   0.000000
     8  H    4.824821   1.782709   0.000000
     9  H    4.968744   1.782371   1.782371   0.000000
    10  H    2.782123   2.540081   3.096563   2.511134   0.000000
    11  H    2.782122   3.096563   2.540080   2.511134   1.759508
    12  H    3.112487   3.160403   2.618174   3.811037   3.085854
    13  H    3.112487   2.618174   3.160404   3.811037   2.535736
    14  H    2.273820   5.928832   5.928833   6.573058   4.565138
                   11         12         13         14
    11  H    0.000000
    12  H    2.535736   0.000000
    13  H    3.085854   1.757616   0.000000
    14  H    4.565138   3.475693   3.475693   0.000000
 Framework group  C1[X(C4H8O2)]
 Deg. of freedom    36
                         Standard orientation:                         
 ---------------------------------------------------------------------
 Center     Atomic      Atomic             Coordinates (Angstroms)
 Number     Number       Type             X           Y           Z
 ---------------------------------------------------------------------
      1          6           0        2.725834   -0.207821    0.000000
      2          6           0        1.351556    0.455303   -0.000001
      3          6           0        0.215180   -0.560199    0.000000
      4          6           0       -1.154917    0.072394    0.000000
      5          8           0       -2.130253   -0.852418   -0.000000
      6          8           0       -1.388506    1.251345    0.000000
      7          1           0        2.864416   -0.845568   -0.891353
      8          1           0        2.864416   -0.845566    0.891355
      9          1           0        3.530063    0.547002   -0.000001
     10          1           0        1.247237    1.113158   -0.879755
     11          1           0        1.247237    1.113159    0.879753
     12          1           0        0.274436   -1.228553    0.878809
     13          1           0        0.274436   -1.228554   -0.878807
     14          1           0       -2.978073   -0.374550   -0.000000
 ---------------------------------------------------------------------
 Rotational constants (GHZ):           9.0877995           1.8301626           1.5679750
   100 basis functions,   182 primitive gaussians,   106 cartesian basis functions
    24 alpha electrons       24 beta electrons
       nuclear repulsion energy       238.4749762285 Hartrees.
 NAtoms=   14 NActive=   14 NUniq=   14 SFac= 1.00D+00 NAtFMM=   60 NAOKFM=F Big=F
 Nuclear repulsion after empirical dispersion term =      238.4690471768 Hartrees.
   1 Symmetry operations used in ECPInt.
 ECPInt:  NShTT=    1378 NPrTT=    5562 LenC2=    1368 LenP2D=    4480.
 LDataN:  DoStor=T MaxTD1= 4 Len=   56
 Initial guess from the checkpoint file:  "32.chk"
 B after Tr=    -0.000000   -0.000000    0.000000
         Rot=    1.000000    0.000000    0.000000    0.000000 Ang=   0.00 deg.
 Skip diagonalization as Alpha Fock matrix is already diagonal.
 SCF Done:  E(RwB97XD) =  -307.372604067     A.U. after    1 cycles
            NFock=  1  Conv=0.00D+00     -V/T= 2.0089

 **********************************************************************

            Population analysis using the SCF Density.

 **********************************************************************

 Orbital symmetries:
       Occupied  (A) (A) (A) (A) (A) (A) (A) (A) (A) (A) (A) (A)
                 (A) (A) (A) (A) (A) (A) (A) (A) (A) (A) (A) (A)
       Virtual   (A) (A) (A) (A) (A) (A) (A) (A) (A) (A) (A) (A)
                 (A) (A) (A) (A) (A) (A) (A) (A) (A) (A) (A) (A)
                 (A) (A) (A) (A) (A) (A) (A) (A) (A) (A) (A) (A)
                 (A) (A) (A) (A) (A) (A) (A) (A) (A) (A) (A) (A)
                 (A) (A) (A) (A) (A) (A) (A) (A) (A) (A) (A) (A)
                 (A) (A) (A) (A) (A) (A) (A) (A) (A) (A) (A) (A)
                 (A) (A) (A) (A)
 The electronic state is 1-A.
 Alpha  occ. eigenvalues --  -19.30204 -19.24583 -10.43044 -10.30839 -10.29487
 Alpha  occ. eigenvalues --  -10.28655  -1.20446  -1.10766  -0.89689  -0.81478
 Alpha  occ. eigenvalues --   -0.72209  -0.66611  -0.58680  -0.57927  -0.57079
 Alpha  occ. eigenvalues --   -0.52912  -0.50926  -0.48786  -0.46914  -0.44266
 Alpha  occ. eigenvalues --   -0.42986  -0.41731  -0.40802  -0.36369
 Alpha virt. eigenvalues --    0.08833   0.13407   0.14575   0.17951   0.18310
 Alpha virt. eigenvalues --    0.19670   0.22801   0.23937   0.24781   0.28630
 Alpha virt. eigenvalues --    0.29933   0.33399   0.36766   0.41934   0.50765
 Alpha virt. eigenvalues --    0.53463   0.54198   0.54391   0.57122   0.60752
 Alpha virt. eigenvalues --    0.63921   0.66167   0.71207   0.73026   0.74043
 Alpha virt. eigenvalues --    0.76630   0.77664   0.79370   0.79892   0.80389
 Alpha virt. eigenvalues --    0.81132   0.81427   0.81556   0.84970   0.89976
 Alpha virt. eigenvalues --    0.92390   1.00479   1.05283   1.06748   1.11224
 Alpha virt. eigenvalues --    1.14644   1.20889   1.33424   1.35908   1.45268
 Alpha virt. eigenvalues --    1.51494   1.54769   1.65169   1.75060   1.80217
 Alpha virt. eigenvalues --    1.82858   1.87930   1.96074   1.98758   1.99315
 Alpha virt. eigenvalues --    2.08811   2.13083   2.14081   2.22503   2.29585
 Alpha virt. eigenvalues --    2.35013   2.38833   2.39204   2.54726   2.63247
 Alpha virt. eigenvalues --    2.66359   2.72522   2.72920   2.79774   2.97143
 Alpha virt. eigenvalues --    3.00469   3.12683   3.27773   3.36308   3.66454
 Alpha virt. eigenvalues --    3.72116
          Condensed to atoms (all electrons):
 Mulliken charges:
               1
     1  C   -0.312602
     2  C   -0.229083
     3  C   -0.269506
     4  C    0.208534
     5  O   -0.370415
     6  O   -0.241054
     7  H    0.114331
     8  H    0.114331
     9  H    0.127002
    10  H    0.121694
    11  H    0.121694
    12  H    0.139581
    13  H    0.139581
    14  H    0.335913
 Sum of Mulliken charges =  -0.00000
 Mulliken charges with hydrogens summed into heavy atoms:
               1
     1  C    0.043061
     2  C    0.014304
     3  C    0.009657
     4  C    0.208534
     5  O   -0.034503
     6  O   -0.241054
 Electronic spatial extent (au):  <R**2>=            760.8435
 Charge=              0.0000 electrons
 Dipole moment (field-independent basis, Debye):
    X=              0.1444    Y=             -1.4231    Z=             -0.0000  Tot=              1.4304
 Evaluate density.
 Using the total density.
 Monte-Carlo method of calculating molar volume:
 based on  0.001 e/bohr**3 density envelope.
 Number of points per bohr**3 =  100 CutOff= 1.00D-04
 Using the SCF density.
 There are      1590 points.  Will hold      1590 in memory.
 LenV=  1048390379 MDV=  1048576000.
 Box volume = 4021.707 fraction occupied=0.213
 Integrated density= 4.5097576178877176D+01 error=-2.9024238211228237D+00
 Molar volume =  854.929 bohr**3/mol ( 76.293 cm**3/mol)
 Recommended a0 for SCRF calculation =  3.93 angstrom (  7.43 bohr)
 1\1\GINC-C518\SP\RwB97XD\def2SVPP\C4H8O2\PETERCHAO1\02-Feb-2023\0\\#T 
 wB97XD//def2svpp Volume=tight Geom=AllCheckpoint Guess=Read\\Monomer\\
 0,1\C,0,-2.8222497836,0.2254141713,0.0001642292\C,0,-1.4466489842,-0.4
 349601684,-0.0003017563\C,0,-0.3123054523,0.5828114412,0.0002570473\C,
 0,1.0590539113,-0.0470408763,-0.0001899294\O,0,2.0325388282,0.87971951
 71,0.0003207078\O,0,1.2949997116,-1.2255219799,-0.0009116413\H,0,-2.96
 21507137,0.8634199566,-0.8907981084\H,0,-2.962063744,0.8623430836,0.89
 19103511\H,0,-3.6249677759,-0.5310150946,-0.0002535496\H,0,-1.34105759
 91,-1.0920751422,-0.8804575934\H,0,-1.340971466,-1.0931372272,0.879049
 8002\H,0,-0.3728548604,1.2505155686,0.8794711362\H,0,-0.3729405785,1.2
 515761179,-0.8781447204\H,0,2.8813124943,0.4035473386,-0.0000079332\\V
 ersion=ES64L-G16RevB.01\State=1-A\HF=-307.3726041\RMSD=0.000e+00\Dipol
 e=-0.0579252,0.5597714,0.0003402\Quadrupole=3.3904991,-3.8989492,0.508
 4501,1.1742127,0.0005659,-0.0027132\PG=C01 [X(C4H8O2)]\\@


 IF YOU'RE NOT PART OF THE SOLUTION,
 THEN YOU'RE PART OF THE PRECIPITATE.
 Job cpu time:       0 days  0 hours  0 minutes  7.4 seconds.
 Elapsed time:       0 days  0 hours  0 minutes  2.1 seconds.
 File lengths (MBytes):  RWF=     10 Int=      0 D2E=      0 Chk=      2 Scr=      1
 Normal termination of Gaussian 16 at Thu Feb  2 12:58:12 2023.
