You are running Q-Chem version: 5.3.2

#
# job setting
#
local host:  c010.cluster
current dir: /scratch/user/peterchao1/peterchao1/7000866_1675661380000000418914531
input file:  qchem_test.inp
output file: 
nprocs     : 0
nthreads   : 8
#
# qchem installation setting
#
QC:          /sw/restricted/qchem/sw/5.3.2
QCAUX:       /sw/restricted/qchem/sw/5.3.2/qcaux
QCPROG:      /sw/restricted/qchem/sw/5.3.2/exe/qcprog.exe_s
QCPROG_S:    /sw/restricted/qchem/sw/5.3.2/exe/qcprog.exe_s
PARALLEL:    -DSERIAL
QCMPI:       seq
#
# qchem directory setting
#
qcrun:       qchem97214
QCSCRATCH:   /scratch/user/peterchao1/peterchao1/7000866_1675661380000000418914531
QCLOCALSCR:  
QCTMPDIR:    /scratch/user/peterchao1/peterchao1/7000866_1675661380000000418914531
QCFILEPREF:  /scratch/user/peterchao1/peterchao1/7000866_1675661380000000418914531/qchem97214
QCSAVEDIR:   
workdirs:    /scratch/user/peterchao1/peterchao1/7000866_1675661380000000418914531/qchem97214
workdir0:    /scratch/user/peterchao1/peterchao1/7000866_1675661380000000418914531/qchem97214
partmpdirs =  
#
# parallel setting
#
QCRSH:           ssh
QCMPI:           seq
QCMPIRUN:        
QCMACHINEFILE:   /scratch/user/peterchao1/peterchao1/7000866_1675661380000000418914531/qchem97214/hostfile

#
# env setting
#
exported envs:   QC QCAUX QCSCRATCH QCRUNNAME QCFILEPREF QCPROG QCPROG_S GUIFILE

Running Job 1 of 1 qchem_test.inp
qchem qchem_test.inp_97214.0 /scratch/user/peterchao1/peterchao1/7000866_1675661380000000418914531/qchem97214/ 0
/sw/restricted/qchem/sw/5.3.2/exe/qcprog.exe_s qchem_test.inp_97214.0 /scratch/user/peterchao1/peterchao1/7000866_1675661380000000418914531/qchem97214/
                  Welcome to Q-Chem
     A Quantum Leap Into The Future Of Chemistry


 Q-Chem 5.3, Q-Chem, Inc., Pleasanton, CA (2020)

 License issued to: MRG Daniel Tabor and Mike Hall, Texas A&M University

 Yihan Shao,  Zhengting Gan,  E. Epifanovsky,  A. T. B. Gilbert,  M. Wormit,  
 J. Kussmann,  A. W. Lange,  A. Behn,  Jia Deng,  Xintian Feng,  D. Ghosh,  
 M. Goldey,  P. R. Horn,  L. D. Jacobson,  I. Kaliman,  T. Kus,  A. Landau,  
 Jie Liu,  E. I. Proynov,  R. M. Richard,  R. P. Steele,  E. J. Sundstrom,  
 H. L. Woodcock III,  P. M. Zimmerman,  D. Zuev,  B. Alam,  B. Albrecht,  
 A. Aldossary,  E. Alguire,  S. A. Baeppler,  D. Barton,  Z. Benda,  
 Y. A. Bernard,  E. J. Berquist,  K. B. Bravaya,  H. Burton,  K. Carter-Fenk,  
 D. Casanova,  Chun-Min Chang,  Yunqing Chen,  A. Chien,  K. D. Closser,  
 M. P. Coons,  S. Coriani,  S. Dasgupta,  A. L. Dempwolff,  M. Diedenhofen,  
 Hainam Do,  R. G. Edgar,  Po-Tung Fang,  S. Faraji,  S. Fatehi,  
 Qingguo Feng,  J. Fosso-Tande,  J. Gayvert,  Qinghui Ge,  A. Ghysels,  
 G. Gidofalvi,  J. Gomes,  J. Gonthier,  S. Gulania,  A. Gunina,  D. Hait,  
 M. W. D. Hanson-Heine,  S. Hammes-Schiffer,  P. H. P. Harbach,  
 A. W. Hauser,  M. F. Herbst,  J. E. Herr,  E. G. Hohenstein,  Z. C. Holden,  
 S. Houck,  Kerwin Hui,  B. C. Huynh,  M. Ivanov,  T.-C. Jagau,  Hyunjun Ji,  
 B. Kaduk,  K. Khistyaev,  Jaehoon Kim,  P. Klunzinger,  K. Koh,  
 D. Kosenkov,  L. Koulias,  T. Kowalczyk,  C. M. Krauter,  A. Kunitsa,  
 Ka Un Lao,  A. Laurent,  K. V. Lawler,  Joonho Lee,  D. Lefrancois,  
 S. Lehtola,  D. S. Levine,  Yi-Pei Li,  You-Sheng Lin,  Fenglai Liu,  
 Kuan-Yu Liu,  E. Livshits,  M. Loipersberger,  A. Luenser,  A. Manjanath,  
 P. Manohar,  E. Mansoor,  S. F. Manzer,  Shan-Ping Mao,  Yuezhi Mao,  
 N. Mardirossian,  A. V. Marenich,  T. Markovich,  L. A. Martinez-Martinez,  
 S. A. Maurer,  N. J. Mayhall,  S. C. McKenzie,  J.-M. Mewes,  P. Morgante,  
 A. F. Morrison,  J. W. Mullinax,  K. Nanda,  T. S. Nguyen-Beck,  
 R. Olivares-Amaya,  K. J. Oosterbaan,  J. A. Parkhill,  S. K. Paul,  
 F. Pavosevic,  Zheng Pei,  T. M. Perrine,  F. Plasser,  P. Pokhilko,  
 S. Prager,  A. Prociuk,  E. Ramos,  B. Rana,  D. R. Rehn,  F. Rob,  
 E. Rossomme,  M. Scheurer,  M. Schneider,  N. Sergueev,  S. M. Sharada,  
 S. Sharma,  W. Skomorowski,  D. W. Small,  T. Stauch,  C. J. Stein,  
 T. Stein,  Yu-Chuan Su,  S. P. Veccham,  Zhen Tao,  A. J. W. Thom,  
 A. Tkatchenko,  T. Tsuchimochi,  N. M. Tubman,  L. Vogt,  M. L. Vidal,  
 O. Vydrov,  M. A. Watson,  J. Wenzel,  M. de Wergifosse,  T. A. Wesolowski,  
 A. White,  J. Witte,  A. Yamada,  Jun Yang,  K. Yao,  S. Yeganeh,  
 S. R. Yost,  Zhi-Qiang You,  A. Zech,  Igor Ying Zhang,  Xing Zhang,  
 Yan Zhao,  Ying Zhu,  B. R. Brooks,  G. K. L. Chan,  C. J. Cramer,  
 M. S. Gordon,  W. J. Hehre,  A. Klamt,  M. W. Schmidt,  C. D. Sherrill,  
 D. G. Truhlar,  A. Aspuru-Guzik,  R. Baer,  A. T. Bell,  N. A. Besley,  
 Jeng-Da Chai,  A. E. DePrince, III,  R. A. DiStasio Jr.,  A. Dreuw,  
 B. D. Dunietz,  T. R. Furlani,  Chao-Ping Hsu,  Yousung Jung,  Jing Kong,  
 D. S. Lambrecht,  WanZhen Liang,  C. Ochsenfeld,  V. A. Rassolov,  
 L. V. Slipchenko,  J. E. Subotnik,  T. Van Voorhis,  J. M. Herbert,  
 A. I. Krylov,  P. M. W. Gill,  M. Head-Gordon

 Contributors to earlier versions of Q-Chem not listed above: 
 R. D. Adamson,  B. Austin,  J. Baker,  G. J. O. Beran,  K. Brandhorst,  
 S. T. Brown,  E. F. C. Byrd,  A. K. Chakraborty,  C.-L. Cheng,  
 Siu Hung Chien,  D. M. Chipman,  D. L. Crittenden,  H. Dachsel,  
 R. J. Doerksen,  A. D. Dutoi,  L. Fusti-Molnar,  W. A. Goddard III,  
 A. Golubeva-Zadorozhnaya,  S. R. Gwaltney,  G. Hawkins,  A. Heyden,  
 S. Hirata,  G. Kedziora,  F. J. Keil,  C. Kelley,  Jihan Kim,  R. A. King,  
 R. Z. Khaliullin,  P. P. Korambath,  W. Kurlancheek,  A. M. Lee,  M. S. Lee,  
 S. V. Levchenko,  Ching Yeh Lin,  D. Liotard,  R. C. Lochan,  I. Lotan,  
 P. E. Maslen,  N. Nair,  D. P. O'Neill,  D. Neuhauser,  E. Neuscamman,  
 C. M. Oana,  R. Olson,  B. Peters,  R. Peverati,  P. A. Pieniazek,  
 Y. M. Rhee,  J. Ritchie,  M. A. Rohrdanz,  E. Rosta,  N. J. Russ,  
 H. F. Schaefer III,  N. E. Schultz,  N. Shenvi,  A. C. Simmonett,  A. Sodt,  
 D. Stuck,  K. S. Thanthiriwatte,  V. Vanovschi,  Tao Wang,  A. Warshel,  
 C. F. Williams,  Q. Wu,  X. Xu,  W. Zhang

 Please cite Q-Chem as follows:
 Y. Shao et al., Mol. Phys. 113, 184-215 (2015)
 DOI: 10.1080/00268976.2014.952696

 Q-Chem 5.3.2 for Intel X86 EM64T Linux

 Parts of Q-Chem use Armadillo 9.800.1 (Horizon Scraper).
 http://arma.sourceforge.net/

 Q-Chem begins on Sun Feb  5 23:29:40 2023  

Host: 
0

     Scratch files written to /scratch/user/peterchao1/peterchao1/7000866_1675661380000000418914531/qchem97214//
 Dec820 |scratch|qcdevops|jenkins|workspace|build_RNUM -1
Processing $rem in /sw/restricted/qchem/sw/5.3.2/config/preferences:
Processing $rem in /home/peterchao1/.qchemrc:

 Q-Chem warning in module libgen/rem_setup.C, line 2945:

 Neither GIA nor STOLL is specified by user. Use STOLL as the default


Checking the input file for inconsistencies... 	...done.

--------------------------------------------------------------
User input:
--------------------------------------------------------------
$molecule
0 1
--
0 1
C        4.206564   -0.659438    0.000043
C        3.355559    0.601466   -0.000052
C        1.870453    0.334299   -0.000012
O        1.144113    1.422053    0.000032
O        1.403313   -0.795746   -0.000028
H        5.277600   -0.398390   -0.000013
H        3.999577   -1.277834   -0.888267
H        3.999631   -1.277666    0.888482
H        3.569758    1.236993   -0.877766
H        3.569789    1.237158    0.877531
H        0.159823    1.198169    0.000030
--
0 1
C       -4.206562    0.659443   -0.000017
C       -3.355560   -0.601464    0.000008
C       -1.870454   -0.334300    0.000008
O       -1.144116   -1.422056   -0.000007
O       -1.403310    0.795743    0.000026
H       -5.277598    0.398398   -0.000015
H       -3.999599    1.277738   -0.888403
H       -3.999603    1.277771    0.888346
H       -3.569775   -1.237092   -0.877626
H       -3.569778   -1.237054    0.877670
H       -0.159827   -1.198174   -0.000013
$end

$rem
JOBTYPE           eda
EDA2              2
METHOD            wB97x-D
BASIS             def2-SV(P)
SCF_CONVERGENCE   8
THRESH            14
SYMMETRY          false
DISP_FREE_X       wB97X-D
DISP_FREE_C       none
EDA_BSSE          true
$end
--------------------------------------------------------------
 ----------------------------------------------------------------
             Standard Nuclear Orientation (Angstroms)
    I     Atom           X                Y                Z
 ----------------------------------------------------------------
    1      C       4.2065640179    -0.6594381078     0.0000429092
    2      C       3.3555590315     0.6014659014    -0.0000522387
    3      C       1.8704530286     0.3342989174    -0.0000121772
    4      O       1.1441130403     1.4220529252     0.0000316951
    5      O       1.4033130164    -0.7957460776    -0.0000280224
    6      H       5.2776000207    -0.3983901193    -0.0000131440
    7      H       3.9995769952    -1.2778342206    -0.8882670070
    8      H       3.9996310273    -1.2776659905     0.8884819930
    9      H       3.5697580224     1.2369927854    -0.8777663249
   10      H       3.5697890542     1.2371580127     0.8775306751
   11      H       0.1598230379     1.1981689358     0.0000297419
   12      C      -4.2065619679     0.6594429828    -0.0000171092
   13      C      -3.3555599815    -0.6014640264     0.0000080387
   14      C      -1.8704539786    -0.3343000424     0.0000079772
   15      O      -1.1441159903    -1.4220560502    -0.0000068951
   16      O      -1.4033099664     0.7957429526     0.0000258224
   17      H      -5.2775979707     0.3983979943    -0.0000150560
   18      H      -3.9995989773     1.2777378655    -0.8884031930
   19      H      -3.9996029452     1.2777710956     0.8883458070
   20      H      -3.5697750042    -1.2370921378    -0.8776258751
   21      H      -3.5697779724    -1.2370539104     0.8776701249
   22      H      -0.1598269879    -1.1981740608    -0.0000129419
 ----------------------------------------------------------------
 Molecular Point Group                 C1    NOp =  1
 Largest Abelian Subgroup              C1    NOp =  1
 Nuclear Repulsion Energy =         545.38300578 hartrees
 There are       40 alpha and       40 beta electrons
 Requested basis set is def2-SV(P)
 There are 84 shells and 164 basis functions

 Total QAlloc Memory Limit   7500 MB
 Mega-Array Size       188 MB
 MEM_STATIC part       192 MB
 A cutoff of  1.0D-14 yielded   3084 shell pairs
 There are     11612 function pairs (     12973 Cartesian)
 Smallest overlap matrix eigenvalue = 2.03E-03

 Scale SEOQF with 1.000000e-02/1.000000e+00/1.000000e+00

 Standard Electronic Orientation quadrupole field applied
 Nucleus-field energy     =     0.0000000449 hartrees

 -----------------------------------------------------------------------
  General SCF calculation program by
  Eric Jon Sundstrom, Paul Horn, Yuezhi Mao, Dmitri Zuev, Alec White,
  David Stuck, Shaama M.S., Shane Yost, Joonho Lee, David Small,
  Daniel Levine, Susi Lehtola, Hugh Burton, Evgeny Epifanovsky,
  Bang C. Huynh
 -----------------------------------------------------------------------
================================================================
                 ALMO-EDA with the EDA2 driver                  
================================================================
 The second-generation ALMO-EDA (for DFT):                      
 P. R. Horn, Y. Mao and M. Head-Gordon, PCCP, 18, 23067 (2016)  
 Decomposition of the frozen energy:                            
 P. R. Horn, Y. Mao and M. Head-Gordon, JCP, 144, 114107 (2016) 
Using eda2 option set 2
Option set summary: Frozen orbital wavefunction, initial wavefunction decomposition, and traditional AO-based POL.
--------------------------------
Printing EDA Options
--------------------------------
eda_child_super_basis      0
fragmo_guess_mode          0
child_mp                   0
child_mp_orders            0
cls_elec                   1
cls_disp                   0
scfmi_mode                 1
scfmi_occs                 0
scfmi_virts                0
frz_relax                  0
frz_relax_method           0
dc_pen_start               0
dc_pen_conv                0
dc_pen_increment           0
dc_pen_steps               0
dc_pen_thresh_factor       0
dc_pen_pre_newton_thresh   0
frz_ortho_decomp           1
frz_ortho_decomp_conv      6
plot_mo_ortho_frz          0
frgm_method                2
scfmi_freeze_ss            0
separate_rehyb             0
plot_diff_den              0
eda_nocv                   0
eda_vct_relax              1
disp_free_x                -110
disp_free_c                0
eda_bsse                   1
eda_pct_a                  0
eda_covp                   0
--------------------------------
Attempting to make child job directory: /scratch/user/peterchao1/peterchao1/7000866_1675661380000000418914531/qchem97214//Frg1/
Attempting to make child job directory: /scratch/user/peterchao1/peterchao1/7000866_1675661380000000418914531/qchem97214//Frg2/
Creating input file /scratch/user/peterchao1/peterchao1/7000866_1675661380000000418914531/qchem97214/Frg1.input
using default PutDataFrgm: nothing
calling putenv with: QCSCRATCH=/scratch/user/peterchao1/peterchao1/7000866_1675661380000000418914531/qchem97214/ 
Spawning Job For Fragment 0
Done Job For Fragment 0
calling putenv with: QCSCRATCH=/scratch/user/peterchao1/peterchao1/7000866_1675661380000000418914531 
calling putenv with: QCTHREADS=8 
Creating input file /scratch/user/peterchao1/peterchao1/7000866_1675661380000000418914531/qchem97214/Frg2.input
using default PutDataFrgm: nothing
calling putenv with: QCSCRATCH=/scratch/user/peterchao1/peterchao1/7000866_1675661380000000418914531/qchem97214/ 
Spawning Job For Fragment 1
Done Job For Fragment 1
calling putenv with: QCSCRATCH=/scratch/user/peterchao1/peterchao1/7000866_1675661380000000418914531 
calling putenv with: QCTHREADS=8 
Doing General SCFMI
 Exchange:     0.2220 Hartree-Fock + 1.0000 wB97X-D + LR-HF
 Correlation:  1.0000 wB97X-D
 Using SG-2 standard quadrature grid
 Dispersion:   Grimme D
performing fock build before subrot guess so that all methods have access
Printing subrot_rss_gen Method Specification:
Occupied Subspace Method is 0
Virtual Subspace Method is 0
Energy of the unrelaxed supersystem initial determinant -536.187205916951
write pseudocanon occs and virts to disk
write pseudocanon orbital energies to disk
Tolerance of ortho_decomp_scf: 1.00e-06
GDM subspace size: 20
Beginning the Orthogonal Decomposition of the Initial Supersystem Wavefunction
    1    -536.0452109095      1.15e-01     ortho_decomp Preconditoned Steepest Descent
    2    -536.0614633649      1.80e-03     ortho_decomp BFGS Step
    3    -536.0614834240      1.19e-04     ortho_decomp BFGS Step
    4    -536.0614834772      4.76e-06     ortho_decomp BFGS Step
    5    -536.0614834773      1.54e-07     ortho_decomp 00000 Convergence criterion met
 Exchange:     0.2220 Hartree-Fock + 1.0000 wB97X-D + LR-HF
 Correlation:  1.0000 wB97X-D
 Using SG-2 standard quadrature grid
 Dispersion:   Grimme D
 Long-range K will be added via erf
 Coulomb attenuation parameter = 0.2 bohr**(-1)
 Exchange:     0.2220 Hartree-Fock + 1.0000 wB97X-D + LR-HF
 Correlation:  1.0000 wB97X-D
 Using SG-2 standard quadrature grid
 Dispersion:   Grimme D
 Long-range K will be added via erf
 Coulomb attenuation parameter = 0.2 bohr**(-1)
 Exchange:     0.2220 Hartree-Fock + 1.0000 wB97X-D + LR-HF
 Correlation:  1.0000 wB97X-D
 Using SG-2 standard quadrature grid
 Dispersion:   Grimme D
 Long-range K will be added via erf
 Coulomb attenuation parameter = 0.2 bohr**(-1)
Doing General SCFMI
 Exchange:     0.2220 Hartree-Fock + 1.0000 wB97X-D + LR-HF
 Correlation:  1.0000 wB97X-D
 Using SG-2 standard quadrature grid
 Dispersion:   Grimme D
performing fock build at end of subrot_r(subrot) constructor so that all methods have access
<S^2> of initial wavefunction before polarization iterations 0.0000000000
Beginning iterations for the determination of the polarized wavefunction
Energy prior to optimization (guess energy) = -536.187205916951
Begin Timing: Total SCF Calculation
begin iterations for algorithm: DIIS         
the SCF tolerance is set to 1.00e-08
    1    -536.1872059170      9.80e-04     00000 
    2    -536.1996750245      5.17e-04     00000 
    3    -536.2005288347      4.54e-04     00000 
    4    -536.2017202344      6.05e-05     00000 
    5    -536.2017723412      1.80e-05     00000 
    6    -536.2017777814      8.96e-06     00000 
    7    -536.2017782951      2.15e-06     00000 
    8    -536.2017783242      8.30e-07     00000 
    9    -536.2017783290      1.07e-07     00000 
   10    -536.2017783291      3.53e-08     00000 
   11    -536.2017783292      1.41e-08     00000 
   12    -536.2017783292      2.66e-09     00000 Convergence criterion met
write pseudocanon occs and virts to disk
write pseudocanon orbital energies to disk
Timing for Total SCF: 24.00s (wall), 98.24s (cpu)
<S^2> of polarized wavefunction after polarization iterations 0.0000000000
relaxing scfmi constraint to allow all rotations in the entire AO span
Doing General SCFMI
 Exchange:     0.2220 Hartree-Fock + 1.0000 wB97X-D + LR-HF
 Correlation:  1.0000 wB97X-D
 Using SG-2 standard quadrature grid
 Dispersion:   Grimme D
performing fock build at end of subrot_r(subrot) constructor so that all methods have access
<S^2> of polarized wavefunction before ct-allowed iterations 0.0000000000
Beginning iterations for the determination of the CT-Allowed wavefunction
Energy prior to optimization (guess energy) = -536.201778329166
Begin Timing: Total SCF Calculation
begin iterations for algorithm: DIIS         
the SCF tolerance is set to 1.00e-08
    1    -536.2017783292      1.13e-03     00000 
    2    -536.2296761995      2.51e-04     00000 
    3    -536.2306492277      2.55e-04     00000 
    4    -536.2312718787      4.09e-05     00000 
    5    -536.2313062650      1.54e-05     00000 
    6    -536.2313101577      3.33e-06     00000 
    7    -536.2313103754      1.51e-06     00000 
    8    -536.2313104049      5.18e-07     00000 
    9    -536.2313104087      9.25e-08     00000 
   10    -536.2313104090      3.07e-08     00000 
   11    -536.2313104090      7.65e-09     00000 Convergence criterion met
write pseudocanon occs and virts to disk
write pseudocanon orbital energies to disk
Timing for Total SCF: 22.00s (wall), 90.80s (cpu)
<S^2> of ct_allowed wavefunction after ct-allowed iterations 0.0000000000
Attempting to make child job directory: /scratch/user/peterchao1/peterchao1/7000866_1675661380000000418914531/qchem97214//FrgBSSE1/
Attempting to make child job directory: /scratch/user/peterchao1/peterchao1/7000866_1675661380000000418914531/qchem97214//FrgBSSE2/
Creating input file /scratch/user/peterchao1/peterchao1/7000866_1675661380000000418914531/qchem97214/FrgBSSE1.input
calling putenv with: QCSCRATCH=/scratch/user/peterchao1/peterchao1/7000866_1675661380000000418914531/qchem97214/ 
Spawning Job For Fragment 0
Done Job For Fragment 0
calling putenv with: QCSCRATCH=/scratch/user/peterchao1/peterchao1/7000866_1675661380000000418914531 
calling putenv with: QCTHREADS=8 
Creating input file /scratch/user/peterchao1/peterchao1/7000866_1675661380000000418914531/qchem97214/FrgBSSE2.input
calling putenv with: QCSCRATCH=/scratch/user/peterchao1/peterchao1/7000866_1675661380000000418914531/qchem97214/ 
Spawning Job For Fragment 1
Done Job For Fragment 1
calling putenv with: QCSCRATCH=/scratch/user/peterchao1/peterchao1/7000866_1675661380000000418914531 
calling putenv with: QCTHREADS=8 
====================================================================
   Evaluating the BSSE with fragment SCF in the supersystem basis
   Fragment contributions (kJ/mol) 
   Frgm 1: 10.7771
   Frgm 2: 10.7770
   BSSE (kJ/mol) = 21.5541
====================================================================

================================
        Results of EDA2         
================================
Basic EDA Quantities
--------------------
Fragment Energies (Ha):
1 -268.0944955315
2 -268.0944956852
--------------------
  E_prp (kJ/mol) = 0.0000
  E_frz (kJ/mol) = 4.6874
  E_pol (kJ/mol) = -38.2603
  E_vct (kJ/mol) = -55.9833 (CP-corrected)
  E_int (kJ/mol) = -89.5562 (CP-corrected)
--------------------


Decomposition of frozen interaction energy
--------------------
  --------------------
  Orthogonal Frozen Decomposition:
  --------------------
     E_elec   (ELEC)   (kJ/mol) = -254.2896
     E_pauli  (PAULI)  (kJ/mol) = 266.0219
     E_disp   (DISP)   (kJ/mol) = -7.0449
  --------------------
  Classical Frozen Decomposition:
  --------------------
     E_cls_elec  (CLS ELEC)  (kJ/mol) = -140.2380
     E_mod_pauli (MOD PAULI) (kJ/mol) = 151.9703 (FRZ - CLS ELEC - DISP)
     E_disp      (DISP)      (kJ/mol) = -7.0449
  --------------------
--------------------

Simplified EDA Summary (kJ/mol)
--------------------
 PREPARATION      0.0000
 FROZEN           4.6874 (ELEC + PAULI + DISP)
[ELEC + PAULI = 11.7323, DISP = -7.0449]
 POLARIZATION    -38.2603
 CHARGE TRANSFER -55.9833     (counterpoise-corrected)
 TOTAL           -89.5562     (PRP + FRZ + POL + CT)
--------------------
 
 --------------------------------------------------------------
 
                    Orbital Energies (a.u.)
 --------------------------------------------------------------
 
 Alpha MOs
 -- Occupied --
-19.2883 -19.2883 -19.2591 -19.2591 -10.4402 -10.4402 -10.3106 -10.3106
-10.2896 -10.2896  -1.2115  -1.1987  -1.1172  -1.1029  -0.8857  -0.8808
 -0.7735  -0.7614  -0.6856  -0.6807  -0.6190  -0.5919  -0.5796  -0.5776
 -0.5760  -0.5676  -0.5131  -0.5129  -0.5083  -0.4885  -0.4682  -0.4642
 -0.4520  -0.4433  -0.4373  -0.4364  -0.4159  -0.4054  -0.3832  -0.3697
 -- Virtual --
  0.0788   0.0833   0.1410   0.1435   0.1907   0.1915   0.1979   0.1983
  0.2076   0.2127   0.2381   0.2450   0.2456   0.2530   0.2974   0.3097
  0.3189   0.3313   0.3633   0.3734   0.4251   0.4596   0.5018   0.5021
  0.5319   0.5370   0.5472   0.5670   0.5691   0.5907   0.5947   0.6217
  0.6268   0.6475   0.6855   0.6925   0.7146   0.7281   0.7369   0.7543
  0.7621   0.7629   0.7650   0.7681   0.7763   0.7767   0.7893   0.7900
  0.8043   0.8097   0.8105   0.8121   0.8127   0.8439   0.8992   0.9506
  1.0125   1.0489   1.0586   1.0898   1.1213   1.1287   1.1435   1.2233
  1.2243   1.2488   1.4312   1.4413   1.4525   1.4568   1.4627   1.5048
  1.5761   1.5895   1.6092   1.6388   1.6492   1.6799   1.7810   1.7821
  1.8372   1.8421   1.9060   1.9105   1.9609   1.9609   2.0329   2.0465
  2.0923   2.0926   2.1289   2.1500   2.2565   2.2621   2.2626   2.2940
  2.3499   2.3501   2.3714   2.3919   2.5181   2.5353   2.6435   2.6444
  2.6467   2.6526   2.7078   2.7103   2.7507   2.7724   2.9813   3.0159
  3.0208   3.0447   3.1661   3.1990   3.2570   3.2574   3.4018   3.4092
  3.6647   3.6792   3.7274   3.7343
 --------------------------------------------------------------
 
          Ground-State Mulliken Net Atomic Charges

     Atom                 Charge (a.u.)
  ----------------------------------------
      1 C                    -0.312260
      2 C                    -0.271790
      3 C                     0.244453
      4 O                    -0.361116
      5 O                    -0.331593
      6 H                     0.123795
      7 H                     0.131638
      8 H                     0.131634
      9 H                     0.147215
     10 H                     0.147213
     11 H                     0.350810
     12 C                    -0.312260
     13 C                    -0.271790
     14 C                     0.244453
     15 O                    -0.361116
     16 O                    -0.331593
     17 H                     0.123795
     18 H                     0.131636
     19 H                     0.131637
     20 H                     0.147214
     21 H                     0.147215
     22 H                     0.350810
  ----------------------------------------
  Sum of atomic charges =     0.000000

 -----------------------------------------------------------------
                    Cartesian Multipole Moments
 -----------------------------------------------------------------
    Charge (ESU x 10^10)
                -0.0000
    Dipole Moment (Debye)
         X      -0.0000      Y       0.0000      Z      -0.0001
       Tot       0.0001
    Quadrupole Moments (Debye-Ang)
        XX     -47.4842     XY       3.4013     YY     -66.6358
        XZ      -0.0002     YZ      -0.0002     ZZ     -58.2166
    Octopole Moments (Debye-Ang^2)
       XXX      -0.0005    XXY       0.0000    XYY      -0.0001
       YYY      -0.0000    XXZ      -0.0005    XYZ      -0.0001
       YYZ      -0.0001    XZZ      -0.0000    YZZ      -0.0000
       ZZZ      -0.0000
    Hexadecapole Moments (Debye-Ang^3)
      XXXX   -2801.8617   XXXY      56.7363   XXYY    -567.5447
      XYYY      -2.1390   YYYY    -368.8607   XXXZ      -0.0042
      XXYZ      -0.0004   XYYZ      -0.0003   YYYZ       0.0009
      XXZZ    -499.0984   XYZZ       4.1798   YYZZ     -67.6489
      XZZZ      -0.0007   YZZZ      -0.0004   ZZZZ     -76.7263
 -----------------------------------------------------------------
Archival summary:
1\1\c010.cluster\SP\ProcedureUnspecified\BasisUnspecified\4612\petercha\SunFeb523:32:072023SunFeb523:32:072023\0\\#,ProcedureUnspecified,BasisUnspecified,\\0,1\O\C,1,1.22279\O,2,1.30797,1,123.808\H,3,1.00943,2,110.918,1,-0,0\C,2,1.50895,1,122.658,3,180,0\H,5,1.10461,2,107.023,1,123.807,0\H,5,1.10461,2,107.022,1,-123.802,0\C,5,1.52121,2,113.818,1,0.00203106,0\H,8,1.10198,5,111.101,2,-59.7808,0\H,8,1.10198,5,111.101,2,59.7809,0\H,8,1.10239,5,110.318,2,-180,0\H,1,1.6141,2,126.897,3,0,0\O,12,1.00943,1,178.377,2,0,0\C,13,1.30797,12,110.918,1,0.00110005,0\O,14,1.22279,13,123.808,12,-0.00124667,0\C,14,1.50895,13,113.534,12,179.998,0\H,16,1.1046,14,107.023,13,56.1886,0\H,16,1.10461,14,107.022,13,-56.202,0\C,16,1.52121,14,113.818,13,179.994,0\H,19,1.10198,16,111.101,14,-59.782,0\H,19,1.10198,16,111.101,14,59.7796,0\H,19,1.10239,16,110.318,14,179.999,0\\\@

 Total job time:  146.50s(wall), 364.76s(cpu) 
 Sun Feb  5 23:32:07 2023

        *************************************************************
        *                                                           *
        *  Thank you very much for using Q-Chem.  Have a nice day.  *
        *                                                           *
        *************************************************************


remove work dirs /scratch/user/peterchao1/peterchao1/7000866_1675661380000000418914531/qchem97214.0 -- /scratch/user/peterchao1/peterchao1/7000866_1675661380000000418914531/qchem97214.-1
rm -rf /scratch/user/peterchao1/peterchao1/7000866_1675661380000000418914531/qchem97214
real 146.94
user 499.37
sys 124.19
