 Entering Gaussian System, Link 0=g16
 Input=gaussian_test.inp
 Output=gaussian_test.log
 Initial command:
 /sw/restricted/lms/sw/Gaussian/g16_B01/g16/l1.exe "/scratch/user/peterchao1/peterchao1/6950557_1675450015000000130004432/Gau-156664.inp" -scrdir="/scratch/user/peterchao1/peterchao1/6950557_1675450015000000130004432/"
 Entering Link 1 = /sw/restricted/lms/sw/Gaussian/g16_B01/g16/l1.exe PID=    156665.
  
 Copyright (c) 1988-2017, Gaussian, Inc.  All Rights Reserved.
  
 This is part of the Gaussian(R) 16 program.  It is based on
 the Gaussian(R) 09 system (copyright 2009, Gaussian, Inc.),
 the Gaussian(R) 03 system (copyright 2003, Gaussian, Inc.),
 the Gaussian(R) 98 system (copyright 1998, Gaussian, Inc.),
 the Gaussian(R) 94 system (copyright 1995, Gaussian, Inc.),
 the Gaussian 92(TM) system (copyright 1992, Gaussian, Inc.),
 the Gaussian 90(TM) system (copyright 1990, Gaussian, Inc.),
 the Gaussian 88(TM) system (copyright 1988, Gaussian, Inc.),
 the Gaussian 86(TM) system (copyright 1986, Carnegie Mellon
 University), and the Gaussian 82(TM) system (copyright 1983,
 Carnegie Mellon University). Gaussian is a federally registered
 trademark of Gaussian, Inc.
  
 This software contains proprietary and confidential information,
 including trade secrets, belonging to Gaussian, Inc.
  
 This software is provided under written license and may be
 used, copied, transmitted, or stored only in accord with that
 written license.
  
 The following legend is applicable only to US Government
 contracts under FAR:
  
                    RESTRICTED RIGHTS LEGEND
  
 Use, reproduction and disclosure by the US Government is
 subject to restrictions as set forth in subparagraphs (a)
 and (c) of the Commercial Computer Software - Restricted
 Rights clause in FAR 52.227-19.
  
 Gaussian, Inc.
 340 Quinnipiac St., Bldg. 40, Wallingford CT 06492
  
  
 ---------------------------------------------------------------
 Warning -- This program may not be used in any manner that
 competes with the business of Gaussian, Inc. or will provide
 assistance to any competitor of Gaussian, Inc.  The licensee
 of this program is prohibited from giving any competitor of
 Gaussian, Inc. access to this program.  By using this program,
 the user acknowledges that Gaussian, Inc. is engaged in the
 business of creating and licensing software in the field of
 computational chemistry and represents and warrants to the
 licensee that it is not a competitor of Gaussian, Inc. and that
 it will not use this program in any manner prohibited above.
 ---------------------------------------------------------------
  

 Cite this work as:
 Gaussian 16, Revision B.01,
 M. J. Frisch, G. W. Trucks, H. B. Schlegel, G. E. Scuseria, 
 M. A. Robb, J. R. Cheeseman, G. Scalmani, V. Barone, 
 G. A. Petersson, H. Nakatsuji, X. Li, M. Caricato, A. V. Marenich, 
 J. Bloino, B. G. Janesko, R. Gomperts, B. Mennucci, H. P. Hratchian, 
 J. V. Ortiz, A. F. Izmaylov, J. L. Sonnenberg, D. Williams-Young, 
 F. Ding, F. Lipparini, F. Egidi, J. Goings, B. Peng, A. Petrone, 
 T. Henderson, D. Ranasinghe, V. G. Zakrzewski, J. Gao, N. Rega, 
 G. Zheng, W. Liang, M. Hada, M. Ehara, K. Toyota, R. Fukuda, 
 J. Hasegawa, M. Ishida, T. Nakajima, Y. Honda, O. Kitao, H. Nakai, 
 T. Vreven, K. Throssell, J. A. Montgomery, Jr., J. E. Peralta, 
 F. Ogliaro, M. J. Bearpark, J. J. Heyd, E. N. Brothers, K. N. Kudin, 
 V. N. Staroverov, T. A. Keith, R. Kobayashi, J. Normand, 
 K. Raghavachari, A. P. Rendell, J. C. Burant, S. S. Iyengar, 
 J. Tomasi, M. Cossi, J. M. Millam, M. Klene, C. Adamo, R. Cammi, 
 J. W. Ochterski, R. L. Martin, K. Morokuma, O. Farkas, 
 J. B. Foresman, and D. J. Fox, Gaussian, Inc., Wallingford CT, 2016.
 
 ******************************************
 Gaussian 16:  ES64L-G16RevB.01 20-Dec-2017
                 3-Feb-2023 
 ******************************************
 %chk=17.chk
 %nprocshared=4
 Will use up to    4 processors via shared memory.
 %mem=8000mb
 --------------------------------------------------------------
 #T wB97XD//def2svpp Volume=tight Geom=AllCheckpoint Guess=Read
 --------------------------------------------------------------
 Structure from the checkpoint file:  "17.chk"
 -----
 Dimer
 -----
 Charge =  0 Multiplicity = 1
 Redundant internal coordinates found in file.  (old form).
 C,0,-1.6653189132,-1.1973323741,0.0140221904
 C,0,-0.8280554544,-0.0025915601,-0.4383324789
 O,0,-1.4607935283,1.205639309,-0.0650235204
 C,0,0.6655699523,-0.0271637422,-0.001123194
 C,0,0.7982704999,0.10685388,1.5228935909
 C,0,1.3290264707,-1.3329911983,-0.4600339232
 C,0,1.3732842082,1.1595751549,-0.6715769674
 H,0,-1.2888215832,-2.1488962066,-0.3943596244
 H,0,-2.7021404206,-1.0614453086,-0.3355523095
 H,0,-1.687169115,-1.2857934468,1.1158794907
 H,0,-0.8345482078,0.0161703694,-1.5426636794
 H,0,-1.6430458413,1.1747866518,0.8840915828
 H,0,1.8624496692,0.099105235,1.8175547338
 H,0,0.3047046293,-0.7230490784,2.059310299
 H,0,0.3711169506,1.0596292587,1.8834363103
 H,0,2.421190864,-1.2847965302,-0.3024734788
 H,0,1.1551376299,-1.5125854867,-1.5370187973
 H,0,0.9539830371,-2.2088771917,0.0971730709
 H,0,1.3602416039,1.0557975052,-1.7717024364
 H,0,2.428487758,1.2213199518,-0.3502942118
 H,0,0.8710369643,2.1067258418,-0.416677448
 Recover connectivity data from disk.
                           ----------------------------
                           !    Current Parameters    !
                           ! (Angstroms and Degrees)  !
 --------------------------                            --------------------------
 ! Name  Definition              Value                                          !
 --------------------------------------------------------------------------------
 ! R1    R(1,2)                  1.5274                                         !
 ! R2    R(1,8)                  1.1018                                         !
 ! R3    R(1,9)                  1.1026                                         !
 ! R4    R(1,10)                 1.1056                                         !
 ! R5    R(2,3)                  1.4141                                         !
 ! R6    R(2,4)                  1.5565                                         !
 ! R7    R(2,11)                 1.1045                                         !
 ! R8    R(3,12)                 0.9669                                         !
 ! R9    R(4,5)                  1.5356                                         !
 ! R10   R(4,6)                  1.5349                                         !
 ! R11   R(4,7)                  1.5358                                         !
 ! R12   R(5,13)                 1.1042                                         !
 ! R13   R(5,14)                 1.1046                                         !
 ! R14   R(5,15)                 1.1046                                         !
 ! R15   R(6,16)                 1.1045                                         !
 ! R16   R(6,17)                 1.1056                                         !
 ! R17   R(6,18)                 1.1038                                         !
 ! R18   R(7,19)                 1.1051                                         !
 ! R19   R(7,20)                 1.1048                                         !
 ! R20   R(7,21)                 1.102                                          !
 ! A1    A(2,1,8)              112.2377                                         !
 ! A2    A(2,1,9)              108.9756                                         !
 ! A3    A(2,1,10)             111.627                                          !
 ! A4    A(8,1,9)              108.0745                                         !
 ! A5    A(8,1,10)             107.8807                                         !
 ! A6    A(9,1,10)             107.8937                                         !
 ! A7    A(1,2,3)              110.1743                                         !
 ! A8    A(1,2,4)              115.4977                                         !
 ! A9    A(1,2,11)             107.8286                                         !
 ! A10   A(3,2,4)              111.637                                          !
 ! A11   A(3,2,11)             104.289                                          !
 ! A12   A(4,2,11)             106.6639                                         !
 ! A13   A(2,3,12)             108.4337                                         !
 ! A14   A(2,4,5)              111.1194                                         !
 ! A15   A(2,4,6)              110.135                                          !
 ! A16   A(2,4,7)              107.901                                          !
 ! A17   A(5,4,6)              109.4882                                         !
 ! A18   A(5,4,7)              109.0253                                         !
 ! A19   A(6,4,7)              109.1282                                         !
 ! A20   A(4,5,13)             110.3338                                         !
 ! A21   A(4,5,14)             112.1957                                         !
 ! A22   A(4,5,15)             111.4554                                         !
 ! A23   A(13,5,14)            107.2033                                         !
 ! A24   A(13,5,15)            106.9547                                         !
 ! A25   A(14,5,15)            108.4663                                         !
 ! A26   A(4,6,16)             110.3428                                         !
 ! A27   A(4,6,17)             111.1893                                         !
 ! A28   A(4,6,18)             112.1666                                         !
 ! A29   A(16,6,17)            107.5514                                         !
 ! A30   A(16,6,18)            107.3732                                         !
 ! A31   A(17,6,18)            108.0234                                         !
 ! A32   A(4,7,19)             110.8906                                         !
 ! A33   A(4,7,20)             110.8774                                         !
 ! A34   A(4,7,21)             110.6802                                         !
 ! A35   A(19,7,20)            107.8203                                         !
 ! A36   A(19,7,21)            107.795                                          !
 ! A37   A(20,7,21)            108.6643                                         !
 ! D1    D(8,1,2,3)            171.0101                                         !
 ! D2    D(8,1,2,4)            -61.3681                                         !
 ! D3    D(8,1,2,11)            57.783                                          !
 ! D4    D(9,1,2,3)             51.3383                                         !
 ! D5    D(9,1,2,4)            178.96                                           !
 ! D6    D(9,1,2,11)           -61.8889                                         !
 ! D7    D(10,1,2,3)           -67.7293                                         !
 ! D8    D(10,1,2,4)            59.8924                                         !
 ! D9    D(10,1,2,11)          179.0436                                         !
 ! D10   D(1,2,3,12)            53.6329                                         !
 ! D11   D(4,2,3,12)           -76.0935                                         !
 ! D12   D(11,2,3,12)          169.1116                                         !
 ! D13   D(1,2,4,5)            -66.6742                                         !
 ! D14   D(1,2,4,6)             54.828                                          !
 ! D15   D(1,2,4,7)            173.8535                                         !
 ! D16   D(3,2,4,5)             60.2128                                         !
 ! D17   D(3,2,4,6)           -178.2849                                         !
 ! D18   D(3,2,4,7)            -59.2595                                         !
 ! D19   D(11,2,4,5)           173.5348                                         !
 ! D20   D(11,2,4,6)           -64.963                                          !
 ! D21   D(11,2,4,7)            54.0625                                         !
 ! D22   D(2,4,5,13)          -179.3777                                         !
 ! D23   D(2,4,5,14)            61.1592                                         !
 ! D24   D(2,4,5,15)           -60.7057                                         !
 ! D25   D(6,4,5,13)            58.7426                                         !
 ! D26   D(6,4,5,14)           -60.7205                                         !
 ! D27   D(6,4,5,15)           177.4146                                         !
 ! D28   D(7,4,5,13)           -60.5789                                         !
 ! D29   D(7,4,5,14)           179.958                                          !
 ! D30   D(7,4,5,15)            58.0931                                         !
 ! D31   D(2,4,6,16)           170.6319                                         !
 ! D32   D(2,4,6,17)            51.3786                                         !
 ! D33   D(2,4,6,18)           -69.7033                                         !
 ! D34   D(5,4,6,16)           -66.8994                                         !
 ! D35   D(5,4,6,17)           173.8473                                         !
 ! D36   D(5,4,6,18)            52.7654                                         !
 ! D37   D(7,4,6,16)            52.3587                                         !
 ! D38   D(7,4,6,17)           -66.8946                                         !
 ! D39   D(7,4,6,18)           172.0235                                         !
 ! D40   D(2,4,7,19)           -63.3274                                         !
 ! D41   D(2,4,7,20)           176.9264                                         !
 ! D42   D(2,4,7,21)            56.2578                                         !
 ! D43   D(5,4,7,19)           175.8819                                         !
 ! D44   D(5,4,7,20)            56.1357                                         !
 ! D45   D(5,4,7,21)           -64.5329                                         !
 ! D46   D(6,4,7,19)            56.3369                                         !
 ! D47   D(6,4,7,20)           -63.4093                                         !
 ! D48   D(6,4,7,21)           175.922                                          !
 --------------------------------------------------------------------------------
                    Distance matrix (angstroms):
                    1          2          3          4          5
     1  C    0.000000
     2  C    1.527429   0.000000
     3  O    2.412955   1.414051   0.000000
     4  C    2.608173   1.556494   2.458721   0.000000
     5  C    3.169679   2.550161   2.971898   1.535642   0.000000
     6  C    3.034672   2.534450   3.792595   1.534913   2.507361
     7  C    3.906171   2.500186   2.898625   1.535811   2.500913
     8  H    1.101817   2.195646   3.375047   2.911362   3.622185
     9  H    1.102573   2.154978   2.598808   3.538793   4.131782
    10  H    1.105619   2.190949   2.766408   2.892616   2.877940
    11  H    2.141504   1.104510   1.997609   2.151413   3.474473
    12  H    2.526750   1.949162   0.966947   2.749181   2.740178
    13  H    4.168769   3.512576   3.976489   2.180838   1.104247
    14  H    2.879087   2.835564   3.368919   2.204510   1.104576
    15  H    3.568705   2.820804   2.678378   2.195310   1.104641
    16  H    4.099681   3.495727   4.618274   2.180518   2.811143
    17  H    3.234206   2.724013   4.049520   2.192061   3.480374
    18  H    2.809071   2.886195   4.185257   2.202889   2.723882
    19  H    4.173658   2.772491   3.300522   2.188681   3.474287
    20  H    4.768842   3.480055   3.899761   2.188267   2.721851
    21  H    4.187530   2.708617   2.524490   2.183664   2.786883
                    6          7          8          9         10
     6  C    0.000000
     7  C    2.501919   0.000000
     8  H    2.742835   4.255542   0.000000
     9  H    4.042220   4.653486   1.784230   0.000000
    10  H    3.403405   4.305950   1.784503   1.785260   0.000000
    11  H    2.770087   2.634519   2.492485   2.471088   3.080572
    12  H    4.114467   3.393904   3.578656   2.758613   2.471867
    13  H    2.742782   2.749483   4.458317   5.178632   3.874285
    14  H    2.787178   3.484807   3.254668   3.858885   2.274710
    15  H    3.483400   2.746347   4.270642   4.343706   3.213517
    16  H    1.104523   2.685014   3.810420   5.128304   4.346303
    17  H    1.105617   2.817272   2.771912   4.065174   3.894613
    18  H    1.103772   3.480411   2.296818   3.856305   2.977504
    19  H    2.725392   1.105086   4.380031   4.800853   4.807067
    20  H    2.783049   1.104758   5.017837   5.615566   5.037253
    21  H    3.470344   1.101962   4.772400   4.776137   4.516895
                   11         12         13         14         15
    11  H    0.000000
    12  H    2.808060   0.000000
    13  H    4.309495   3.783774   0.000000
    14  H    3.849488   2.962541   1.777907   0.000000
    15  H    3.778968   2.251400   1.775111   1.792564   0.000000
    16  H    3.718928   4.896479   2.592662   3.220729   3.804910
    17  H    2.509178   4.573136   3.788271   3.778913   4.350918
    18  H    3.292225   4.337393   3.018577   2.545433   3.770093
    19  H    2.439341   4.010877   3.748365   4.353747   3.786611
    20  H    3.677164   4.254793   2.505860   3.754626   3.041130
    21  H    2.923575   2.980121   3.163105   3.802483   2.576209
                   16         17         18         19         20
    16  H    0.000000
    17  H    1.782942   0.000000
    18  H    1.779422   1.787699   0.000000
    19  H    2.960174   2.587225   3.783628   0.000000
    20  H    2.506583   3.240984   3.760405   1.785763   0.000000
    21  H    3.730743   3.799381   4.346878   1.783217   1.792764
                   21
    21  H    0.000000
 Framework group  C1[X(C6H14O)]
 Deg. of freedom    57
                         Standard orientation:                         
 ---------------------------------------------------------------------
 Center     Atomic      Atomic             Coordinates (Angstroms)
 Number     Number       Type             X           Y           Z
 ---------------------------------------------------------------------
      1          6           0        1.781406    1.038756   -0.019436
      2          6           0        0.848844   -0.086972   -0.462274
      3          8           0        1.395494   -1.341556   -0.106279
      4          6           0       -0.630738    0.046955    0.002025
      5          6           0       -0.746142   -0.086077    1.527535
      6          6           0       -1.202195    1.401689   -0.438533
      7          6           0       -1.437396   -1.079179   -0.661182
      8          1           0        1.470321    2.018384   -0.416368
      9          1           0        2.798733    0.827579   -0.388376
     10          1           0        1.829340    1.118562    1.082256
     11          1           0        0.834363   -0.099389   -1.566619
     12          1           0        1.596319   -1.330296    0.839517
     13          1           0       -1.801347   -0.000284    1.841453
     14          1           0       -0.182184    0.701130    2.058896
     15          1           0       -0.385489   -1.070422    1.875713
     16          1           0       -2.291932    1.434640   -0.261453
     17          1           0       -1.034388    1.574333   -1.517618
     18          1           0       -0.752581    2.243517    0.115981
     19          1           0       -1.436063   -0.969921   -1.760853
     20          1           0       -2.488404   -1.063519   -0.321142
     21          1           0       -1.003321   -2.062902   -0.419961
 ---------------------------------------------------------------------
 Rotational constants (GHZ):           3.0712960           2.2145851           1.8526190
   126 basis functions,   231 primitive gaussians,   133 cartesian basis functions
    29 alpha electrons       29 beta electrons
       nuclear repulsion energy       347.6293334215 Hartrees.
 NAtoms=   21 NActive=   21 NUniq=   21 SFac= 1.00D+00 NAtFMM=   60 NAOKFM=F Big=F
 Nuclear repulsion after empirical dispersion term =      347.6140476185 Hartrees.
   1 Symmetry operations used in ECPInt.
 ECPInt:  NShTT=    2485 NPrTT=   10003 LenC2=    2480 LenP2D=    8202.
 LDataN:  DoStor=T MaxTD1= 4 Len=   56
 Initial guess from the checkpoint file:  "17.chk"
 B after Tr=    -0.000000    0.000000    0.000000
         Rot=    1.000000    0.000000   -0.000000   -0.000000 Ang=   0.00 deg.
 Skip diagonalization as Alpha Fock matrix is already diagonal.
 SCF Done:  E(RwB97XD) =  -311.946939913     A.U. after    1 cycles
            NFock=  1  Conv=0.00D+00     -V/T= 2.0106

 **********************************************************************

            Population analysis using the SCF Density.

 **********************************************************************

 Orbital symmetries:
       Occupied  (A) (A) (A) (A) (A) (A) (A) (A) (A) (A) (A) (A)
                 (A) (A) (A) (A) (A) (A) (A) (A) (A) (A) (A) (A)
                 (A) (A) (A) (A) (A)
       Virtual   (A) (A) (A) (A) (A) (A) (A) (A) (A) (A) (A) (A)
                 (A) (A) (A) (A) (A) (A) (A) (A) (A) (A) (A) (A)
                 (A) (A) (A) (A) (A) (A) (A) (A) (A) (A) (A) (A)
                 (A) (A) (A) (A) (A) (A) (A) (A) (A) (A) (A) (A)
                 (A) (A) (A) (A) (A) (A) (A) (A) (A) (A) (A) (A)
                 (A) (A) (A) (A) (A) (A) (A) (A) (A) (A) (A) (A)
                 (A) (A) (A) (A) (A) (A) (A) (A) (A) (A) (A) (A)
                 (A) (A) (A) (A) (A) (A) (A) (A) (A) (A) (A) (A)
                 (A)
 The electronic state is 1-A.
 Alpha  occ. eigenvalues --  -19.24454 -10.33849 -10.30438 -10.28391 -10.28361
 Alpha  occ. eigenvalues --  -10.28203 -10.27238  -1.10981  -0.91128  -0.82547
 Alpha  occ. eigenvalues --   -0.77619  -0.76948  -0.71722  -0.63565  -0.57129
 Alpha  occ. eigenvalues --   -0.55418  -0.54112  -0.52349  -0.51398  -0.47971
 Alpha  occ. eigenvalues --   -0.46660  -0.46280  -0.45243  -0.44360  -0.43152
 Alpha  occ. eigenvalues --   -0.41198  -0.40643  -0.38653  -0.34545
 Alpha virt. eigenvalues --    0.12283   0.15404   0.16815   0.17618   0.18940
 Alpha virt. eigenvalues --    0.19163   0.20497   0.21191   0.22141   0.23764
 Alpha virt. eigenvalues --    0.24879   0.25392   0.26018   0.27946   0.28427
 Alpha virt. eigenvalues --    0.30319   0.31436   0.33007   0.34576   0.35175
 Alpha virt. eigenvalues --    0.48689   0.49391   0.49865   0.52956   0.56830
 Alpha virt. eigenvalues --    0.57959   0.58727   0.63434   0.66537   0.67689
 Alpha virt. eigenvalues --    0.70827   0.71370   0.72318   0.74432   0.76569
 Alpha virt. eigenvalues --    0.77049   0.77752   0.78053   0.78867   0.80030
 Alpha virt. eigenvalues --    0.80676   0.81527   0.81726   0.82959   0.84055
 Alpha virt. eigenvalues --    0.84148   0.84654   0.85273   0.85951   0.86378
 Alpha virt. eigenvalues --    0.91577   0.94247   0.99587   1.04020   1.12829
 Alpha virt. eigenvalues --    1.14152   1.22097   1.24389   1.25377   1.29403
 Alpha virt. eigenvalues --    1.38014   1.44868   1.55974   1.64049   1.71737
 Alpha virt. eigenvalues --    1.76524   1.80656   1.84390   1.90896   1.92636
 Alpha virt. eigenvalues --    1.95432   2.00152   2.03154   2.10712   2.11464
 Alpha virt. eigenvalues --    2.13389   2.14405   2.15897   2.24001   2.24592
 Alpha virt. eigenvalues --    2.25544   2.26363   2.27009   2.30419   2.32513
 Alpha virt. eigenvalues --    2.35871   2.51221   2.58611   2.69701   2.71903
 Alpha virt. eigenvalues --    2.74626   2.78264   2.81778   2.95341   3.10733
 Alpha virt. eigenvalues --    3.12927   3.49881
          Condensed to atoms (all electrons):
 Mulliken charges:
               1
     1  C   -0.321643
     2  C    0.092400
     3  O   -0.486492
     4  C   -0.235096
     5  C   -0.313669
     6  C   -0.285116
     7  C   -0.258696
     8  H    0.125392
     9  H    0.133383
    10  H    0.107460
    11  H    0.083946
    12  H    0.314174
    13  H    0.120037
    14  H    0.118753
    15  H    0.108943
    16  H    0.115846
    17  H    0.115428
    18  H    0.119561
    19  H    0.107393
    20  H    0.109414
    21  H    0.128583
 Sum of Mulliken charges =  -0.00000
 Mulliken charges with hydrogens summed into heavy atoms:
               1
     1  C    0.044592
     2  C    0.176346
     3  O   -0.172318
     4  C   -0.235096
     5  C    0.034064
     6  C    0.065718
     7  C    0.086694
 Electronic spatial extent (au):  <R**2>=            846.5197
 Charge=             -0.0000 electrons
 Dipole moment (field-independent basis, Debye):
    X=             -0.1684    Y=              1.1928    Z=              1.0531  Tot=              1.6001
 Evaluate density.
 Using the total density.
 Monte-Carlo method of calculating molar volume:
 based on  0.001 e/bohr**3 density envelope.
 Number of points per bohr**3 =  100 CutOff= 1.00D-04
 Using the SCF density.
 There are      1797 points.  Will hold      1797 in memory.
 LenV=  1048312899 MDV=  1048576000.
 Box volume = 5808.774 fraction occupied=0.183
 Integrated density= 4.5978170736928675D+01 error=-1.2021829263071325D+01
 Molar volume = 1060.255 bohr**3/mol ( 94.616 cm**3/mol)
 Recommended a0 for SCRF calculation =  4.18 angstrom (  7.91 bohr)
 1\1\GINC-C458\SP\RwB97XD\def2SVPP\C6H14O1\PETERCHAO1\03-Feb-2023\0\\#T
  wB97XD//def2svpp Volume=tight Geom=AllCheckpoint Guess=Read\\Dimer\\0
 ,1\C,0,-1.6653189132,-1.1973323741,0.0140221904\C,0,-0.8280554544,-0.0
 025915601,-0.4383324789\O,0,-1.4607935283,1.205639309,-0.0650235204\C,
 0,0.6655699523,-0.0271637422,-0.001123194\C,0,0.7982704999,0.10685388,
 1.5228935909\C,0,1.3290264707,-1.3329911983,-0.4600339232\C,0,1.373284
 2082,1.1595751549,-0.6715769674\H,0,-1.2888215832,-2.1488962066,-0.394
 3596244\H,0,-2.7021404206,-1.0614453086,-0.3355523095\H,0,-1.687169115
 ,-1.2857934468,1.1158794907\H,0,-0.8345482078,0.0161703694,-1.54266367
 94\H,0,-1.6430458413,1.1747866518,0.8840915828\H,0,1.8624496692,0.0991
 05235,1.8175547338\H,0,0.3047046293,-0.7230490784,2.059310299\H,0,0.37
 11169506,1.0596292587,1.8834363103\H,0,2.421190864,-1.2847965302,-0.30
 24734788\H,0,1.1551376299,-1.5125854867,-1.5370187973\H,0,0.9539830371
 ,-2.2088771917,0.0971730709\H,0,1.3602416039,1.0557975052,-1.771702436
 4\H,0,2.428487758,1.2213199518,-0.3502942118\H,0,0.8710369643,2.106725
 8418,-0.416677448\\Version=ES64L-G16RevB.01\State=1-A\HF=-311.9469399\
 RMSD=0.000e+00\Dipole=0.1087817,-0.4649659,0.4101884\Quadrupole=-0.079
 739,-1.4106439,1.4903828,1.1899295,-1.5266531,1.5793081\PG=C01 [X(C6H1
 4O1)]\\@


 MUD THROWN IS GROUND LOST -- FROM A TEA BAG
 Job cpu time:       0 days  0 hours  0 minutes 12.8 seconds.
 Elapsed time:       0 days  0 hours  0 minutes  3.5 seconds.
 File lengths (MBytes):  RWF=     10 Int=      0 D2E=      0 Chk=      3 Scr=      1
 Normal termination of Gaussian 16 at Fri Feb  3 13:02:14 2023.
