 Entering Gaussian System, Link 0=g16
 Input=gaussian_test.inp
 Output=gaussian_test.log
 Initial command:
 /sw/restricted/lms/sw/Gaussian/g16_B01/g16/l1.exe "/scratch/user/peterchao1/peterchao1/6113349_1660079137000000544897868/Gau-162356.inp" -scrdir="/scratch/user/peterchao1/peterchao1/6113349_1660079137000000544897868/"
 Entering Link 1 = /sw/restricted/lms/sw/Gaussian/g16_B01/g16/l1.exe PID=    162357.
  
 Copyright (c) 1988-2017, Gaussian, Inc.  All Rights Reserved.
  
 This is part of the Gaussian(R) 16 program.  It is based on
 the Gaussian(R) 09 system (copyright 2009, Gaussian, Inc.),
 the Gaussian(R) 03 system (copyright 2003, Gaussian, Inc.),
 the Gaussian(R) 98 system (copyright 1998, Gaussian, Inc.),
 the Gaussian(R) 94 system (copyright 1995, Gaussian, Inc.),
 the Gaussian 92(TM) system (copyright 1992, Gaussian, Inc.),
 the Gaussian 90(TM) system (copyright 1990, Gaussian, Inc.),
 the Gaussian 88(TM) system (copyright 1988, Gaussian, Inc.),
 the Gaussian 86(TM) system (copyright 1986, Carnegie Mellon
 University), and the Gaussian 82(TM) system (copyright 1983,
 Carnegie Mellon University). Gaussian is a federally registered
 trademark of Gaussian, Inc.
  
 This software contains proprietary and confidential information,
 including trade secrets, belonging to Gaussian, Inc.
  
 This software is provided under written license and may be
 used, copied, transmitted, or stored only in accord with that
 written license.
  
 The following legend is applicable only to US Government
 contracts under FAR:
  
                    RESTRICTED RIGHTS LEGEND
  
 Use, reproduction and disclosure by the US Government is
 subject to restrictions as set forth in subparagraphs (a)
 and (c) of the Commercial Computer Software - Restricted
 Rights clause in FAR 52.227-19.
  
 Gaussian, Inc.
 340 Quinnipiac St., Bldg. 40, Wallingford CT 06492
  
  
 ---------------------------------------------------------------
 Warning -- This program may not be used in any manner that
 competes with the business of Gaussian, Inc. or will provide
 assistance to any competitor of Gaussian, Inc.  The licensee
 of this program is prohibited from giving any competitor of
 Gaussian, Inc. access to this program.  By using this program,
 the user acknowledges that Gaussian, Inc. is engaged in the
 business of creating and licensing software in the field of
 computational chemistry and represents and warrants to the
 licensee that it is not a competitor of Gaussian, Inc. and that
 it will not use this program in any manner prohibited above.
 ---------------------------------------------------------------
  

 Cite this work as:
 Gaussian 16, Revision B.01,
 M. J. Frisch, G. W. Trucks, H. B. Schlegel, G. E. Scuseria, 
 M. A. Robb, J. R. Cheeseman, G. Scalmani, V. Barone, 
 G. A. Petersson, H. Nakatsuji, X. Li, M. Caricato, A. V. Marenich, 
 J. Bloino, B. G. Janesko, R. Gomperts, B. Mennucci, H. P. Hratchian, 
 J. V. Ortiz, A. F. Izmaylov, J. L. Sonnenberg, D. Williams-Young, 
 F. Ding, F. Lipparini, F. Egidi, J. Goings, B. Peng, A. Petrone, 
 T. Henderson, D. Ranasinghe, V. G. Zakrzewski, J. Gao, N. Rega, 
 G. Zheng, W. Liang, M. Hada, M. Ehara, K. Toyota, R. Fukuda, 
 J. Hasegawa, M. Ishida, T. Nakajima, Y. Honda, O. Kitao, H. Nakai, 
 T. Vreven, K. Throssell, J. A. Montgomery, Jr., J. E. Peralta, 
 F. Ogliaro, M. J. Bearpark, J. J. Heyd, E. N. Brothers, K. N. Kudin, 
 V. N. Staroverov, T. A. Keith, R. Kobayashi, J. Normand, 
 K. Raghavachari, A. P. Rendell, J. C. Burant, S. S. Iyengar, 
 J. Tomasi, M. Cossi, J. M. Millam, M. Klene, C. Adamo, R. Cammi, 
 J. W. Ochterski, R. L. Martin, K. Morokuma, O. Farkas, 
 J. B. Foresman, and D. J. Fox, Gaussian, Inc., Wallingford CT, 2016.
 
 ******************************************
 Gaussian 16:  ES64L-G16RevB.01 20-Dec-2017
                 9-Aug-2022 
 ******************************************
 %nprocshared=4
 Will use up to    4 processors via shared memory.
 %mem=8000mb
 ----------------------------------------------------------------------
 #T wB97XD/def2svpp opt=tight freq int(grid=ultrafine) scf=(verytight,q
 c)
 ----------------------------------------------------------------------
 -----
 dimer
 -----
 Symbolic Z-matrix:
 Charge =  0 Multiplicity = 1
 O                    -3.03582   2.18766  -0.54532 
 C                    -3.63354   0.90817  -0.58211 
 C                    -2.6903   -0.19853  -0.07455 
 C                    -2.38196   0.03388   1.43336 
 O                    -1.92057   1.32988   1.71142 
 C                    -3.37531  -1.57799  -0.22965 
 O                    -2.67668  -2.61908   0.37749 
 C                    -1.37479  -0.21416  -0.84462 
 O                    -0.97991   0.89636  -1.42338 
 O                    -0.69644  -1.22214  -0.91471 
 H                    -2.74558   2.32476   0.38174 
 H                    -3.9125    0.72449  -1.6247 
 H                    -4.54774   0.8997    0.02387 
 H                    -1.67477  -0.72827   1.77462 
 H                    -3.31777  -0.09162   1.98657 
 H                    -0.95734   1.37148   1.53729 
 H                    -3.52318  -1.77538  -1.30329 
 H                    -4.35669  -1.54617   0.25155 
 H                    -1.78311  -2.63129  -0.00072 
 H                    -1.62802   1.63947  -1.25561 
 O                     3.03011  -2.18828   0.55194 
 C                     3.63025  -0.90989   0.58783 
 C                     2.69066   0.19765   0.07534 
 C                     3.37801   1.57607   0.22929 
 O                     2.68328   2.61713  -0.38237 
 C                     2.38583  -0.03726  -1.4329 
 O                     1.92264  -1.33288  -1.70965 
 C                     1.37326   0.21753   0.84199 
 O                     0.9746   -0.8912    1.42176 
 O                     0.69684   1.227     0.90885 
 H                     2.74221  -2.32675  -0.37563 
 H                     4.54619  -0.90449  -0.01552 
 H                     3.90657  -0.72463   1.63084 
 H                     4.36071   1.5411   -0.249 
 H                     3.52318   1.7757    1.30288 
 H                     1.78872   2.63236  -0.00663 
 H                     3.32339   0.08532  -1.9838 
 H                     1.68109   0.72562  -1.7776 
 H                     0.95878  -1.37197  -1.53872 
 H                     1.62168  -1.63592   1.25714 
 
 Add virtual bond connecting atoms O30        and H16        Dist= 3.36D+00.
 Add virtual bond connecting atoms H39        and O10        Dist= 3.35D+00.

 GradGradGradGradGradGradGradGradGradGradGradGradGradGradGradGradGradGrad
 Initialization pass.
                           ----------------------------
                           !    Initial Parameters    !
                           ! (Angstroms and Degrees)  !
 --------------------------                            --------------------------
 ! Name  Definition              Value          Derivative Info.                !
 --------------------------------------------------------------------------------
 ! R1    R(1,2)                  1.4127         estimate D2E/DX2                !
 ! R2    R(1,11)                 0.9811         estimate D2E/DX2                !
 ! R3    R(2,3)                  1.5402         estimate D2E/DX2                !
 ! R4    R(2,12)                 1.0948         estimate D2E/DX2                !
 ! R5    R(2,13)                 1.0968         estimate D2E/DX2                !
 ! R6    R(3,4)                  1.5566         estimate D2E/DX2                !
 ! R7    R(3,6)                  1.548          estimate D2E/DX2                !
 ! R8    R(3,8)                  1.5244         estimate D2E/DX2                !
 ! R9    R(4,5)                  1.4035         estimate D2E/DX2                !
 ! R10   R(4,14)                 1.0943         estimate D2E/DX2                !
 ! R11   R(4,15)                 1.0943         estimate D2E/DX2                !
 ! R12   R(5,16)                 0.9797         estimate D2E/DX2                !
 ! R13   R(6,7)                  1.393          estimate D2E/DX2                !
 ! R14   R(6,17)                 1.1016         estimate D2E/DX2                !
 ! R15   R(6,18)                 1.0935         estimate D2E/DX2                !
 ! R16   R(7,19)                 0.9704         estimate D2E/DX2                !
 ! R17   R(8,9)                  1.3131         estimate D2E/DX2                !
 ! R18   R(8,10)                 1.217          estimate D2E/DX2                !
 ! R19   R(9,20)                 1.0002         estimate D2E/DX2                !
 ! R20   R(10,39)                1.7753         estimate D2E/DX2                !
 ! R21   R(16,30)                1.7754         estimate D2E/DX2                !
 ! R22   R(21,22)                1.4127         estimate D2E/DX2                !
 ! R23   R(21,31)                0.981          estimate D2E/DX2                !
 ! R24   R(22,23)                1.5402         estimate D2E/DX2                !
 ! R25   R(22,32)                1.0968         estimate D2E/DX2                !
 ! R26   R(22,33)                1.0948         estimate D2E/DX2                !
 ! R27   R(23,24)                1.548          estimate D2E/DX2                !
 ! R28   R(23,26)                1.5566         estimate D2E/DX2                !
 ! R29   R(23,28)                1.5244         estimate D2E/DX2                !
 ! R30   R(24,25)                1.393          estimate D2E/DX2                !
 ! R31   R(24,34)                1.0935         estimate D2E/DX2                !
 ! R32   R(24,35)                1.1016         estimate D2E/DX2                !
 ! R33   R(25,36)                0.9704         estimate D2E/DX2                !
 ! R34   R(26,27)                1.4035         estimate D2E/DX2                !
 ! R35   R(26,37)                1.0943         estimate D2E/DX2                !
 ! R36   R(26,38)                1.0943         estimate D2E/DX2                !
 ! R37   R(27,39)                0.9797         estimate D2E/DX2                !
 ! R38   R(28,29)                1.3131         estimate D2E/DX2                !
 ! R39   R(28,30)                1.217          estimate D2E/DX2                !
 ! R40   R(29,40)                1.0002         estimate D2E/DX2                !
 ! A1    A(2,1,11)             106.043          estimate D2E/DX2                !
 ! A2    A(1,2,3)              112.5257         estimate D2E/DX2                !
 ! A3    A(1,2,12)             106.5332         estimate D2E/DX2                !
 ! A4    A(1,2,13)             110.1972         estimate D2E/DX2                !
 ! A5    A(3,2,12)             110.4468         estimate D2E/DX2                !
 ! A6    A(3,2,13)             108.8343         estimate D2E/DX2                !
 ! A7    A(12,2,13)            108.2083         estimate D2E/DX2                !
 ! A8    A(2,3,4)              109.4681         estimate D2E/DX2                !
 ! A9    A(2,3,6)              109.6519         estimate D2E/DX2                !
 ! A10   A(2,3,8)              111.6783         estimate D2E/DX2                !
 ! A11   A(4,3,6)              108.529          estimate D2E/DX2                !
 ! A12   A(4,3,8)              108.6602         estimate D2E/DX2                !
 ! A13   A(6,3,8)              108.7915         estimate D2E/DX2                !
 ! A14   A(3,4,5)              113.2613         estimate D2E/DX2                !
 ! A15   A(3,4,14)             109.0347         estimate D2E/DX2                !
 ! A16   A(3,4,15)             107.6503         estimate D2E/DX2                !
 ! A17   A(5,4,14)             111.6474         estimate D2E/DX2                !
 ! A18   A(5,4,15)             106.6707         estimate D2E/DX2                !
 ! A19   A(14,4,15)            108.3682         estimate D2E/DX2                !
 ! A20   A(4,5,16)             109.0995         estimate D2E/DX2                !
 ! A21   A(3,6,7)              113.6027         estimate D2E/DX2                !
 ! A22   A(3,6,17)             108.4658         estimate D2E/DX2                !
 ! A23   A(3,6,18)             109.0945         estimate D2E/DX2                !
 ! A24   A(7,6,17)             110.9888         estimate D2E/DX2                !
 ! A25   A(7,6,18)             106.2632         estimate D2E/DX2                !
 ! A26   A(17,6,18)            108.2788         estimate D2E/DX2                !
 ! A27   A(6,7,19)             107.5386         estimate D2E/DX2                !
 ! A28   A(3,8,9)              118.262          estimate D2E/DX2                !
 ! A29   A(3,8,10)             121.2385         estimate D2E/DX2                !
 ! A30   A(9,8,10)             120.4957         estimate D2E/DX2                !
 ! A31   A(8,9,20)             111.0733         estimate D2E/DX2                !
 ! A32   A(8,10,39)            127.5786         estimate D2E/DX2                !
 ! A33   A(22,21,31)           106.0466         estimate D2E/DX2                !
 ! A34   A(21,22,23)           112.5265         estimate D2E/DX2                !
 ! A35   A(21,22,32)           110.1966         estimate D2E/DX2                !
 ! A36   A(21,22,33)           106.5324         estimate D2E/DX2                !
 ! A37   A(23,22,32)           108.8365         estimate D2E/DX2                !
 ! A38   A(23,22,33)           110.4446         estimate D2E/DX2                !
 ! A39   A(32,22,33)           108.2087         estimate D2E/DX2                !
 ! A40   A(22,23,24)           109.655          estimate D2E/DX2                !
 ! A41   A(22,23,26)           109.4732         estimate D2E/DX2                !
 ! A42   A(22,23,28)           111.6697         estimate D2E/DX2                !
 ! A43   A(24,23,26)           108.5245         estimate D2E/DX2                !
 ! A44   A(24,23,28)           108.7912         estimate D2E/DX2                !
 ! A45   A(26,23,28)           108.6654         estimate D2E/DX2                !
 ! A46   A(23,24,25)           113.6004         estimate D2E/DX2                !
 ! A47   A(23,24,34)           109.0911         estimate D2E/DX2                !
 ! A48   A(23,24,35)           108.47           estimate D2E/DX2                !
 ! A49   A(25,24,34)           106.2624         estimate D2E/DX2                !
 ! A50   A(25,24,35)           110.9906         estimate D2E/DX2                !
 ! A51   A(34,24,35)           108.279          estimate D2E/DX2                !
 ! A52   A(24,25,36)           107.5452         estimate D2E/DX2                !
 ! A53   A(23,26,27)           113.2665         estimate D2E/DX2                !
 ! A54   A(23,26,37)           107.6436         estimate D2E/DX2                !
 ! A55   A(23,26,38)           109.0339         estimate D2E/DX2                !
 ! A56   A(27,26,37)           106.6722         estimate D2E/DX2                !
 ! A57   A(27,26,38)           111.649          estimate D2E/DX2                !
 ! A58   A(37,26,38)           108.3668         estimate D2E/DX2                !
 ! A59   A(26,27,39)           109.0943         estimate D2E/DX2                !
 ! A60   A(23,28,29)           118.2561         estimate D2E/DX2                !
 ! A61   A(23,28,30)           121.2515         estimate D2E/DX2                !
 ! A62   A(29,28,30)           120.4888         estimate D2E/DX2                !
 ! A63   A(28,29,40)           111.0753         estimate D2E/DX2                !
 ! A64   A(16,30,28)           127.2148         estimate D2E/DX2                !
 ! A65   L(5,16,30,7,-1)       169.5362         estimate D2E/DX2                !
 ! A66   L(10,39,27,25,-1)     169.5064         estimate D2E/DX2                !
 ! A67   L(5,16,30,7,-2)       172.4594         estimate D2E/DX2                !
 ! A68   L(10,39,27,25,-2)     172.411          estimate D2E/DX2                !
 ! D1    D(11,1,2,3)           -55.8724         estimate D2E/DX2                !
 ! D2    D(11,1,2,12)         -177.0447         estimate D2E/DX2                !
 ! D3    D(11,1,2,13)           65.7935         estimate D2E/DX2                !
 ! D4    D(1,2,3,4)             64.7166         estimate D2E/DX2                !
 ! D5    D(1,2,3,6)           -176.3275         estimate D2E/DX2                !
 ! D6    D(1,2,3,8)            -55.6613         estimate D2E/DX2                !
 ! D7    D(12,2,3,4)          -176.3747         estimate D2E/DX2                !
 ! D8    D(12,2,3,6)           -57.4188         estimate D2E/DX2                !
 ! D9    D(12,2,3,8)            63.2473         estimate D2E/DX2                !
 ! D10   D(13,2,3,4)           -57.7208         estimate D2E/DX2                !
 ! D11   D(13,2,3,6)            61.2351         estimate D2E/DX2                !
 ! D12   D(13,2,3,8)          -178.0988         estimate D2E/DX2                !
 ! D13   D(2,3,4,5)            -52.3987         estimate D2E/DX2                !
 ! D14   D(2,3,4,14)          -177.3629         estimate D2E/DX2                !
 ! D15   D(2,3,4,15)            65.2763         estimate D2E/DX2                !
 ! D16   D(6,3,4,5)           -172.0471         estimate D2E/DX2                !
 ! D17   D(6,3,4,14)            62.9887         estimate D2E/DX2                !
 ! D18   D(6,3,4,15)           -54.3721         estimate D2E/DX2                !
 ! D19   D(8,3,4,5)             69.8036         estimate D2E/DX2                !
 ! D20   D(8,3,4,14)           -55.1606         estimate D2E/DX2                !
 ! D21   D(8,3,4,15)          -172.5214         estimate D2E/DX2                !
 ! D22   D(2,3,6,7)           -171.3403         estimate D2E/DX2                !
 ! D23   D(2,3,6,17)            64.7412         estimate D2E/DX2                !
 ! D24   D(2,3,6,18)           -53.0025         estimate D2E/DX2                !
 ! D25   D(4,3,6,7)            -51.8069         estimate D2E/DX2                !
 ! D26   D(4,3,6,17)          -175.7254         estimate D2E/DX2                !
 ! D27   D(4,3,6,18)            66.5309         estimate D2E/DX2                !
 ! D28   D(8,3,6,7)             66.259          estimate D2E/DX2                !
 ! D29   D(8,3,6,17)           -57.6594         estimate D2E/DX2                !
 ! D30   D(8,3,6,18)          -175.4031         estimate D2E/DX2                !
 ! D31   D(2,3,8,9)             24.6831         estimate D2E/DX2                !
 ! D32   D(2,3,8,10)          -156.0191         estimate D2E/DX2                !
 ! D33   D(4,3,8,9)            -96.1667         estimate D2E/DX2                !
 ! D34   D(4,3,8,10)            83.1311         estimate D2E/DX2                !
 ! D35   D(6,3,8,9)            145.8502         estimate D2E/DX2                !
 ! D36   D(6,3,8,10)           -34.852          estimate D2E/DX2                !
 ! D37   D(3,4,5,16)           -83.3653         estimate D2E/DX2                !
 ! D38   D(14,4,5,16)           40.1763         estimate D2E/DX2                !
 ! D39   D(15,4,5,16)          158.3898         estimate D2E/DX2                !
 ! D40   D(4,5,30,28)          -24.8193         estimate D2E/DX2                !
 ! D41   D(3,6,7,19)           -56.8435         estimate D2E/DX2                !
 ! D42   D(17,6,7,19)           65.6938         estimate D2E/DX2                !
 ! D43   D(18,6,7,19)         -176.7998         estimate D2E/DX2                !
 ! D44   D(3,8,9,20)             0.8994         estimate D2E/DX2                !
 ! D45   D(10,8,9,20)         -178.4038         estimate D2E/DX2                !
 ! D46   D(3,8,10,39)         -169.7345         estimate D2E/DX2                !
 ! D47   D(9,8,10,39)            9.5477         estimate D2E/DX2                !
 ! D48   D(8,10,27,26)          24.5151         estimate D2E/DX2                !
 ! D49   D(31,21,22,23)         55.8724         estimate D2E/DX2                !
 ! D50   D(31,21,22,32)        -65.7965         estimate D2E/DX2                !
 ! D51   D(31,21,22,33)        177.0419         estimate D2E/DX2                !
 ! D52   D(21,22,23,24)        176.3391         estimate D2E/DX2                !
 ! D53   D(21,22,23,26)        -64.7055         estimate D2E/DX2                !
 ! D54   D(21,22,23,28)         55.6769         estimate D2E/DX2                !
 ! D55   D(32,22,23,24)        -61.2221         estimate D2E/DX2                !
 ! D56   D(32,22,23,26)         57.7333         estimate D2E/DX2                !
 ! D57   D(32,22,23,28)        178.1157         estimate D2E/DX2                !
 ! D58   D(33,22,23,24)         57.4324         estimate D2E/DX2                !
 ! D59   D(33,22,23,26)        176.3878         estimate D2E/DX2                !
 ! D60   D(33,22,23,28)        -63.2298         estimate D2E/DX2                !
 ! D61   D(22,23,24,25)        171.3213         estimate D2E/DX2                !
 ! D62   D(22,23,24,34)         52.9882         estimate D2E/DX2                !
 ! D63   D(22,23,24,35)        -64.7563         estimate D2E/DX2                !
 ! D64   D(26,23,24,25)         51.7827         estimate D2E/DX2                !
 ! D65   D(26,23,24,34)        -66.5505         estimate D2E/DX2                !
 ! D66   D(26,23,24,35)        175.7051         estimate D2E/DX2                !
 ! D67   D(28,23,24,25)        -66.2868         estimate D2E/DX2                !
 ! D68   D(28,23,24,34)        175.38           estimate D2E/DX2                !
 ! D69   D(28,23,24,35)         57.6355         estimate D2E/DX2                !
 ! D70   D(22,23,26,27)         52.3911         estimate D2E/DX2                !
 ! D71   D(22,23,26,37)        -65.2844         estimate D2E/DX2                !
 ! D72   D(22,23,26,38)        177.3605         estimate D2E/DX2                !
 ! D73   D(24,23,26,27)        172.0435         estimate D2E/DX2                !
 ! D74   D(24,23,26,37)         54.368          estimate D2E/DX2                !
 ! D75   D(24,23,26,38)        -62.987          estimate D2E/DX2                !
 ! D76   D(28,23,26,27)        -69.8071         estimate D2E/DX2                !
 ! D77   D(28,23,26,37)        172.5174         estimate D2E/DX2                !
 ! D78   D(28,23,26,38)         55.1623         estimate D2E/DX2                !
 ! D79   D(22,23,28,29)        -24.7031         estimate D2E/DX2                !
 ! D80   D(22,23,28,30)        155.986          estimate D2E/DX2                !
 ! D81   D(24,23,28,29)       -145.8684         estimate D2E/DX2                !
 ! D82   D(24,23,28,30)         34.8207         estimate D2E/DX2                !
 ! D83   D(26,23,28,29)         96.1512         estimate D2E/DX2                !
 ! D84   D(26,23,28,30)        -83.1598         estimate D2E/DX2                !
 ! D85   D(23,24,25,36)         56.8687         estimate D2E/DX2                !
 ! D86   D(34,24,25,36)        176.8189         estimate D2E/DX2                !
 ! D87   D(35,24,25,36)        -65.6738         estimate D2E/DX2                !
 ! D88   D(23,26,27,39)         83.4131         estimate D2E/DX2                !
 ! D89   D(37,26,27,39)       -158.3463         estimate D2E/DX2                !
 ! D90   D(38,26,27,39)        -40.1326         estimate D2E/DX2                !
 ! D91   D(23,28,29,40)         -0.8874         estimate D2E/DX2                !
 ! D92   D(30,28,29,40)        178.429          estimate D2E/DX2                !
 ! D93   D(23,28,30,16)        170.023          estimate D2E/DX2                !
 ! D94   D(29,28,30,16)         -9.2727         estimate D2E/DX2                !
 --------------------------------------------------------------------------------
 Number of steps in this run=    212 maximum allowed number of steps=    240.
 GradGradGradGradGradGradGradGradGradGradGradGradGradGradGradGradGradGrad

                    Distance matrix (angstroms):
                    1          2          3          4          5
     1  O    0.000000
     2  C    1.412700   0.000000
     3  C    2.456604   1.540163   0.000000
     4  C    2.996907   2.528428   1.556554   0.000000
     5  O    2.659410   2.893515   2.473501   1.403501   0.000000
     6  C    3.794074   2.524260   1.547966   2.520013   3.786785
     7  O    4.907676   3.778610   2.462434   2.870521   4.236192
     8  C    2.935532   2.535843   1.524412   2.503016   3.035665
     9  O    2.581706   2.783816   2.437946   3.297054   3.301476
    10  O    4.151614   3.643546   2.393567   3.151509   3.861070
    11  H    0.981062   1.929829   2.564811   2.546811   1.854315
    12  H    2.018535   1.094776   2.179150   3.488722   3.932427
    13  H    2.066079   1.096828   2.160058   2.725230   3.151967
    14  H    3.967017   3.474034   2.175167   1.094283   2.073736
    15  H    3.418340   2.774418   2.157158   1.094316   2.012098
    16  H    3.053445   3.445088   2.840095   1.956922   0.979728
    17  H    4.064199   2.780953   2.165630   3.473477   4.615137
    18  H    4.039943   2.691039   2.167787   2.791550   4.041972
    19  H    5.008809   4.036076   2.597458   3.085179   4.317542
    20  H    1.669416   2.238427   2.429327   3.221325   2.997456
    21  O    7.559652   7.434939   6.088901   5.916538   6.183125
    22  C    7.437433   7.578710   6.394860   6.144296   6.090208
    23  C    6.094087   6.397856   5.397606   5.253808   5.022160
    24  C    6.489323   7.089878   6.329770   6.083210   5.507474
    25  O    5.737524   6.546965   6.074383   5.968816   5.218854
    26  C    5.927255   6.152275   5.257209   5.563483   5.504624
    27  O    6.191624   6.096294   5.023898   5.502373   5.793465
    28  C    5.024542   5.251009   4.186367   3.805932   3.583645
    29  O    5.425150   5.337436   4.018738   3.481729   3.660476
    30  O    4.119497   4.590955   3.804205   3.343305   2.739623
    31  H    7.334464   7.152451   5.842276   5.924710   6.282376
    32  H    8.205425   8.397310   7.271089   7.139966   7.056465
    33  H    7.836699   8.025985   6.834020   6.337187   6.179238
    34  H    7.430646   8.026183   7.264538   7.110952   6.583485
    35  H    6.826864   7.451477   6.663504   6.158061   5.477234
    36  H    4.874853   5.718828   5.299078   5.120576   4.290340
    37  H    6.850448   7.144279   6.315879   6.650613   6.534728
    38  H    5.089728   5.450490   4.781583   5.224669   5.050777
    39  H    5.441933   5.215703   4.103240   4.687239   5.114100
    40  H    6.289747   6.121484   4.736312   4.341477   4.642180
                    6          7          8          9         10
     6  C    0.000000
     7  O    1.393046   0.000000
     8  C    2.498057   2.995347   0.000000
     9  O    3.644905   4.298895   1.313072   0.000000
    10  O    2.787884   2.746380   1.217003   2.197078   0.000000
    11  H    4.000229   4.944322   3.135148   2.901099   4.296544
    12  H    2.745201   4.088455   2.815950   2.944512   3.825771
    13  H    2.752783   4.000965   3.473118   3.850182   4.496182
    14  H    2.762421   2.555571   2.686020   3.653692   2.904057
    15  H    2.669126   3.064010   3.435956   4.250815   4.070243
    16  H    4.203341   4.497316   2.891716   2.998637   3.578723
    17  H    1.101601   2.062384   2.695066   3.690645   2.906470
    18  H    1.093468   1.997354   3.444930   4.491543   3.855204
    19  H    1.922750   0.970394   2.592570   3.887601   2.000488
    20  H    3.802327   4.679957   1.915463   1.000197   3.028675
    21  O    6.481723   5.725686   5.025002   5.431129   4.119664
    22  C    7.084671   6.537813   5.252276   5.344261   4.590792
    23  C    6.327863   6.069066   4.188525   4.025842   3.803733
    24  C    7.467669   7.367534   5.191081   4.710074   5.073446
    25  O    7.370812   7.531564   4.969690   4.178962   5.142553
    26  C    6.083777   5.964253   3.810460   3.492840   3.342574
    27  O    5.506243   5.211928   3.587875   3.671006   2.739296
    28  C    5.188562   4.966294   3.253114   3.336182   3.072826
    29  O    4.703253   4.172282   3.333838   3.887197   2.891536
    30  O    5.074110   5.143476   3.072989   2.891387   3.356322
    31  H    6.164899   5.478779   4.651093   5.033927   3.651719
    32  H    7.952965   7.433988   6.018469   5.980212   5.328658
    33  H    7.564085   6.964120   5.855014   5.986112   5.283463
    34  H    8.341166   8.199049   6.027572   5.506093   5.801152
    35  H    7.822088   7.655632   5.706258   5.336997   5.631154
    36  H    6.666633   6.903982   4.337360   3.561766   4.675228
    37  H    7.121530   6.992161   4.843585   4.414778   4.360206
    38  H    5.768010   5.900985   3.330473   2.689898   3.192332
    39  H    4.532156   4.294617   2.695894   2.986161   1.775269
    40  H    5.213805   4.496246   3.926522   4.512859   3.203401
                   11         12         13         14         15
    11  H    0.000000
    12  H    2.819286   0.000000
    13  H    2.325216   1.775384   0.000000
    14  H    3.522463   4.321262   3.737560   0.000000
    15  H    2.956647   3.749794   2.519467   1.774738   0.000000
    16  H    2.332779   4.376046   3.924793   2.231590   2.813214
    17  H    4.500574   2.550337   3.157076   3.739867   3.701404
    18  H    4.194843   2.978840   2.463863   3.190826   2.491050
    19  H    5.063111   4.293356   4.484607   2.604812   3.571332
    20  H    2.097502   2.488431   3.272476   3.845870   4.045206
    21  O    7.331787   7.837207   8.199892   5.075675   6.837378
    22  C    7.152391   8.028675   8.394771   5.439187   7.134500
    23  C    5.845609   6.838812   7.272539   4.775128   6.311709
    24  C    6.171073   7.570603   7.957206   5.764431   7.120586
    25  O    5.490166   6.973509   7.443267   5.902282   6.997274
    26  C    5.933248   6.347124   7.146633   5.220553   6.650321
    27  O    6.288446   6.187799   7.060826   5.044505   6.531817
    28  C    4.649417   5.854980   6.016048   3.324877   4.838530
    29  O    5.026309   5.981230   5.971402   2.677730   4.402592
    30  O    3.651464   5.283695   5.328781   3.193305   4.360890
    31  H    7.233675   7.426668   7.982037   5.166088   6.877440
    32  H    7.984724   8.763133   9.271255   6.475805   8.155430
    33  H    7.423617   8.592804   8.757627   5.583191   7.260738
    34  H    7.177136   8.426469   8.935670   6.758112   8.162265
    35  H    6.359822   8.060093   8.218451   5.788880   7.124113
    36  H    4.561291   6.225918   6.569151   5.144170   6.121210
    37  H    6.887909   7.272937   8.163857   6.306287   7.739517
    38  H    5.178361   5.595680   6.486436   5.098421   6.310742
    39  H    5.574610   5.303954   6.158238   4.281139   5.688218
    40  H    5.960391   6.671104   6.783213   3.458061   5.226383
                   16         17         18         19         20
    16  H    0.000000
    17  H    4.955322   0.000000
    18  H    4.660622   1.778988   0.000000
    19  H    4.366871   2.336055   2.804362   0.000000
    20  H    2.884781   3.905784   4.457073   4.454015   0.000000
    21  O    5.435304   6.823343   7.420735   4.865054   6.294208
    22  C    5.210768   7.449636   8.019300   5.710875   6.127555
    23  C    4.101589   6.663727   7.262024   5.293700   4.743542
    24  C    4.532986   7.823524   8.341130   6.662730   5.221997
    25  O    4.300100   7.659141   8.203418   6.902188   4.506181
    26  C    4.688642   6.160702   7.111658   5.114702   4.353595
    27  O    5.113751   5.478860   6.581924   4.282391   4.652761
    28  C    2.691973   5.705175   6.024242   4.334577   3.928040
    29  O    2.977490   5.332706   5.497365   3.557573   4.510679
    30  O    1.775420   5.631739   5.801782   4.675885   3.203124
    31  H    5.569818   6.357648   7.169170   4.551021   5.966923
    32  H    6.154679   8.217762   8.929969   6.560649   6.791936
    33  H    5.297166   8.056946   8.417763   6.218499   6.674743
    34  H    5.612592   8.617789   9.261465   7.430812   6.073528
    35  H    4.504818   8.309845   8.615824   7.019803   5.753195
    36  H    3.393283   7.023234   7.435913   6.361133   3.770926
    37  H    5.690070   7.127472   8.163463   6.114647   5.240425
    38  H    4.285668   5.793482   6.762635   5.140707   3.472429
    39  H    4.545310   4.506238   5.611561   3.386636   3.980004
    40  H    3.971683   5.748461   6.063009   3.763708   5.253820
                   21         22         23         24         25
    21  O    0.000000
    22  C    1.412708   0.000000
    23  C    2.456632   1.540175   0.000000
    24  C    3.794139   2.524320   1.547969   0.000000
    25  O    4.907661   3.778607   2.462398   1.393040   0.000000
    26  C    2.996930   2.528528   1.556567   2.519954   2.870169
    27  O    2.659504   2.893660   2.473570   3.786767   4.235895
    28  C    2.935506   2.535686   1.524366   2.498018   2.995548
    29  O    2.581495   2.783571   2.437884   3.644966   4.299163
    30  O    4.151587   3.643387   2.393659   2.787889   2.746935
    31  H    0.981050   1.929871   2.564890   4.000281   4.944236
    32  H    2.066069   1.096816   2.160088   2.752773   4.000844
    33  H    2.018534   1.094779   2.179135   2.745351   4.088613
    34  H    4.039834   2.690946   2.167746   1.093469   1.997339
    35  H    4.064498   2.781211   2.165683   1.101594   2.062396
    36  H    5.009148   4.036349   2.597688   1.922816   0.970385
    37  H    3.418365   2.774504   2.157083   2.668910   3.063387
    38  H    3.967045   3.474106   2.175170   2.762322   2.555161
    39  H    3.054112   3.445646   2.840467   4.203505   4.497099
    40  H    1.669158   2.238188   2.429273   3.802383   4.680110
                   26         27         28         29         30
    26  C    0.000000
    27  O    1.403483   0.000000
    28  C    2.503071   3.035859   0.000000
    29  O    3.296948   3.301448   1.313135   0.000000
    30  O    3.151961   3.861622   1.216984   2.197042   0.000000
    31  H    2.546882   1.854470   3.135285   2.901014   4.296816
    32  H    2.725480   3.152239   3.473004   3.849961   4.496133
    33  H    3.488792   3.932530   2.815600   2.944125   3.825241
    34  H    2.791597   4.041961   3.444846   4.491459   3.855280
    35  H    3.473455   4.615225   2.694902   3.690762   2.905946
    36  H    3.085066   4.317557   2.593102   3.888255   2.001335
    37  H    1.094319   2.012103   3.435924   4.250670   4.070579
    38  H    1.094286   2.073743   2.686110   3.653647   2.904679
    39  H    1.956807   0.979676   2.892411   2.999300   3.579643
    40  H    3.221177   2.997369   1.915552   1.000211   3.028691
                   31         32         33         34         35
    31  H    0.000000
    32  H    2.325271   0.000000
    33  H    2.819306   1.775381   0.000000
    34  H    4.194744   2.463699   2.978854   0.000000
    35  H    4.500827   3.157231   2.550722   1.778986   0.000000
    36  H    5.063405   4.484747   4.293708   2.804402   2.336026
    37  H    2.956697   2.519736   3.749896   2.490954   3.701284
    38  H    3.522569   3.737780   4.321280   3.190922   3.739693
    39  H    2.333449   3.925324   4.376593   4.660732   4.955662
    40  H    2.097329   3.272225   2.488140   4.456930   3.906020
                   36         37         38         39         40
    36  H    0.000000
    37  H    3.570961   0.000000
    38  H    2.604524   1.774727   0.000000
    39  H    4.366999   2.813033   2.231295   0.000000
    40  H    4.454574   4.045017   3.845787   2.885463   0.000000
 Framework group  C1[X(C10H20O10)]
 Deg. of freedom   114
                         Standard orientation:                         
 ---------------------------------------------------------------------
 Center     Atomic      Atomic             Coordinates (Angstroms)
 Number     Number       Type             X           Y           Z
 ---------------------------------------------------------------------
      1          8           0        3.029550   -2.195452   -0.549215
      2          6           0        3.630821   -0.917584   -0.584562
      3          6           0        2.690840    0.191080   -0.075248
      4          6           0        2.382358   -0.042416    1.432459
      5          8           0        1.917446   -1.337481    1.709008
      6          6           0        3.379634    1.568825   -0.228808
      7          8           0        2.684112    2.611072    0.379919
      8          6           0        1.375115    0.211370   -0.844852
      9          8           0        0.976950   -0.897302   -1.424912
     10          8           0        0.699550    1.221324   -0.913415
     11          1           0        2.739238   -2.332943    0.377768
     12          1           0        3.909940   -0.733339   -1.627001
     13          1           0        4.545236   -0.912450    0.021121
     14          1           0        1.677406    0.721260    1.774945
     15          1           0        3.318698    0.079762    1.985512
     16          1           0        0.954043   -1.376177    1.535152
     17          1           0        3.527697    1.767188   -1.302239
     18          1           0        4.361080    1.533648    0.252023
     19          1           0        1.790450    2.626262    0.002029
     20          1           0        1.623037   -1.642429   -1.258326
     21          8           0       -3.023798    2.195948    0.555742
     22          6           0       -3.627490    0.919189    0.590187
     23          6           0       -2.691153   -0.190302    0.075947
     24          6           0       -3.382295   -1.567002    0.228353
     25          8           0       -2.690677   -2.609194   -0.384884
     26          6           0       -2.386176    0.045707   -1.432094
     27          8           0       -1.919473    1.340389   -1.707320
     28          6           0       -1.373557   -0.214838    0.842127
     29          8           0       -0.971621    0.892022    1.423191
     30          8           0       -0.699936   -1.226280    0.907458
     31          1           0       -2.735822    2.334818   -0.371751
     32          1           0       -4.543641    0.917117   -0.012861
     33          1           0       -3.903968    0.733353    1.633051
     34          1           0       -4.365050   -1.528673   -0.249555
     35          1           0       -3.527662   -1.767608    1.301729
     36          1           0       -1.796037   -2.627402   -0.009471
     37          1           0       -3.324262   -0.073550   -1.982826
     38          1           0       -1.683683   -0.718691   -1.778014
     39          1           0       -0.955454    1.376568   -1.536666
     40          1           0       -1.616671    1.638760    1.259750
 ---------------------------------------------------------------------
 Rotational constants (GHZ):           0.5377290           0.2369403           0.2054711
   320 basis functions,   580 primitive gaussians,   340 cartesian basis functions
    80 alpha electrons       80 beta electrons
       nuclear repulsion energy      1936.6018703369 Hartrees.
 NAtoms=   40 NActive=   40 NUniq=   40 SFac= 1.00D+00 NAtFMM=   60 NAOKFM=F Big=F
 Nuclear repulsion after empirical dispersion term =     1936.5652266944 Hartrees.
   1 Symmetry operations used in ECPInt.
 ECPInt:  NShTT=   12880 NPrTT=   51680 LenC2=   12109 LenP2D=   33307.
 LDataN:  DoStor=T MaxTD1= 4 Len=   56
 ExpMin= 1.22D-01 ExpMax= 2.27D+03 ExpMxC= 3.41D+02 IAcc=3 IRadAn=         5 AccDes= 0.00D+00
 Harris functional with IExCor= 4639 and IRadAn=       5 diagonalized for initial guess.
 HarFok:  IExCor= 4639 AccDes= 0.00D+00 IRadAn=         5 IDoV= 1 UseB2=F ITyADJ=14
 ICtDFT=  3500011 ScaDFX=  1.000000  1.000000  1.000000  1.000000
 FoFCou: FMM=F IPFlag=           0 FMFlag=      100000 FMFlg1=           0
         NFxFlg=           0 DoJE=T BraDBF=F KetDBF=T FulRan=T
         wScrn=  0.000000 ICntrl=       500 IOpCl=  0 I1Cent=   200000004 NGrid=           0
         NMat0=    1 NMatS0=      1 NMatT0=    0 NMatD0=    1 NMtDS0=    0 NMtDT0=    0
 Petite list used in FoFCou.
     Minimum is close to point  3 DX=  5.87D-03 DF= -1.77D-05 DXR=  9.68D-03 DFR=  9.28D-05 which will be used.
     Accept linear search using points  2 and  3.
     Accept linear search using points  1 and  2.
     Accept linear search using points  1 and  2.
     Minimum is close to point  2 DX= -1.80D-05 DF=  0.00D+00 DXR=  1.80D-05 DFR=  0.00D+00 which will be used.
 SCF Done:  E(RwB97XD) =  -1144.11752238     a.u. after    8 cycles
            Convg  =    0.8838D-09                    38 Fock formations.
              S**2 =  0.0000                  -V/T =  2.0078

 **********************************************************************

            Population analysis using the SCF Density.

 **********************************************************************

 Orbital symmetries:
       Occupied  (A) (A) (A) (A) (A) (A) (A) (A) (A) (A) (A) (A)
                 (A) (A) (A) (A) (A) (A) (A) (A) (A) (A) (A) (A)
                 (A) (A) (A) (A) (A) (A) (A) (A) (A) (A) (A) (A)
                 (A) (A) (A) (A) (A) (A) (A) (A) (A) (A) (A) (A)
                 (A) (A) (A) (A) (A) (A) (A) (A) (A) (A) (A) (A)
                 (A) (A) (A) (A) (A) (A) (A) (A) (A) (A) (A) (A)
                 (A) (A) (A) (A) (A) (A) (A) (A)
       Virtual   (A) (A) (A) (A) (A) (A) (A) (A) (A) (A) (A) (A)
                 (A) (A) (A) (A) (A) (A) (A) (A) (A) (A) (A) (A)
                 (A) (A) (A) (A) (A) (A) (A) (A) (A) (A) (A) (A)
                 (A) (A) (A) (A) (A) (A) (A) (A) (A) (A) (A) (A)
                 (A) (A) (A) (A) (A) (A) (A) (A) (A) (A) (A) (A)
                 (A) (A) (A) (A) (A) (A) (A) (A) (A) (A) (A) (A)
                 (A) (A) (A) (A) (A) (A) (A) (A) (A) (A) (A) (A)
                 (A) (A) (A) (A) (A) (A) (A) (A) (A) (A) (A) (A)
                 (A) (A) (A) (A) (A) (A) (A) (A) (A) (A) (A) (A)
                 (A) (A) (A) (A) (A) (A) (A) (A) (A) (A) (A) (A)
                 (A) (A) (A) (A) (A) (A) (A) (A) (A) (A) (A) (A)
                 (A) (A) (A) (A) (A) (A) (A) (A) (A) (A) (A) (A)
                 (A) (A) (A) (A) (A) (A) (A) (A) (A) (A) (A) (A)
                 (A) (A) (A) (A) (A) (A) (A) (A) (A) (A) (A) (A)
                 (A) (A) (A) (A) (A) (A) (A) (A) (A) (A) (A) (A)
                 (A) (A) (A) (A) (A) (A) (A) (A) (A) (A) (A) (A)
                 (A) (A) (A) (A) (A) (A) (A) (A) (A) (A) (A) (A)
                 (A) (A) (A) (A) (A) (A) (A) (A) (A) (A) (A) (A)
                 (A) (A) (A) (A) (A) (A) (A) (A) (A) (A) (A) (A)
                 (A) (A) (A) (A) (A) (A) (A) (A) (A) (A) (A) (A)
 The electronic state is 1-A.
 Alpha  occ. eigenvalues --  -19.31465 -19.31458 -19.28651 -19.28643 -19.27860
 Alpha  occ. eigenvalues --  -19.27854 -19.26522 -19.26514 -19.24961 -19.24956
 Alpha  occ. eigenvalues --  -10.45983 -10.45978 -10.36984 -10.36977 -10.35711
 Alpha  occ. eigenvalues --  -10.35707 -10.35561 -10.35550 -10.33847 -10.33840
 Alpha  occ. eigenvalues --   -1.23029  -1.22518  -1.15913  -1.15638  -1.14030
 Alpha  occ. eigenvalues --   -1.13791  -1.12520  -1.12213  -1.11666  -1.11659
 Alpha  occ. eigenvalues --   -0.92413  -0.92269  -0.79127  -0.78964  -0.77684
 Alpha  occ. eigenvalues --   -0.77592  -0.75592  -0.74873  -0.72882  -0.72734
 Alpha  occ. eigenvalues --   -0.66254  -0.66027  -0.64364  -0.63340  -0.61859
 Alpha  occ. eigenvalues --   -0.61671  -0.59536  -0.58300  -0.58274  -0.57010
 Alpha  occ. eigenvalues --   -0.56800  -0.56535  -0.55785  -0.55549  -0.54343
 Alpha  occ. eigenvalues --   -0.54336  -0.53408  -0.53352  -0.51970  -0.51812
 Alpha  occ. eigenvalues --   -0.50109  -0.49579  -0.48777  -0.48730  -0.47315
 Alpha  occ. eigenvalues --   -0.47268  -0.45253  -0.44410  -0.43623  -0.42608
 Alpha  occ. eigenvalues --   -0.41966  -0.41903  -0.39885  -0.39797  -0.38420
 Alpha  occ. eigenvalues --   -0.37946  -0.37264  -0.37025  -0.35531  -0.35421
 Alpha virt. eigenvalues --    0.05158   0.05748   0.12658   0.13131   0.14433
 Alpha virt. eigenvalues --    0.14663   0.15747   0.15928   0.16962   0.17198
 Alpha virt. eigenvalues --    0.19087   0.19306   0.21194   0.21239   0.21877
 Alpha virt. eigenvalues --    0.21893   0.22535   0.22692   0.23704   0.24586
 Alpha virt. eigenvalues --    0.24866   0.25413   0.25557   0.26509   0.26640
 Alpha virt. eigenvalues --    0.28020   0.28741   0.29010   0.31417   0.31722
 Alpha virt. eigenvalues --    0.32377   0.32489   0.32830   0.34244   0.37417
 Alpha virt. eigenvalues --    0.37560   0.39914   0.43320   0.43372   0.43949
 Alpha virt. eigenvalues --    0.49847   0.50751   0.51197   0.51295   0.52164
 Alpha virt. eigenvalues --    0.52835   0.56623   0.57005   0.57601   0.59123
 Alpha virt. eigenvalues --    0.59381   0.59438   0.60917   0.61168   0.61990
 Alpha virt. eigenvalues --    0.63165   0.64844   0.65523   0.66187   0.66485
 Alpha virt. eigenvalues --    0.67044   0.67314   0.67544   0.69404   0.69507
 Alpha virt. eigenvalues --    0.69955   0.70957   0.71553   0.72816   0.73550
 Alpha virt. eigenvalues --    0.73779   0.74305   0.75236   0.75716   0.76024
 Alpha virt. eigenvalues --    0.76296   0.77122   0.78234   0.78249   0.78883
 Alpha virt. eigenvalues --    0.79835   0.80467   0.81923   0.82009   0.82389
 Alpha virt. eigenvalues --    0.82756   0.83114   0.85749   0.88148   0.89821
 Alpha virt. eigenvalues --    0.93350   0.94183   0.97269   0.97596   1.00380
 Alpha virt. eigenvalues --    1.01968   1.03575   1.04477   1.06381   1.08806
 Alpha virt. eigenvalues --    1.10561   1.11068   1.12602   1.12719   1.15845
 Alpha virt. eigenvalues --    1.17786   1.18654   1.18670   1.20459   1.21407
 Alpha virt. eigenvalues --    1.21881   1.22521   1.22854   1.24397   1.26251
 Alpha virt. eigenvalues --    1.29035   1.29722   1.30603   1.33796   1.34098
 Alpha virt. eigenvalues --    1.35145   1.36234   1.37844   1.40331   1.42460
 Alpha virt. eigenvalues --    1.42824   1.45272   1.46253   1.50215   1.51494
 Alpha virt. eigenvalues --    1.52901   1.53765   1.55626   1.56583   1.58567
 Alpha virt. eigenvalues --    1.60445   1.62403   1.63490   1.64159   1.64194
 Alpha virt. eigenvalues --    1.65827   1.67240   1.71410   1.72030   1.76858
 Alpha virt. eigenvalues --    1.77312   1.78242   1.78944   1.82942   1.83678
 Alpha virt. eigenvalues --    1.85017   1.86343   1.89132   1.89724   1.89996
 Alpha virt. eigenvalues --    1.91281   1.95102   1.95503   1.97995   1.98632
 Alpha virt. eigenvalues --    2.04225   2.04380   2.05343   2.05352   2.09646
 Alpha virt. eigenvalues --    2.11231   2.14518   2.14683   2.15991   2.16182
 Alpha virt. eigenvalues --    2.16702   2.17694   2.18679   2.19717   2.21716
 Alpha virt. eigenvalues --    2.22699   2.23910   2.24669   2.28425   2.30459
 Alpha virt. eigenvalues --    2.43682   2.44124   2.48007   2.49071   2.56326
 Alpha virt. eigenvalues --    2.56421   2.63887   2.64108   2.64789   2.65467
 Alpha virt. eigenvalues --    2.66936   2.67786   2.70211   2.70898   2.71125
 Alpha virt. eigenvalues --    2.71186   2.71906   2.73155   2.74470   2.74985
 Alpha virt. eigenvalues --    2.77901   2.79616   2.88851   2.88967   2.90128
 Alpha virt. eigenvalues --    2.90701   2.94067   2.94077   2.97884   2.98293
 Alpha virt. eigenvalues --    3.00842   3.01957   3.03075   3.03208   3.04570
 Alpha virt. eigenvalues --    3.04937   3.07422   3.07924   3.09288   3.09604
 Alpha virt. eigenvalues --    3.11194   3.11396   3.12056   3.12255   3.14833
 Alpha virt. eigenvalues --    3.16519   3.23131   3.25948   3.40217   3.42099
 Alpha virt. eigenvalues --    3.44420   3.44482   3.48164   3.48238   3.50088
 Alpha virt. eigenvalues --    3.50432   3.65574   3.65722   3.73930   3.75046
          Condensed to atoms (all electrons):
 Mulliken charges:
               1
     1  O   -0.518157
     2  C    0.068336
     3  C   -0.467660
     4  C    0.086310
     5  O   -0.535607
     6  C    0.108164
     7  O   -0.490372
     8  C    0.337576
     9  O   -0.350098
    10  O   -0.333481
    11  H    0.349255
    12  H    0.127928
    13  H    0.119746
    14  H    0.142536
    15  H    0.113458
    16  H    0.345185
    17  H    0.100201
    18  H    0.106586
    19  H    0.334437
    20  H    0.355419
    21  O   -0.518136
    22  C    0.068296
    23  C   -0.467486
    24  C    0.108178
    25  O   -0.490367
    26  C    0.086485
    27  O   -0.535484
    28  C    0.337508
    29  O   -0.350341
    30  O   -0.333316
    31  H    0.349272
    32  H    0.119788
    33  H    0.127971
    34  H    0.106597
    35  H    0.100244
    36  H    0.334505
    37  H    0.113517
    38  H    0.142365
    39  H    0.345177
    40  H    0.355462
 Sum of Mulliken charges =   0.00000
 Mulliken charges with hydrogens summed into heavy atoms:
               1
     1  O   -0.168902
     2  C    0.316011
     3  C   -0.467660
     4  C    0.342305
     5  O   -0.190422
     6  C    0.314951
     7  O   -0.155935
     8  C    0.337576
     9  O    0.005321
    10  O   -0.333481
    21  O   -0.168864
    22  C    0.316055
    23  C   -0.467486
    24  C    0.315019
    25  O   -0.155861
    26  C    0.342366
    27  O   -0.190307
    28  C    0.337508
    29  O    0.005122
    30  O   -0.333316
 Electronic spatial extent (au):  <R**2>=           5689.2734
 Charge=              0.0000 electrons
 Dipole moment (field-independent basis, Debye):
    X=             -0.0027    Y=              0.0026    Z=              0.0053  Tot=              0.0065
   1 Symmetry operations used in ECPInt.
 ECPInt:  NShTT=   12880 NPrTT=   51680 LenC2=   12109 LenP2D=   33307.
 LDataN:  DoStor=T MaxTD1= 5 Len=  102
 Calling FoFJK, ICntrl=      2127 FMM=F ISym2X=0 I1Cent= 0 IOpClX= 0 NMat=1 NMatS=1 NMatT=0.

 GradGradGradGradGradGradGradGradGradGradGradGradGradGradGradGradGradGrad
 FormGI is forming the generalized inverse of G from B-inverse, IUseBI=4.
 Internal  Forces:  Max     0.006334429 RMS     0.002181216
 Step number   1 out of a maximum of  212
 All quantities printed in internal units (Hartrees-Bohrs-Radians)
 Mixed Optimization -- RFO/linear search
 Second derivative matrix not updated -- first step.
 ITU=  0
     Eigenvalues ---    0.00230   0.00230   0.00235   0.00235   0.00246
     Eigenvalues ---    0.00348   0.00415   0.00469   0.00701   0.01246
     Eigenvalues ---    0.01500   0.01524   0.01524   0.01642   0.01784
     Eigenvalues ---    0.01784   0.02192   0.02841   0.02842   0.02976
     Eigenvalues ---    0.03595   0.04118   0.04721   0.04723   0.04741
     Eigenvalues ---    0.04780   0.04788   0.04788   0.04850   0.04856
     Eigenvalues ---    0.05112   0.05439   0.05734   0.05734   0.05847
     Eigenvalues ---    0.05855   0.05856   0.05942   0.05946   0.06403
     Eigenvalues ---    0.06824   0.07589   0.10255   0.11631   0.11687
     Eigenvalues ---    0.11700   0.11700   0.11810   0.11810   0.12184
     Eigenvalues ---    0.12666   0.13835   0.13973   0.13973   0.14069
     Eigenvalues ---    0.14070   0.14583   0.14584   0.15272   0.15695
     Eigenvalues ---    0.16000   0.16000   0.16000   0.16000   0.16000
     Eigenvalues ---    0.16000   0.16719   0.20773   0.22066   0.22066
     Eigenvalues ---    0.22099   0.22101   0.22534   0.24455   0.24999
     Eigenvalues ---    0.24999   0.26571   0.27099   0.27824   0.27825
     Eigenvalues ---    0.28503   0.28504   0.28970   0.29948   0.33506
     Eigenvalues ---    0.33506   0.34035   0.34037   0.34266   0.34266
     Eigenvalues ---    0.34318   0.34319   0.34322   0.34322   0.34415
     Eigenvalues ---    0.34415   0.43578   0.43579   0.44274   0.45047
     Eigenvalues ---    0.46789   0.46791   0.47651   0.47654   0.49611
     Eigenvalues ---    0.51179   0.51182   0.51433   0.53297   0.53298
     Eigenvalues ---    0.63673   0.63690   0.92563   0.96728
 Linear search not attempted -- first point.
 Iteration  1 RMS(Cart)=  0.09953250 RMS(Int)=  0.00204527
 Iteration  2 RMS(Cart)=  0.00345037 RMS(Int)=  0.00041590
 Iteration  3 RMS(Cart)=  0.00000431 RMS(Int)=  0.00041589
 Iteration  4 RMS(Cart)=  0.00000000 RMS(Int)=  0.00041589
 Variable       Old X    -DE/DX   Delta X   Delta X   Delta X     New X
                                 (Linear)    (Quad)   (Total)
    R1        2.66962   0.00223   0.00000   0.00503   0.00503   2.67465
    R2        1.85394   0.00278   0.00000   0.00536   0.00536   1.85930
    R3        2.91049  -0.00042   0.00000  -0.00145  -0.00145   2.90903
    R4        2.06883   0.00566   0.00000   0.01619   0.01619   2.08501
    R5        2.07270   0.00596   0.00000   0.01716   0.01716   2.08986
    R6        2.94146   0.00205   0.00000   0.00733   0.00729   2.94875
    R7        2.92523  -0.00065   0.00000  -0.00226  -0.00227   2.92296
    R8        2.88072   0.00157   0.00000   0.00522   0.00514   2.88586
    R9        2.65223   0.00424   0.00000   0.00923   0.00927   2.66150
   R10        2.06789   0.00535   0.00000   0.01527   0.01527   2.08317
   R11        2.06796   0.00611   0.00000   0.01743   0.01743   2.08539
   R12        1.85142   0.00370   0.00000   0.00705   0.00700   1.85842
   R13        2.63248   0.00066   0.00000   0.00144   0.00142   2.63389
   R14        2.08172   0.00589   0.00000   0.01722   0.01722   2.09894
   R15        2.06636   0.00633   0.00000   0.01802   0.01802   2.08438
   R16        1.83378   0.00096   0.00000   0.00177   0.00177   1.83555
   R17        2.48135  -0.00126   0.00000  -0.00196  -0.00196   2.47938
   R18        2.29980   0.00504   0.00000   0.00516   0.00519   2.30499
   R19        1.89010   0.00118   0.00000   0.00243   0.00243   1.89253
   R20        3.35477  -0.00042   0.00000  -0.00549  -0.00552   3.34925
   R21        3.35506  -0.00042   0.00000  -0.00618  -0.00608   3.34898
   R22        2.66963   0.00223   0.00000   0.00503   0.00503   2.67466
   R23        1.85391   0.00279   0.00000   0.00538   0.00538   1.85929
   R24        2.91051  -0.00043   0.00000  -0.00146  -0.00146   2.90905
   R25        2.07268   0.00597   0.00000   0.01717   0.01717   2.08986
   R26        2.06883   0.00566   0.00000   0.01617   0.01617   2.08501
   R27        2.92524  -0.00065   0.00000  -0.00227  -0.00228   2.92296
   R28        2.94149   0.00203   0.00000   0.00710   0.00722   2.94870
   R29        2.88063   0.00156   0.00000   0.00498   0.00505   2.88569
   R30        2.63246   0.00066   0.00000   0.00143   0.00141   2.63388
   R31        2.06636   0.00633   0.00000   0.01802   0.01802   2.08438
   R32        2.08171   0.00589   0.00000   0.01722   0.01722   2.09893
   R33        1.83376   0.00096   0.00000   0.00178   0.00178   1.83554
   R34        2.65220   0.00424   0.00000   0.00930   0.00926   2.66146
   R35        2.06796   0.00611   0.00000   0.01743   0.01743   2.08539
   R36        2.06790   0.00537   0.00000   0.01532   0.01532   2.08322
   R37        1.85132   0.00372   0.00000   0.00715   0.00706   1.85838
   R38        2.48147  -0.00125   0.00000  -0.00195  -0.00195   2.47952
   R39        2.29977   0.00505   0.00000   0.00519   0.00516   2.30493
   R40        1.89012   0.00117   0.00000   0.00243   0.00243   1.89255
    A1        1.85080  -0.00063   0.00000  -0.00379  -0.00379   1.84701
    A2        1.96394  -0.00391   0.00000  -0.01655  -0.01653   1.94742
    A3        1.85935   0.00063   0.00000  -0.00053  -0.00051   1.85885
    A4        1.92330   0.00221   0.00000   0.01435   0.01436   1.93766
    A5        1.92766   0.00181   0.00000   0.00843   0.00842   1.93608
    A6        1.89952   0.00043   0.00000   0.00152   0.00155   1.90107
    A7        1.88859  -0.00108   0.00000  -0.00690  -0.00691   1.88168
    A8        1.91058   0.00059   0.00000   0.00258   0.00298   1.91356
    A9        1.91379   0.00005   0.00000  -0.00349  -0.00368   1.91011
   A10        1.94915  -0.00150   0.00000  -0.01667  -0.01632   1.93284
   A11        1.89419  -0.00059   0.00000  -0.00048  -0.00052   1.89367
   A12        1.89648   0.00073   0.00000   0.01276   0.01224   1.90872
   A13        1.89877   0.00074   0.00000   0.00583   0.00571   1.90448
   A14        1.97678   0.00371   0.00000   0.02206   0.02289   1.99967
   A15        1.90301   0.00089   0.00000   0.01149   0.01057   1.91359
   A16        1.87885  -0.00306   0.00000  -0.02471  -0.02434   1.85452
   A17        1.94861  -0.00197   0.00000  -0.00532  -0.00573   1.94289
   A18        1.86176   0.00033   0.00000   0.00452   0.00423   1.86599
   A19        1.89138  -0.00012   0.00000  -0.01064  -0.01056   1.88083
   A20        1.90415   0.00206   0.00000   0.01031   0.01097   1.91512
   A21        1.98274  -0.00037   0.00000   0.00167   0.00161   1.98435
   A22        1.89308   0.00018   0.00000   0.00308   0.00294   1.89602
   A23        1.90406  -0.00150   0.00000  -0.01660  -0.01663   1.88743
   A24        1.93712   0.00136   0.00000   0.01946   0.01937   1.95648
   A25        1.85464   0.00103   0.00000   0.00515   0.00515   1.85980
   A26        1.88982  -0.00079   0.00000  -0.01446  -0.01455   1.87527
   A27        1.87690  -0.00276   0.00000  -0.01649  -0.01649   1.86041
   A28        2.06406  -0.00131   0.00000  -0.00637  -0.00595   2.05811
   A29        2.11601   0.00183   0.00000   0.00937   0.00770   2.12371
   A30        2.10305  -0.00054   0.00000  -0.00346  -0.00304   2.10000
   A31        1.93859  -0.00531   0.00000  -0.03174  -0.03174   1.90686
   A32        2.22667   0.00013   0.00000  -0.00442  -0.00334   2.22333
   A33        1.85086  -0.00064   0.00000  -0.00380  -0.00380   1.84706
   A34        1.96396  -0.00391   0.00000  -0.01656  -0.01654   1.94742
   A35        1.92329   0.00220   0.00000   0.01432   0.01433   1.93762
   A36        1.85934   0.00063   0.00000  -0.00048  -0.00046   1.85888
   A37        1.89955   0.00043   0.00000   0.00148   0.00151   1.90107
   A38        1.92762   0.00182   0.00000   0.00847   0.00846   1.93608
   A39        1.88860  -0.00108   0.00000  -0.00690  -0.00691   1.88168
   A40        1.91384   0.00004   0.00000  -0.00337  -0.00345   1.91039
   A41        1.91067   0.00057   0.00000   0.00256   0.00291   1.91357
   A42        1.94900  -0.00147   0.00000  -0.01591  -0.01574   1.93327
   A43        1.89411  -0.00056   0.00000  -0.00004  -0.00024   1.89387
   A44        1.89876   0.00073   0.00000   0.00568   0.00557   1.90433
   A45        1.89657   0.00071   0.00000   0.01159   0.01137   1.90794
   A46        1.98270  -0.00037   0.00000   0.00168   0.00162   1.98433
   A47        1.90400  -0.00149   0.00000  -0.01653  -0.01655   1.88745
   A48        1.89316   0.00018   0.00000   0.00300   0.00287   1.89602
   A49        1.85463   0.00103   0.00000   0.00522   0.00522   1.85985
   A50        1.93715   0.00136   0.00000   0.01937   0.01928   1.95643
   A51        1.88983  -0.00079   0.00000  -0.01446  -0.01455   1.87528
   A52        1.87702  -0.00276   0.00000  -0.01650  -0.01650   1.86052
   A53        1.97687   0.00365   0.00000   0.02176   0.02272   1.99959
   A54        1.87873  -0.00304   0.00000  -0.02427  -0.02410   1.85463
   A55        1.90300   0.00091   0.00000   0.01127   0.01049   1.91349
   A56        1.86178   0.00035   0.00000   0.00431   0.00407   1.86585
   A57        1.94864  -0.00196   0.00000  -0.00498  -0.00552   1.94313
   A58        1.89136  -0.00013   0.00000  -0.01068  -0.01058   1.88078
   A59        1.90405   0.00205   0.00000   0.01192   0.01206   1.91611
   A60        2.06396  -0.00127   0.00000  -0.00611  -0.00578   2.05817
   A61        2.11624   0.00175   0.00000   0.00877   0.00726   2.12349
   A62        2.10293  -0.00049   0.00000  -0.00313  -0.00283   2.10009
   A63        1.93863  -0.00529   0.00000  -0.03161  -0.03161   1.90702
   A64        2.22032   0.00028   0.00000  -0.00378  -0.00267   2.21765
   A65        2.95896   0.00067   0.00000   0.05651   0.05719   3.01616
   A66        2.95845   0.00068   0.00000   0.03907   0.03930   2.99775
   A67        3.00998  -0.00239   0.00000  -0.08678  -0.08859   2.92140
   A68        3.00914  -0.00231   0.00000  -0.04339  -0.04482   2.96432
    D1       -0.97516   0.00099   0.00000   0.03060   0.03065  -0.94450
    D2       -3.09001   0.00066   0.00000   0.03042   0.03041  -3.05961
    D3        1.14831   0.00043   0.00000   0.03141   0.03138   1.17969
    D4        1.12952   0.00102   0.00000   0.05423   0.05415   1.18366
    D5       -3.07749   0.00069   0.00000   0.05310   0.05309  -3.02441
    D6       -0.97147   0.00067   0.00000   0.04723   0.04735  -0.92412
    D7       -3.07832   0.00049   0.00000   0.04845   0.04835  -3.02997
    D8       -1.00215   0.00016   0.00000   0.04732   0.04729  -0.95486
    D9        1.10387   0.00015   0.00000   0.04145   0.04155   1.14542
   D10       -1.00742   0.00052   0.00000   0.04595   0.04586  -0.96156
   D11        1.06875   0.00019   0.00000   0.04482   0.04480   1.11356
   D12       -3.10841   0.00017   0.00000   0.03895   0.03906  -3.06935
   D13       -0.91453   0.00039   0.00000  -0.00670  -0.00663  -0.92116
   D14       -3.09557  -0.00038   0.00000  -0.02447  -0.02455  -3.12011
   D15        1.13929   0.00097   0.00000  -0.00434  -0.00426   1.13502
   D16       -3.00279   0.00034   0.00000  -0.00370  -0.00360  -3.00639
   D17        1.09936  -0.00044   0.00000  -0.02146  -0.02152   1.07784
   D18       -0.94897   0.00092   0.00000  -0.00134  -0.00124  -0.95021
   D19        1.21830  -0.00063   0.00000  -0.01755  -0.01712   1.20118
   D20       -0.96273  -0.00140   0.00000  -0.03531  -0.03504  -0.99778
   D21       -3.01107  -0.00004   0.00000  -0.01518  -0.01476  -3.02582
   D22       -2.99045   0.00012   0.00000   0.02196   0.02192  -2.96854
   D23        1.12995  -0.00152   0.00000  -0.00670  -0.00672   1.12323
   D24       -0.92507   0.00016   0.00000   0.01815   0.01810  -0.90697
   D25       -0.90420   0.00051   0.00000   0.02275   0.02306  -0.88114
   D26       -3.06699  -0.00113   0.00000  -0.00591  -0.00558  -3.07256
   D27        1.16118   0.00054   0.00000   0.01895   0.01924   1.18043
   D28        1.15644   0.00147   0.00000   0.04101   0.04070   1.19714
   D29       -1.00635  -0.00017   0.00000   0.01235   0.01207  -0.99428
   D30       -3.06136   0.00150   0.00000   0.03720   0.03688  -3.02448
   D31        0.43080   0.00028   0.00000  -0.02949  -0.02945   0.40135
   D32       -2.72305  -0.00092   0.00000  -0.07266  -0.07302  -2.79606
   D33       -1.67843   0.00001   0.00000  -0.03068  -0.03088  -1.70931
   D34        1.45091  -0.00119   0.00000  -0.07384  -0.07445   1.37646
   D35        2.54557  -0.00012   0.00000  -0.04059  -0.04058   2.50498
   D36       -0.60828  -0.00132   0.00000  -0.08375  -0.08415  -0.69243
   D37       -1.45500  -0.00296   0.00000  -0.10427  -0.10298  -1.55798
   D38        0.70121  -0.00049   0.00000  -0.07637  -0.07555   0.62566
   D39        2.76442  -0.00153   0.00000  -0.08943  -0.08887   2.67555
   D40       -0.43318  -0.00067   0.00000  -0.02430  -0.02193  -0.45511
   D41       -0.99211  -0.00064   0.00000  -0.00575  -0.00581  -0.99792
   D42        1.14657   0.00037   0.00000   0.01437   0.01442   1.16099
   D43       -3.08574   0.00075   0.00000   0.01039   0.01040  -3.07534
   D44        0.01570   0.00063   0.00000   0.01286   0.01280   0.02849
   D45       -3.11373   0.00181   0.00000   0.05560   0.05566  -3.05807
   D46       -2.96243   0.00490   0.00000   0.09596   0.09631  -2.86611
   D47        0.16664   0.00366   0.00000   0.05182   0.05170   0.21834
   D48        0.42787   0.00071   0.00000   0.00216   0.00048   0.42835
   D49        0.97516  -0.00100   0.00000  -0.03073  -0.03078   0.94438
   D50       -1.14837  -0.00043   0.00000  -0.03146  -0.03142  -1.17979
   D51        3.08996  -0.00066   0.00000  -0.03047  -0.03046   3.05951
   D52        3.07770  -0.00069   0.00000  -0.05307  -0.05303   3.02467
   D53       -1.12932  -0.00101   0.00000  -0.05360  -0.05365  -1.18297
   D54        0.97174  -0.00068   0.00000  -0.04759  -0.04762   0.92413
   D55       -1.06853  -0.00019   0.00000  -0.04487  -0.04481  -1.11334
   D56        1.00764  -0.00051   0.00000  -0.04540  -0.04544   0.96220
   D57        3.10870  -0.00018   0.00000  -0.03939  -0.03941   3.06930
   D58        1.00239  -0.00017   0.00000  -0.04737  -0.04731   0.95508
   D59        3.07855  -0.00048   0.00000  -0.04790  -0.04793   3.03062
   D60       -1.10357  -0.00015   0.00000  -0.04189  -0.04190  -1.14547
   D61        2.99012  -0.00012   0.00000  -0.02157  -0.02151   2.96861
   D62        0.92482  -0.00017   0.00000  -0.01791  -0.01784   0.90698
   D63       -1.13021   0.00151   0.00000   0.00694   0.00697  -1.12324
   D64        0.90378  -0.00050   0.00000  -0.02267  -0.02286   0.88091
   D65       -1.16152  -0.00054   0.00000  -0.01901  -0.01919  -1.18072
   D66        3.06663   0.00113   0.00000   0.00584   0.00562   3.07225
   D67       -1.15692  -0.00144   0.00000  -0.03970  -0.03953  -1.19645
   D68        3.06096  -0.00149   0.00000  -0.03604  -0.03586   3.02510
   D69        1.00593   0.00019   0.00000  -0.01119  -0.01105   0.99488
   D70        0.91440  -0.00038   0.00000   0.00359   0.00356   0.91795
   D71       -1.13943  -0.00096   0.00000   0.00138   0.00134  -1.13809
   D72        3.09553   0.00039   0.00000   0.02142   0.02156   3.11709
   D73        3.00273  -0.00033   0.00000   0.00099   0.00094   3.00366
   D74        0.94890  -0.00092   0.00000  -0.00122  -0.00128   0.94762
   D75       -1.09933   0.00044   0.00000   0.01881   0.01894  -1.08039
   D76       -1.21836   0.00062   0.00000   0.01425   0.01394  -1.20443
   D77        3.01100   0.00004   0.00000   0.01204   0.01172   3.02272
   D78        0.96276   0.00139   0.00000   0.03208   0.03194   0.99471
   D79       -0.43115  -0.00029   0.00000   0.02668   0.02674  -0.40441
   D80        2.72247   0.00094   0.00000   0.07154   0.07192   2.79439
   D81       -2.54588   0.00011   0.00000   0.03723   0.03732  -2.50857
   D82        0.60774   0.00133   0.00000   0.08209   0.08250   0.69023
   D83        1.67815  -0.00003   0.00000   0.02753   0.02787   1.70603
   D84       -1.45141   0.00119   0.00000   0.07239   0.07306  -1.37836
   D85        0.99255   0.00064   0.00000   0.00581   0.00587   0.99841
   D86        3.08607  -0.00074   0.00000  -0.01018  -0.01019   3.07588
   D87       -1.14622  -0.00036   0.00000  -0.01416  -0.01421  -1.16044
   D88        1.45583   0.00298   0.00000   0.10077   0.09991   1.55574
   D89       -2.76366   0.00155   0.00000   0.08616   0.08587  -2.67779
   D90       -0.70045   0.00052   0.00000   0.07312   0.07254  -0.62790
   D91       -0.01549  -0.00063   0.00000  -0.01223  -0.01220  -0.02769
   D92        3.11417  -0.00183   0.00000  -0.05665  -0.05668   3.05750
   D93        2.96746  -0.00496   0.00000  -0.10062  -0.10055   2.86691
   D94       -0.16184  -0.00371   0.00000  -0.05475  -0.05428  -0.21612
         Item               Value     Threshold  Converged?
 Maximum Force            0.006334     0.000015     NO 
 RMS     Force            0.002181     0.000010     NO 
 Maximum Displacement     0.362801     0.000060     NO 
 RMS     Displacement     0.098747     0.000040     NO 
 GradGradGradGradGradGradGradGradGradGradGradGradGradGradGradGradGradGrad

                    Distance matrix (angstroms):
                    1          2          3          4          5
     1  O    0.000000
     2  C    1.415362   0.000000
     3  C    2.444510   1.539395   0.000000
     4  C    3.018379   2.533626   1.560414   0.000000
     5  O    2.726455   2.930884   2.499264   1.408405   0.000000
     6  C    3.781831   2.519378   1.546766   2.521704   3.803763
     7  O    4.897399   3.774481   2.463309   2.861058   4.235997
     8  C    2.875941   2.523321   1.527132   2.519336   3.068908
     9  O    2.488282   2.749971   2.435161   3.324435   3.362810
    10  O    4.092675   3.649923   2.403417   3.140686   3.843735
    11  H    0.983901   1.931541   2.533479   2.554417   1.896080
    12  H    2.026788   1.103341   2.191011   3.503379   3.990217
    13  H    2.085465   1.105906   2.167248   2.713499   3.151114
    14  H    3.996043   3.490567   2.192359   1.102364   2.080320
    15  H    3.447829   2.761167   2.148663   1.103540   2.026261
    16  H    3.186492   3.552503   2.923304   1.971253   0.983434
    17  H    4.041055   2.778510   2.173489   3.485610   4.646622
    18  H    4.025666   2.665205   2.161380   2.792435   4.050328
    19  H    4.982120   4.027050   2.588463   3.065397   4.309245
    20  H    1.551373   2.166966   2.391948   3.218583   3.050410
    21  O    7.564250   7.516579   6.180002   5.920957   6.117359
    22  C    7.489916   7.706195   6.539464   6.228139   6.108535
    23  C    6.137389   6.517149   5.530900   5.315063   5.020860
    24  C    6.557060   7.221932   6.476868   6.177163   5.551610
    25  O    5.800801   6.671975   6.208277   6.052010   5.264298
    26  C    5.874638   6.190777   5.294996   5.528552   5.423941
    27  O    6.104931   6.101777   5.021742   5.431932   5.685625
    28  C    5.145239   5.436900   4.390621   3.911809   3.607162
    29  O    5.603847   5.589717   4.301298   3.655598   3.722395
    30  O    4.221715   4.731668   3.952032   3.403129   2.737054
    31  H    7.238420   7.131948   5.815686   5.806005   6.113233
    32  H    8.226115   8.490428   7.376174   7.201052   7.069647
    33  H    7.966350   8.227464   7.062486   6.518173   6.283819
    34  H    7.485170   8.146013   7.394387   7.194702   6.626794
    35  H    6.960329   7.636322   6.867445   6.317444   5.585367
    36  H    4.964169   5.861423   5.447611   5.210047   4.339213
    37  H    6.793950   7.180701   6.352926   6.625665   6.468169
    38  H    5.021885   5.482607   4.812591   5.182405   4.964160
    39  H    5.341570   5.209344   4.097722   4.629693   5.022640
    40  H    6.430523   6.348699   4.991062   4.500784   4.694050
                    6          7          8          9         10
     6  C    0.000000
     7  O    1.393796   0.000000
     8  C    2.504384   3.027082   0.000000
     9  O    3.635528   4.324567   1.312033   0.000000
    10  O    2.833729   2.815694   1.219749   2.196608   0.000000
    11  H    3.986369   4.922952   3.038130   2.775067   4.184326
    12  H    2.728935   4.082532   2.830128   2.937649   3.871416
    13  H    2.774259   4.008259   3.473127   3.823266   4.518475
    14  H    2.766376   2.542492   2.733455   3.721557   2.910958
    15  H    2.652681   3.036888   3.445873   4.264649   4.070357
    16  H    4.260385   4.519618   3.006645   3.178939   3.605123
    17  H    1.110713   2.083539   2.702388   3.672070   2.974694
    18  H    1.103006   2.008872   3.449446   4.471139   3.905074
    19  H    1.912962   0.971332   2.619529   3.916885   2.066883
    20  H    3.753910   4.662517   1.894998   1.001482   3.014202
    21  O    6.629029   5.896446   5.168139   5.595181   4.258701
    22  C    7.270269   6.748320   5.440557   5.557681   4.753850
    23  C    6.494471   6.250876   4.377010   4.255451   3.957779
    24  C    7.636813   7.552041   5.383773   4.954356   5.218248
    25  O    7.520731   7.691433   5.140722   4.410276   5.260009
    26  C    6.165373   6.060243   3.883539   3.604726   3.391137
    27  O    5.558408   5.280625   3.603098   3.707487   2.740361
    28  C    5.413386   5.188640   3.536711   3.657303   3.306344
    29  O    5.021779   4.493611   3.683360   4.228118   3.215679
    30  O    5.223384   5.281067   3.292972   3.182758   3.498920
    31  H    6.194680   5.523618   4.675482   5.094594   3.670619
    32  H    8.092198   7.598656   6.154510   6.146609   5.431866
    33  H    7.833185   7.262808   6.120715   6.266976   5.518528
    34  H    8.492854   8.367340   6.193449   5.721514   5.919496
    35  H    8.042667   7.889942   5.954817   5.633768   5.824710
    36  H    6.825990   7.065390   4.527746   3.823187   4.803028
    37  H    7.200917   7.090009   4.905369   4.508628   4.398003
    38  H    5.843042   5.988301   3.392402   2.793094   3.230727
    39  H    4.587103   4.377913   2.693385   2.983831   1.772349
    40  H    5.529623   4.837232   4.227748   4.798250   3.501590
                   11         12         13         14         15
    11  H    0.000000
    12  H    2.828382   0.000000
    13  H    2.354698   1.785190   0.000000
    14  H    3.529444   4.348860   3.735848   0.000000
    15  H    3.006587   3.729822   2.482744   1.781933   0.000000
    16  H    2.398276   4.521687   3.977604   2.225967   2.822659
    17  H    4.477608   2.529671   3.190315   3.758790   3.692274
    18  H    4.197580   2.925835   2.459703   3.196980   2.465957
    19  H    5.012291   4.294349   4.486915   2.584928   3.541979
    20  H    1.962534   2.451232   3.201317   3.881822   4.021759
    21  O    7.237119   7.992670   8.262826   5.086125   6.853265
    22  C    7.109776   8.222036   8.501387   5.545567   7.228932
    23  C    5.781178   7.032468   7.362846   4.858747   6.378581
    24  C    6.136646   7.772478   8.053945   5.887084   7.217195
    25  O    5.447553   7.171006   7.530666   6.012563   7.081364
    26  C    5.770578   6.471410   7.169885   5.202400   6.627089
    27  O    6.104415   6.273557   7.066025   4.981606   6.478339
    28  C    4.655681   6.113025   6.158553   3.443837   4.938883
    29  O    5.100338   6.298612   6.187020   2.864436   4.569104
    30  O    3.638176   5.492088   5.415857   3.264351   4.411836
    31  H    7.034804   7.488978   7.946451   5.043062   6.771348
    32  H    7.916900   8.917937   9.349935   6.559169   8.229538
    33  H    7.466511   8.851096   8.936456   5.795759   7.453407
    34  H    7.133840   8.615590   9.026385   6.868030   8.251947
    35  H    6.401215   8.306227   8.363054   5.977813   7.284635
    36  H    4.538144   6.440976   6.667079   5.256402   6.208506
    37  H    6.726114   7.392485   8.188283   6.300972   7.725797
    38  H    4.994707   5.720495   6.501821   5.078109   6.278822
    39  H    5.391054   5.366297   6.160845   4.239707   5.649670
    40  H    6.002014   6.963520   6.989977   3.632032   5.395405
                   16         17         18         19         20
    16  H    0.000000
    17  H    5.042937   0.000000
    18  H    4.701559   1.784618   0.000000
    19  H    4.386422   2.350815   2.809052   0.000000
    20  H    3.071155   3.852386   4.387791   4.444767   0.000000
    21  O    5.336461   7.027087   7.561654   5.056927   6.421654
    22  C    5.205487   7.674498   8.198614   5.935658   6.314067
    23  C    4.095367   6.873760   7.413997   5.490789   4.942240
    24  C    4.586557   8.027167   8.494316   6.858788   5.453700
    25  O    4.379359   7.841767   8.334857   7.070056   4.740945
    26  C    4.627736   6.294829   7.183443   5.221084   4.449545
    27  O    5.022177   5.587666   6.634031   4.356830   4.679439
    28  C    2.689589   5.975986   6.225176   4.574282   4.199987
    29  O    2.976259   5.694424   5.792573   3.901330   4.799471
    30  O    1.772203   5.822121   5.925506   4.824105   3.463979
    31  H    5.386335   6.456379   7.194375   4.613792   5.996354
    32  H    6.157593   8.389875   9.068633   6.733679   6.945847
    33  H    5.362159   8.355580   8.682625   6.527830   6.928475
    34  H    5.667665   8.802397   9.401807   7.608180   6.287094
    35  H    4.607635   8.559555   8.820909   7.264179   6.037558
    36  H    3.478315   7.216848   7.573894   6.529467   4.035193
    37  H    5.647352   7.254555   8.235890   6.220706   5.331625
    38  H    4.237271   5.921305   6.823652   5.236722   3.562397
    39  H    4.478441   4.608534   5.668267   3.476149   3.968471
    40  H    3.961099   6.107568   6.367309   4.127239   5.494266
                   21         22         23         24         25
    21  O    0.000000
    22  C    1.415367   0.000000
    23  C    2.444525   1.539404   0.000000
    24  C    3.782031   2.519635   1.546762   0.000000
    25  O    4.897431   3.774656   2.463281   1.393787   0.000000
    26  C    3.017985   2.533625   1.560386   2.521860   2.861141
    27  O    2.724376   2.929170   2.499157   3.803631   4.236610
    28  C    2.876411   2.523627   1.527040   2.504170   3.026447
    29  O    2.488959   2.751286   2.435184   3.636430   4.324343
    30  O    4.093212   3.649825   2.403160   2.832462   2.814103
    31  H    0.983896   1.931581   2.533485   3.986439   4.922830
    32  H    2.085439   1.105904   2.167254   2.774464   4.008478
    33  H    2.026813   1.103338   2.191021   2.729369   4.082886
    34  H    4.025927   2.665552   2.161387   1.103006   2.008904
    35  H    4.041428   2.778820   2.173482   1.110706   2.083492
    36  H    4.982368   4.027359   2.588724   1.913021   0.971327
    37  H    3.449625   2.762812   2.148727   2.651756   3.034810
    38  H    3.994754   3.490516   2.192282   2.767736   2.544167
    39  H    3.180664   3.548951   2.922825   4.261207   4.522417
    40  H    1.552127   2.169117   2.392193   3.755453   4.662766
                   26         27         28         29         30
    26  C    0.000000
    27  O    1.408383   0.000000
    28  C    2.518541   3.069714   0.000000
    29  O    3.322043   3.360752   1.312106   0.000000
    30  O    3.140489   3.846251   1.219715   2.196700   0.000000
    31  H    2.553918   1.893698   3.038387   2.774203   4.185021
    32  H    2.713804   3.148831   3.473310   3.824251   4.518236
    33  H    3.503402   3.988702   2.830554   2.940329   3.871048
    34  H    2.792788   4.049519   3.449301   4.472130   3.903918
    35  H    3.485699   4.646474   2.702442   3.674238   2.973212
    36  H    3.065750   4.310882   2.619043   3.916558   2.065373
    37  H    1.103541   2.026142   3.445176   4.263661   4.069079
    38  H    1.102390   2.080488   2.731009   3.716741   2.909271
    39  H    1.971873   0.983414   3.006490   3.173187   3.608547
    40  H    3.215812   3.046229   1.895180   1.001495   3.014336
                   31         32         33         34         35
    31  H    0.000000
    32  H    2.354746   0.000000
    33  H    2.828420   1.785188   0.000000
    34  H    4.197701   2.460031   2.926399   0.000000
    35  H    4.477836   3.190503   2.530215   1.784619   0.000000
    36  H    5.012478   4.487268   4.294673   2.809130   2.350633
    37  H    3.008377   2.485017   3.731258   2.465436   3.691699
    38  H    3.527859   3.736757   4.348890   3.199151   3.759664
    39  H    2.391791   3.974217   4.518230   4.701849   5.043212
    40  H    1.960489   3.202929   2.455399   4.389516   3.855433
                   36         37         38         39         40
    36  H    0.000000
    37  H    3.540306   0.000000
    38  H    2.585977   1.781926   0.000000
    39  H    4.390212   2.823348   2.227604   0.000000
    40  H    4.444862   4.021209   3.877007   3.062089   0.000000
 Framework group  C1[X(C10H20O10)]
 Deg. of freedom   114
                         Standard orientation:                         
 ---------------------------------------------------------------------
 Center     Atomic      Atomic             Coordinates (Angstroms)
 Number     Number       Type             X           Y           Z
 ---------------------------------------------------------------------
      1          8           0        2.992910   -2.235185   -0.498000
      2          6           0        3.683521   -0.999936   -0.476464
      3          6           0        2.762031    0.156505   -0.048403
      4          6           0        2.364039   -0.017297    1.450359
      5          8           0        1.821639   -1.277151    1.770006
      6          6           0        3.514479    1.498941   -0.203878
      7          8           0        2.846835    2.584003    0.361415
      8          6           0        1.499566    0.188372   -0.907065
      9          8           0        1.133273   -0.921972   -1.502377
     10          8           0        0.811616    1.191521   -0.997631
     11          1           0        2.588470   -2.332059    0.393686
     12          1           0        4.069744   -0.838926   -1.497380
     13          1           0        4.549445   -1.041515    0.210177
     14          1           0        1.686468    0.798685    1.750822
[...]
 0.00058379,-0.00002667,-0.00087671,0.00067657,0.00023767,0.00054760,-0
 .00028470,0.00047226,0.00053206,0.00081150,-0.00110593,0.03759470,-0.0
 0539536,-0.01328962,-0.00878374,-0.03234883,0.02373425,-0.00009548,-0.
 00105748,-0.00076793,0.00013636,0.00089523,0.00035088,0.00294493,-0.01
 222758,0.00212434,-0.00039694,0.00454907,-0.00113633,0.00055843,0.0046
 8026,-0.00260100,0.00016453,-0.00030697,-0.00008348,-0.00042201,0.0002
 7897,0.00002525,-0.00003800,0.00013779,-0.00016419,0.00327241,-0.00433
 206,0.00309130,-0.00047194,0.00047512,0.00102479,-0.03413089,0.0439537
 4,0.00016890,0.00006795,-0.00031530,-0.00002917,-0.00009737,-0.0000108
 2,0.00001156,0.00002317,-0.00013884,0.00029692,0.00038765,0.00027834,-
 0.00091960,-0.00024728,-0.00028090,0.00003338,-0.00003937,0.00000791,-
 0.00002311,0.00001432,-0.00009592,-0.00019302,-0.00103955,0.00073746,0
 .00065479,0.00093633,-0.00045987,0.00000786,0.00039601,-0.00028690,0.0
 0011682,-0.00008128,0.00035774,-0.00002862,0.00000854,-0.00001814,0.00
 003892,0.00001527,-0.00000744,0.00004349,0.00002907,-0.00002997,-0.000
 05859,-0.00004097,-0.00005215,0.00124716,0.00008695,0.00002129,-0.0000
 1891,-0.00002010,-0.00002516,0.00001706,0.00001551,-0.00000168,-0.0000
 1790,-0.00002066,0.00008635,-0.00047463,-0.00008120,0.00022505,0.00044
 210,0.00036501,-0.00055295,0.00048270,-0.00033304,-0.00015121,0.001174
 60,0.00181425,-0.00039976,-0.01958370,0.00180779,0.00837596,0.19128187
 ,0.00646827,-0.11148304,0.00119946,-0.00114574,0.00037497,-0.00006777,
 0.00110292,-0.00031659,-0.00534449,0.00772100,0.00195027,0.00121799,-0
 .00339032,0.00043315,0.00198189,-0.00587116,-0.00436643,0.00011159,-0.
 00012936,0.00031486,0.00011447,-0.00015917,-0.00003647,-0.00016711,0.0
 0009600,-0.00009595,-0.00199803,0.00269871,-0.00039456,-0.00164269,0.0
 0031632,-0.00025574,-0.16820360,-0.01142240,0.10657938,-0.00018386,0.0
 0012623,0.00009585,0.00004882,-0.00003472,0.00004426,-0.00003107,0.000
 04077,0.00008444,-0.00009503,-0.00007683,-0.00010027,0.00008239,0.0000
 7631,0.00007583,0.00004098,0.00005641,0.00003030,-0.00008224,-0.000048
 83,0.00003186,0.00067316,-0.00030808,-0.00023660,-0.00063665,0.0003798
 6,-0.00003204,-0.00088777,0.00027852,0.00023930,0.00001548,-0.00005016
 ,-0.00004876,0.00000808,-0.00000450,-0.00000584,-0.00002901,0.00001536
 ,0.00000508,-0.00000411,0.00000178,-0.00001560,-0.00000402,0.00001506,
 0.00003584,-0.00007942,-0.00001560,-0.00003540,0.00000764,0.00000291,-
 0.00000833,-0.00002455,-0.00001413,0.00001074,0.00009081,0.00009022,-0
 .00005859,0.00020961,-0.00032823,-0.00006493,0.00035047,0.00015425,0.0
 0042552,0.00097523,-0.00035171,-0.00078470,0.00507166,0.00074022,-0.00
 646258,0.00119036,-0.00040230,-0.00011905,0.00010984,0.00039491,-0.000
 40245,-0.23316974,-0.01958301,0.12003786,-0.00971044,-0.01097761,0.000
 83394,-0.00165707,-0.00025234,-0.00157700,0.00065756,0.00048738,0.0003
 5147,0.00096455,-0.00030305,0.00036988,-0.00079724,0.00037251,-0.00080
 931,0.00009995,-0.00024824,0.00033521,0.00017586,-0.00004543,0.0000530
 4,-0.00009363,0.00024877,0.00016932,0.00014712,0.00018573,-0.00005351,
 -0.00012881,-0.00018077,-0.00020414,0.24796502,0.00007249,0.00001746,0
 .00000511,-0.00005456,-0.00005533,0.00003230,-0.00004471,0.00015432,0.
 00001015,-0.00008546,-0.00008863,-0.00006469,0.00017891,0.00007095,-0.
 00000178,0.00002364,-0.00001638,-0.00000247,-0.00003548,0.00001780,0.0
 0002355,-0.00008567,-0.00148717,0.00032675,0.00058275,0.00054465,-0.00
 018188,-0.00169824,0.00105737,0.00037326,-0.00003192,0.00000845,-0.000
 02353,0.00000243,0.00000053,0.00000264,-0.00000934,0.00001650,-0.00000
 662,-0.00000891,-0.00000930,0.00000012,0.00001506,0.00000489,0.0000165
 1,-0.00023180,0.00001217,0.00007392,0.00000840,0.00000683,0.00000354,-
 0.00000604,0.00000151,0.00000473,0.00004739,0.00001136,-0.00004097,-0.
 00001715,0.00007702,-0.00002312,0.00057341,0.00027110,0.00063148,-0.00
 102490,-0.00034059,0.00055874,0.00201805,0.00104840,-0.00093867,0.0008
 8077,0.00056639,-0.00162354,-0.00019896,-0.00006288,0.00051461,-0.0134
 8480,-0.05051990,0.01408611,-0.03863800,-0.01587728,0.01198093,-0.0003
 6896,-0.00024987,-0.00053500,0.00043066,0.00051205,-0.00013168,0.00016
 188,0.00005737,-0.00031371,-0.00087629,0.00027940,-0.00067555,0.000197
 92,0.00001756,0.00020007,0.00012733,-0.00001098,-0.00008982,-0.0003534
 9,-0.00002242,-0.00019465,-0.00005160,-0.00006711,0.00004350,0.0001789
 7,0.00024955,0.00003252,0.03497106,0.06447335,-0.00002038,0.00002484,0
 .00011325,-0.00001339,-0.00000202,0.00000893,-0.00001621,0.00001939,0.
 00004191,-0.00013960,-0.00015541,-0.00012139,0.00047320,0.00007535,0.0
 0002229,-0.00001497,-0.00000516,-0.00000429,0.00000686,0.00002026,0.00
 004413,0.00016453,-0.00000091,-0.00023529,-0.00031454,0.00009288,0.000
 10845,-0.00033738,0.00012806,0.00022581,-0.00007074,0.00004038,-0.0001
 0368,0.00001109,-0.00000428,0.00001015,-0.00000997,0.00000661,-0.00000
 297,-0.00004480,-0.00002168,0.00002061,0.00003584,0.00001651,0.0000238
 4,-0.00061052,0.00006945,0.00017303,0.00000967,0.00000945,0.00001154,-
 0.00000545,-0.00000578,0.00000066,0.00000950,-0.00000433,-0.00005215,0
 .00004818,-0.00011062,-0.00008535,-0.00072303,0.00023610,0.00048843,0.
 00214782,-0.00054677,0.00131557,0.02577815,0.00035010,-0.02537275,0.00
 190112,0.00129044,0.00051057,-0.00035510,-0.00059031,0.00027948,0.1220
 0072,0.01979899,-0.12793181,-0.00995201,-0.00304786,0.00805415,-0.0071
 2824,-0.00051528,-0.00403361,0.00180044,0.00184838,0.00006106,0.002335
 38,-0.00123165,0.00035490,0.00012162,0.00005936,-0.00050926,-0.0011474
 9,0.00063449,0.00001833,-0.00028329,-0.00023409,0.00046321,-0.00110986
 ,-0.00070105,0.00004641,-0.00038061,0.00030171,0.00038331,0.00018131,0
 .00038998,-0.00020512,-0.12579298,-0.01402712,0.13886297,0.00025245,-0
 .00014832,-0.00015039,-0.00010343,0.00000578,-0.00002373,0.00000570,0.
 00014541,-0.00010050,0.00012033,0.00008052,0.00010545,-0.00009717,-0.0
 0007314,-0.00009308,0.00001182,-0.00011410,-0.00004058,0.00003216,0.00
 009882,-0.00004001,-0.00032338,-0.00144964,0.00053737,-0.00007964,0.00
 054756,-0.00033243,0.00027964,0.00071068,-0.00029435,0.00000025,0.0000
 5950,0.00008152,-0.00001179,0.00000352,0.00000604,0.00003153,-0.000006
 03,-0.00000970,-0.00000187,-0.00000251,0.00000210,-0.00000411,-0.00000
 891,-0.00004480,0.00012656,0.00002214,0.00003468,-0.00000489,0.0000010
 8,0.00000622,0.00002392,0.00002770,-0.00000672,-0.00003571,-0.00010749
 ,0.00004349,-0.00042466,0.00062154,0.00014360,0.00040840,0.00040660,0.
 00063687,-0.00013302,-0.00089997,-0.00139544,-0.00269576,0.00321780,0.
 00024704,-0.00122915,0.00142799,-0.00106658,0.00120445,0.00026613,0.00
 179236,-0.18884866,0.12821780,-0.05525026,0.01351459,-0.01718095,0.004
 39997,0.00022073,0.00016977,0.00069094,-0.00001306,-0.00009970,0.00003
 705,0.00014287,-0.00067579,0.00020359,-0.00062635,-0.00008243,-0.00091
 736,0.00047787,-0.00020614,0.00005067,0.00012695,0.00039640,-0.0002504
 4,0.00017943,-0.00002163,-0.00009480,0.00022221,-0.00020390,0.00020773
 ,0.00043028,-0.00023984,-0.00053732,-0.01389458,0.01519397,-0.00858800
 ,0.18830137,0.00020653,-0.00013707,-0.00013941,-0.00006613,-0.00000294
 ,0.00000666,-0.00001021,0.00011642,-0.00006485,0.00005080,0.00003557,0
 .00006622,-0.00003975,-0.00003599,-0.00005923,0.00002101,-0.00009364,-
 0.00000147,-0.00000090,0.00009920,-0.00004047,-0.00083051,-0.00103829,
 0.00073168,0.00118658,-0.00036410,-0.00029273,-0.00058965,0.00083708,-
 0.00016419,0.00001051,0.00004360,0.00004442,-0.00001304,0.00000156,0.0
 0000076,0.00001515,-0.00000703,-0.00000927,-0.00000251,-0.00000946,0.0
 0000302,0.00000178,-0.00000930,-0.00002168,0.00003576,0.00002444,0.000
 04113,-0.00000547,0.00000097,-0.00000252,0.00001021,0.00001829,-0.0000
 0396,0.00000860,-0.00009998,0.00002907,-0.00003758,0.00054698,0.000084
 72,0.00057080,0.00040642,0.00139577,-0.00068089,-0.00084932,-0.0014659
 8,-0.00233576,0.00532134,0.00011891,-0.00045767,0.00057490,0.00056008,
 -0.00038559,-0.00176954,-0.00067596,0.11928620,-0.16406805,0.05232691,
 0.01350025,-0.03586029,0.00677412,0.00033912,0.00006990,0.00026303,-0.
 00007966,0.00038616,-0.00013615,-0.00028084,0.00004853,-0.00018580,-0.
 00124167,0.00046100,-0.00231979,0.00015946,-0.00006897,-0.00002457,-0.
 00010791,0.00044689,-0.00037468,0.00005307,-0.00013977,0.00000725,0.00
 020195,0.00000729,0.00005940,0.00000543,-0.00031716,-0.00067603,-0.003
 21367,0.00521634,-0.00170741,-0.12959290,0.19023929,-0.00013104,0.0000
 4336,-0.00000352,0.00005669,0.00000142,0.00003699,0.00003906,0.0000376
 2,0.00011170,-0.00001280,0.00006069,-0.00001402,-0.00015957,-0.0000269
 7,0.00006314,0.00003893,0.00004778,0.00001800,-0.00005187,-0.00005131,
 0.00001136,0.00067092,0.00009785,-0.00005013,-0.00061838,0.00012854,-0
 .00036897,-0.00045392,-0.00013886,-0.00021093,0.00006084,-0.00003956,0
 .00000877,-0.00000223,-0.00000481,-0.00001038,-0.00001677,0.00000348,0
 .00000244,0.00000210,0.00000302,-0.00001868,-0.00001560,0.00000012,0.0
 0002061,0.00020028,-0.00001194,-0.00012712,-0.00000113,-0.00000634,-0.
 00001107,-0.00001113,-0.00000654,0.00000442,0.00004870,0.00007201,-0.0
 0002998,0.00018346,-0.00017000,0.00002090,0.00125106,0.00023738,0.0011
 9715,-0.00123660,-0.00361636,-0.00625501,-0.02113227,0.01950741,-0.011
 01230,-0.00043957,0.00202215,-0.00032761,0.00153045,-0.00050119,0.0010
 3942,-0.05277834,0.05350085,-0.07503352,0.00489862,-0.00858290,0.00494
 129,-0.00303302,0.00342372,0.00022221,0.00045926,-0.00065641,-0.000181
 91,0.00082716,-0.00116220,0.00058664,-0.00047929,0.00011352,-0.0011324
 1,-0.00004010,-0.00006799,0.00010248,-0.00130147,0.00149393,-0.0005082
 0,-0.00000313,-0.00013699,-0.00006970,0.00001707,-0.00020392,0.0001131
 6,-0.00022905,-0.00084824,-0.00070889,0.01219912,-0.01178587,0.0071519
 5,0.05937245,-0.05355688,0.07932638,0.00109029,-0.00150451,-0.00098887
 ,0.00033841,0.00108625,-0.00105089,0.00139332,-0.00280726,-0.00066331,
 0.00194845,0.00139385,0.00178039,-0.00204246,-0.00137833,-0.00102992,-
 0.00071205,-0.00110608,-0.00008344,0.00106520,0.00119738,-0.00088029,-
 0.00800075,0.02696330,-0.00275720,-0.00018652,-0.01215343,0.00351717,0
 .00797713,-0.01471412,-0.00368012,0.00013990,0.00050000,0.00069998,-0.
 00010325,0.00002818,0.00004722,0.00046773,-0.00042628,0.00003754,0.000
 12658,0.00003576,0.00020031,-0.00007942,-0.00023181,-0.00061053,0.0023
 6176,0.00016395,0.00016218,-0.00016445,-0.00003814,0.00001302,0.000303
 97,0.00023634,-0.00018201,-0.00094015,-0.00201145,0.00124722,-0.002059
 92,0.00231919,0.00105496,0.00125027,-0.00003206,0.00449919,-0.00120651
 ,-0.00068471,-0.00042018,0.00026164,0.00277114,0.00154696,-0.00007443,
 -0.00110302,0.00078723,-0.00037767,0.00145275,0.00035788,-0.01173714,-
 0.01271176,-0.00219955,-0.41610432,-0.01361937,0.02784507,0.00628871,-
 0.00219361,-0.00258989,-0.00299823,0.00040193,0.00043093,-0.00439935,0
 .00170410,0.00057244,-0.00394817,0.00367759,-0.00589350,-0.00016689,0.
 00011693,-0.00019010,0.00027375,0.00003071,0.00031275,-0.00013989,-0.0
 0004188,-0.00002749,0.00027345,0.00056123,0.00025501,0.00063141,-0.000
 40949,-0.00029826,0.00263668,0.00159307,-0.00061369,0.00245912,0.00402
 082,0.00077529,0.42194115,-0.00052439,0.00009452,0.00024721,0.00019768
 ,0.00018514,0.00000156,0.00011636,-0.00012108,0.00052389,-0.00010885,0
 .00008478,-0.00004629,-0.00012691,-0.00010453,0.00011556,0.00004208,0.
 00043282,-0.00002748,-0.00001391,-0.00059122,0.00012760,0.00588231,0.0
 0054748,-0.00275966,-0.00127861,-0.00006239,0.00031655,-0.00508858,-0.
 00884456,0.00164269,0.00004154,-0.00004450,-0.00008648,0.00001538,-0.0
 0000245,-0.00001595,-0.00003594,-0.00002073,0.00002519,0.00002214,0.00
 002444,-0.00001194,-0.00001560,0.00001217,0.00006943,0.00016399,-0.000
 01916,-0.00015438,-0.00000523,-0.00002261,-0.00001084,-0.00000363,-0.0
 0007605,-0.00000349,-0.00036554,0.00067411,0.00008695,0.00041374,-0.00
 080151,-0.00018894,-0.00031923,-0.00076376,0.00224167,0.00000541,-0.00
 001104,-0.00013519,-0.00064029,-0.00152098,0.00002120,-0.00018139,-0.0
 0002547,-0.00056189,0.00038351,0.00018553,0.00025058,-0.04461425,-0.00
 670356,0.00248102,0.02830228,-0.05244471,-0.00564973,-0.00053629,0.000
 92045,-0.00176580,-0.00016262,-0.00087017,0.00009362,0.00037327,-0.000
 31709,0.00051007,0.00261858,0.00203373,-0.00283059,-0.00008128,-0.0001
 1605,0.00000692,0.00001049,-0.00010587,0.00006983,0.00016454,0.0001154
 5,0.00000279,0.00005709,-0.00013953,-0.00002806,-0.00012413,-0.0001789
 9,-0.00014719,-0.00207700,-0.00567461,-0.00155420,-0.00049762,0.000319
 20,0.00071708,0.01776507,0.07341044,-0.00023280,0.00023610,-0.00006248
 ,0.00012604,-0.00016376,0.00018001,0.00047595,0.00070419,0.00127911,-0
 .00050121,-0.00025168,-0.00002287,-0.00006482,0.00027808,0.00005278,0.
 00035810,0.00026578,0.00024627,-0.00042892,-0.00018288,-0.00011052,0.0
 0171435,-0.00710854,0.00227136,0.00009157,0.00287317,-0.00246579,-0.00
 370522,0.00308775,-0.00847142,0.00012722,-0.00018028,0.00007582,-0.000
 02720,0.00001769,-0.00005339,-0.00006671,0.00004743,-0.00000176,0.0000
 3468,0.00004113,-0.00012712,-0.00003540,0.00007393,0.00017303,0.000162
 19,-0.00015439,-0.00015835,-0.00002117,0.00000262,-0.00011717,-0.00007
 273,-0.00004307,0.00000890,0.00056916,0.00045541,0.00002126,0.00042158
 ,-0.00021289,-0.00013437,0.00120459,0.00064132,-0.00284756,-0.00013078
 ,-0.00048158,0.00034812,-0.00186127,-0.00180910,-0.00116196,0.00021166
 ,-0.00044068,-0.00079586,-0.00001784,0.00005651,-0.00027156,-0.0061780
 7,0.00125409,-0.00099904,0.03102232,-0.00525843,-0.01512875,-0.0019879
 2,-0.00348706,-0.00042831,0.00142600,0.00142843,-0.00007960,0.00024569
 ,0.00102951,0.00002412,-0.00346509,-0.00074648,0.00267499,0.00025277,0
 .00011033,-0.00000785,0.00000091,0.00011827,-0.00001658,0.00011085,0.0
 0014352,-0.00000413,-0.00011086,-0.00023955,-0.00011523,-0.00020281,-0
 .00016056,0.00023287,0.00163859,0.00192552,0.00029036,0.00066244,-0.00
 031548,0.00091679,-0.02040382,0.00612057,0.02582549,0.00035789,-0.0002
 0341,0.00030283,-0.00020655,0.00011688,-0.00002765,0.00000278,0.000011
 30,0.00006229,-0.00056860,-0.00010139,-0.00038579,0.00144624,-0.000133
 84,0.00009482,-0.00030974,-0.00000560,-0.00026223,0.00052748,0.0001741
 1,0.00039702,-0.00072737,0.00107066,-0.00070138,0.00004669,-0.00062890
 ,0.00065311,0.00027417,-0.00035218,0.00150148,-0.00037559,0.00031392,-
 0.00035962,0.00004393,-0.00002654,0.00007543,0.00002247,-0.00000045,-0
 .00003574,-0.00042466,-0.00003757,0.00018346,0.00020960,-0.00001714,0.
 00004818,-0.00205992,0.00041379,0.00042159,0.00005537,0.00000402,0.000
 13480,0.00005872,-0.00001825,-0.00001971,-0.00046255,-0.00033767,-0.00
 047461,-0.00030340,0.00017379,-0.00022586,0.00622249,-0.00256044,-0.01
 497865,-0.01513130,-0.01813315,0.00447705,0.00134888,-0.00222110,0.002
 22113,-0.00142447,-0.00005602,0.00020510,-0.00143308,0.00161346,0.0000
 1116,-0.00125164,-0.00146677,-0.00042706,-0.00338385,0.00288556,-0.002
 19177,0.02013697,0.01112436,-0.02143769,-0.17083045,0.13781194,0.05736
 307,0.00390316,-0.01506901,0.00855363,0.00804650,0.00000172,0.00725112
 ,0.00136782,0.00276859,-0.00114147,-0.00032992,0.00104037,0.00018063,-
 0.00052237,-0.00055542,0.00020335,0.00017122,0.00005683,-0.00007768,0.
 00144443,0.00096736,-0.00083288,-0.00001204,0.00004812,0.00064677,-0.0
 0004541,0.00028827,-0.00048416,0.00221262,0.00022581,-0.00134202,0.151
 90345,-0.00036191,-0.00004904,-0.00035459,0.00017790,0.00005595,-0.000
 03660,0.00004338,-0.00012341,-0.00005905,0.00057241,0.00031879,0.00067
 810,-0.00172641,-0.00032689,-0.00030027,-0.00000676,0.00062751,-0.0000
 8343,0.00019141,-0.00075901,0.00005909,0.00024649,0.00095394,0.0005427
 3,-0.00028401,-0.00050814,-0.00023300,0.00033131,-0.00115501,-0.000688
 33,0.00038864,-0.00025780,0.00043176,-0.00004705,0.00003382,-0.0000799
 2,-0.00000846,-0.00001873,0.00004087,0.00062154,0.00054696,-0.00016999
 ,-0.00032823,0.00007702,-0.00011062,0.00231909,-0.00080143,-0.00021290
 ,-0.00002396,-0.00010822,-0.00002279,0.00001697,-0.00005096,0.00002131
 ,-0.00025702,0.00058378,-0.00008119,0.00017378,-0.00005206,0.00022238,
 -0.01196568,-0.01338951,0.00579009,-0.00256494,0.01314759,0.00476973,-
 0.00216551,0.00118327,-0.00117235,0.00132625,-0.00124049,-0.00059415,0
 .00049155,-0.00013804,-0.00030666,0.00242526,0.00278267,0.00153900,0.0
 0085323,-0.00380680,0.00150009,0.01593441,-0.05191638,0.00477957,0.120
 69659,-0.18627101,-0.03710304,-0.00331569,0.00709945,0.00149775,-0.001
 16956,0.00081054,-0.00643298,-0.00156294,-0.00399487,0.00032977,-0.000
 86885,-0.00088103,-0.00065631,0.00066249,0.00069496,-0.00018520,-0.000
 09844,0.00000574,0.00005420,-0.00054723,-0.00075288,0.00053865,-0.0001
 2207,-0.00021087,-0.00094679,-0.00000971,-0.00035045,0.00006336,-0.000
 85227,0.00054237,0.00032505,-0.11918598,0.23769865,0.00005232,-0.00008
 488,-0.00027106,0.00004084,0.00003425,-0.00005507,0.00004101,-0.000084
 27,-0.00018502,0.00037837,0.00014071,0.00037719,-0.00069585,-0.0001132
 5,-0.00026195,0.00002991,-0.00001152,0.00003545,0.00002826,-0.00003916
 ,-0.00022219,-0.00084678,0.00169384,0.00038188,0.00015649,-0.00085779,
 -0.00000487,0.00167330,-0.00111246,-0.00024148,0.00014394,-0.00006567,
 0.00025508,-0.00003305,0.00001668,-0.00002768,0.00004216,-0.00002835,0
 .00000726,0.00014361,0.00008472,0.00002089,-0.00006494,-0.00002312,-0.
 00008535,0.00105498,-0.00018896,-0.00013436,-0.00003812,-0.00001981,-0
 .00004522,0.00003616,0.00001118,-0.00000658,-0.00024496,-0.00002667,0.
 00022506,-0.00022586,0.00022238,0.00021039,-0.01587041,0.00034680,-0.0
 0674716,0.00740891,0.00931396,0.00223022,-0.00105717,-0.00074102,-0.00
 342149,0.00014641,0.00067962,0.00057982,0.00065539,-0.00099024,-0.0002
 9055,0.00220044,0.00312956,-0.00039658,0.00004555,-0.00268028,0.002754
 66,-0.02186688,0.00755745,0.00903114,0.06139254,-0.04778691,-0.0544535
 9,0.00359722,0.01115691,0.00127174,0.00607823,-0.00278944,-0.00789326,
 -0.00099895,-0.00174764,0.00029641,-0.00134623,-0.00097707,-0.00058581
 ,0.00010651,-0.00001255,-0.00013073,-0.00016247,-0.00019767,-0.0001550
 5,-0.00055874,-0.00030207,0.00071420,-0.00025536,-0.00018541,-0.000427
 65,-0.00002507,-0.00027465,0.00017854,-0.00157967,0.00030611,-0.001039
 61,-0.03958204,0.02664668,0.05851239\\0.00000011,-0.00000007,-0.000002
 41,0.00000026,0.00000033,-0.00000048,-0.00000030,0.,-0.00000009,0.0000
 0015,0.00000119,0.00000057,0.00000035,0.00000201,-0.00000111,-0.000000
 66,0.00000161,0.00000160,-0.00000005,0.00000039,0.00000223,-0.00000006
 ,-0.00000155,0.00000017,-0.00000017,-0.00000018,-0.00000039,-0.0000009
 5,-0.00000071,0.00000134,0.00000087,0.00000092,-0.00000098,0.00000006,
 -0.00000078,-0.00000046,-0.00000004,0.00000089,-0.00000044,0.00000018,
 0.00000171,0.00000055,-0.00000006,0.00000207,0.00000044,0.00000044,0.0
 0000165,-0.00000106,-0.00000020,-0.00000067,0.00000163,-0.00000041,0.0
 0000123,0.00000150,-0.00000016,0.00000033,0.00000256,0.00000054,-0.000
 00097,-0.00000163,-0.00000022,-0.00000032,0.00000174,-0.00000040,0.000
 00010,0.00000079,0.00000037,-0.00000013,0.00000032,0.00000048,-0.00000
 130,-0.00000163,0.00000021,-0.00000034,-0.00000226,-0.00000046,-0.0000
 0120,-0.00000050,-0.00000009,-0.00000197,0.00000088,0.00000066,0.00000
 162,-0.00000054,-0.00000015,0.00000011,0.00000057,0.00000036,-0.000000
 07,-0.00000106,-0.00000082,-0.00000113,0.00000131,0.,-0.00000089,0.000
 00039,0.00000003,0.00000078,0.00000044,0.00000035,-0.00000124,-0.00000
 156,0.00000029,0.00000061,-0.00000160,0.00000014,-0.00000031,-0.000002
 50,0.00000016,-0.00000234,-0.00000038,0.00000009,-0.00000163,-0.000000
 68,-0.00000054,-0.00000125,0.00000129,-0.00000033,0.00000151,0.0000014
 4\\\@


 WORK FAITHFULLY FOR EIGHT HOURS A DAY AND DON'T WORRY.
 IN TIME YOU MAY BECOME BOSS AND WORK TWELVE HOURS A DAY
 AND HAVE ALL THE WORRY.
 Job cpu time:       0 days  1 hours 16 minutes  3.9 seconds.
 Elapsed time:       0 days  0 hours 19 minutes  5.8 seconds.
 File lengths (MBytes):  RWF=    516 Int=      0 D2E=      0 Chk=     10 Scr=      1
 Normal termination of Gaussian 16 at Tue Aug  9 19:01:13 2022.
real 10534.86
user 41866.69
sys 27.27
