 Entering Gaussian System, Link 0=g16
 Input=gaussian_test.inp
 Output=gaussian_test.log
 Initial command:
 /sw/restricted/lms/sw/Gaussian/g16_B01/g16/l1.exe "/scratch/user/peterchao1/peterchao1/10002172_1712083112000000814660762/Gau-14201.inp" -scrdir="/scratch/user/peterchao1/peterchao1/10002172_1712083112000000814660762/"
 Entering Link 1 = /sw/restricted/lms/sw/Gaussian/g16_B01/g16/l1.exe PID=     14202.
  
 Copyright (c) 1988-2017, Gaussian, Inc.  All Rights Reserved.
  
 This is part of the Gaussian(R) 16 program.  It is based on
 the Gaussian(R) 09 system (copyright 2009, Gaussian, Inc.),
 the Gaussian(R) 03 system (copyright 2003, Gaussian, Inc.),
 the Gaussian(R) 98 system (copyright 1998, Gaussian, Inc.),
 the Gaussian(R) 94 system (copyright 1995, Gaussian, Inc.),
 the Gaussian 92(TM) system (copyright 1992, Gaussian, Inc.),
 the Gaussian 90(TM) system (copyright 1990, Gaussian, Inc.),
 the Gaussian 88(TM) system (copyright 1988, Gaussian, Inc.),
 the Gaussian 86(TM) system (copyright 1986, Carnegie Mellon
 University), and the Gaussian 82(TM) system (copyright 1983,
 Carnegie Mellon University). Gaussian is a federally registered
 trademark of Gaussian, Inc.
  
 This software contains proprietary and confidential information,
 including trade secrets, belonging to Gaussian, Inc.
  
 This software is provided under written license and may be
 used, copied, transmitted, or stored only in accord with that
 written license.
  
 The following legend is applicable only to US Government
 contracts under FAR:
  
                    RESTRICTED RIGHTS LEGEND
  
 Use, reproduction and disclosure by the US Government is
 subject to restrictions as set forth in subparagraphs (a)
 and (c) of the Commercial Computer Software - Restricted
 Rights clause in FAR 52.227-19.
  
 Gaussian, Inc.
 340 Quinnipiac St., Bldg. 40, Wallingford CT 06492
  
  
 ---------------------------------------------------------------
 Warning -- This program may not be used in any manner that
 competes with the business of Gaussian, Inc. or will provide
 assistance to any competitor of Gaussian, Inc.  The licensee
 of this program is prohibited from giving any competitor of
 Gaussian, Inc. access to this program.  By using this program,
 the user acknowledges that Gaussian, Inc. is engaged in the
 business of creating and licensing software in the field of
 computational chemistry and represents and warrants to the
 licensee that it is not a competitor of Gaussian, Inc. and that
 it will not use this program in any manner prohibited above.
 ---------------------------------------------------------------
  

 Cite this work as:
 Gaussian 16, Revision B.01,
 M. J. Frisch, G. W. Trucks, H. B. Schlegel, G. E. Scuseria, 
 M. A. Robb, J. R. Cheeseman, G. Scalmani, V. Barone, 
 G. A. Petersson, H. Nakatsuji, X. Li, M. Caricato, A. V. Marenich, 
 J. Bloino, B. G. Janesko, R. Gomperts, B. Mennucci, H. P. Hratchian, 
 J. V. Ortiz, A. F. Izmaylov, J. L. Sonnenberg, D. Williams-Young, 
 F. Ding, F. Lipparini, F. Egidi, J. Goings, B. Peng, A. Petrone, 
 T. Henderson, D. Ranasinghe, V. G. Zakrzewski, J. Gao, N. Rega, 
 G. Zheng, W. Liang, M. Hada, M. Ehara, K. Toyota, R. Fukuda, 
 J. Hasegawa, M. Ishida, T. Nakajima, Y. Honda, O. Kitao, H. Nakai, 
 T. Vreven, K. Throssell, J. A. Montgomery, Jr., J. E. Peralta, 
 F. Ogliaro, M. J. Bearpark, J. J. Heyd, E. N. Brothers, K. N. Kudin, 
 V. N. Staroverov, T. A. Keith, R. Kobayashi, J. Normand, 
 K. Raghavachari, A. P. Rendell, J. C. Burant, S. S. Iyengar, 
 J. Tomasi, M. Cossi, J. M. Millam, M. Klene, C. Adamo, R. Cammi, 
 J. W. Ochterski, R. L. Martin, K. Morokuma, O. Farkas, 
 J. B. Foresman, and D. J. Fox, Gaussian, Inc., Wallingford CT, 2016.
 
 ******************************************
 Gaussian 16:  ES64L-G16RevB.01 20-Dec-2017
                 2-Apr-2024 
 ******************************************
 %chk=monomer.chk
 %nprocshared=4
 Will use up to    4 processors via shared memory.
 %mem=8000mb
 --------------------------------------------------------------
 #T wB97XD//def2svpp Volume=tight Geom=AllCheckpoint Guess=Read
 --------------------------------------------------------------
 Structure from the checkpoint file:  "monomer.chk"
 -------
 Monomer
 -------
 Charge =  0 Multiplicity = 1
 Redundant internal coordinates found in file.  (old form).
 C,0,-2.6072314991,-0.0152566006,0.7014656
 C,0,-1.7166142328,-0.0916858183,-0.5386347217
 C,0,-0.2001316035,-0.0278862644,-0.2987882289
 N,0,0.5362203671,-0.0055285633,-1.571541253
 C,0,0.2030680348,1.2762134525,0.4333404787
 O,0,1.5959422467,1.4403059336,0.3614345453
 C,0,0.2836869707,-1.2415568441,0.5193839282
 O,0,1.6790424955,-1.3491653463,0.5613479368
 H,0,-3.6700168986,-0.0503943098,0.408624083
 H,0,-2.4516412459,0.9225533693,1.2614488088
 H,0,-2.4289238151,-0.8560259911,1.3926212395
 H,0,-1.984388642,0.7418001024,-1.2165152149
 H,0,-1.9349788656,-1.0230012636,-1.0938916659
 H,0,-0.0595604152,0.2094555404,-2.3678914445
 H,0,1.0365469552,-0.8759939341,-1.7407124701
 H,0,-0.0758504676,1.246298806,1.4993855045
 H,0,-0.3242040195,2.1372226476,-0.0314559692
 H,0,1.7885135984,1.2340621117,-0.5792173661
 H,0,-0.0944219656,-2.1697801572,0.0526844478
 H,0,-0.1493452816,-1.1853893727,1.5393603624
 H,0,2.027533587,-0.4669730007,0.7858911338
 Recover connectivity data from disk.
                           ----------------------------
                           !    Current Parameters    !
                           ! (Angstroms and Degrees)  !
 --------------------------                            --------------------------
 ! Name  Definition              Value                                          !
 --------------------------------------------------------------------------------
 ! R1    R(1,2)                  1.5287                                         !
 ! R2    R(1,9)                  1.103                                          !
 ! R3    R(1,10)                 1.1033                                         !
 ! R4    R(1,11)                 1.1029                                         !
 ! R5    R(2,3)                  1.5367                                         !
 ! R6    R(2,12)                 1.1072                                         !
 ! R7    R(2,13)                 1.106                                          !
 ! R8    R(3,4)                  1.4706                                         !
 ! R9    R(3,5)                  1.549                                          !
 ! R10   R(3,7)                  1.5416                                         !
 ! R11   R(4,14)                 1.0175                                         !
 ! R12   R(4,15)                 1.0182                                         !
 ! R13   R(5,6)                  1.4043                                         !
 ! R14   R(5,16)                 1.1023                                         !
 ! R15   R(5,17)                 1.1115                                         !
 ! R16   R(6,18)                 0.9821                                         !
 ! R17   R(7,8)                  1.4001                                         !
 ! R18   R(7,19)                 1.1056                                         !
 ! R19   R(7,20)                 1.1095                                         !
 ! R20   R(8,21)                 0.9747                                         !
 ! A1    A(2,1,9)              110.1457                                         !
 ! A2    A(2,1,10)             111.8435                                         !
 ! A3    A(2,1,11)             112.0901                                         !
 ! A4    A(9,1,10)             107.321                                          !
 ! A5    A(9,1,11)             107.3306                                         !
 ! A6    A(10,1,11)            107.8853                                         !
 ! A7    A(1,2,3)              116.504                                          !
 ! A8    A(1,2,12)             108.5495                                         !
 ! A9    A(1,2,13)             109.5314                                         !
 ! A10   A(3,2,12)             107.6364                                         !
 ! A11   A(3,2,13)             107.9479                                         !
 ! A12   A(12,2,13)            106.1857                                         !
 ! A13   A(2,3,4)              111.0813                                         !
 ! A14   A(2,3,5)              111.4455                                         !
 ! A15   A(2,3,7)              111.0926                                         !
 ! A16   A(4,3,5)              105.4226                                         !
 ! A17   A(4,3,7)              108.31                                           !
 ! A18   A(5,3,7)              109.286                                          !
 ! A19   A(3,4,14)             112.7918                                         !
 ! A20   A(3,4,15)             112.1392                                         !
 ! A21   A(14,4,15)            109.7747                                         !
 ! A22   A(3,5,6)              109.4116                                         !
 ! A23   A(3,5,16)             111.6163                                         !
 ! A24   A(3,5,17)             109.3328                                         !
 ! A25   A(6,5,16)             107.6767                                         !
 ! A26   A(6,5,17)             111.0133                                         !
 ! A27   A(16,5,17)            107.7823                                         !
 ! A28   A(5,6,18)             102.6498                                         !
 ! A29   A(3,7,8)              112.9041                                         !
 ! A30   A(3,7,19)             109.245                                          !
 ! A31   A(3,7,20)             108.9994                                         !
 ! A32   A(8,7,19)             106.7952                                         !
 ! A33   A(8,7,20)             111.4259                                         !
 ! A34   A(19,7,20)            107.2823                                         !
 ! A35   A(7,8,21)             107.0764                                         !
 ! D1    D(9,1,2,3)            178.905                                          !
 ! D2    D(9,1,2,12)            57.2744                                         !
 ! D3    D(9,1,2,13)           -58.2574                                         !
 ! D4    D(10,1,2,3)            59.6492                                         !
 ! D5    D(10,1,2,12)          -61.9814                                         !
 ! D6    D(10,1,2,13)         -177.5132                                         !
 ! D7    D(11,1,2,3)           -61.6675                                         !
 ! D8    D(11,1,2,12)          176.7019                                         !
 ! D9    D(11,1,2,13)           61.1701                                         !
 ! D10   D(1,2,3,4)           -175.5881                                         !
 ! D11   D(1,2,3,5)            -58.3533                                         !
 ! D12   D(1,2,3,7)             63.7772                                         !
 ! D13   D(12,2,3,4)           -53.4777                                         !
 ! D14   D(12,2,3,5)            63.7571                                         !
 ! D15   D(12,2,3,7)          -174.1124                                         !
 ! D16   D(13,2,3,4)            60.7548                                         !
 ! D17   D(13,2,3,5)           177.9896                                         !
 ! D18   D(13,2,3,7)           -59.8799                                         !
 ! D19   D(2,3,4,14)            15.0889                                         !
 ! D20   D(2,3,4,15)          -109.4624                                         !
 ! D21   D(5,3,4,14)          -105.7633                                         !
 ! D22   D(5,3,4,15)           129.6854                                         !
 ! D23   D(7,3,4,14)           137.353                                          !
 ! D24   D(7,3,4,15)            12.8017                                         !
 ! D25   D(2,3,5,6)           -166.6553                                         !
 ! D26   D(2,3,5,16)            74.271                                          !
 ! D27   D(2,3,5,17)           -44.8829                                         !
 ! D28   D(4,3,5,6)            -46.0415                                         !
 ! D29   D(4,3,5,16)          -165.1152                                         !
 ! D30   D(4,3,5,17)            75.7309                                         !
 ! D31   D(7,3,5,6)             70.1774                                         !
 ! D32   D(7,3,5,16)           -48.8964                                         !
 ! D33   D(7,3,5,17)          -168.0503                                         !
 ! D34   D(2,3,7,8)            169.4582                                         !
 ! D35   D(2,3,7,19)            50.789                                          !
 ! D36   D(2,3,7,20)           -66.1474                                         !
 ! D37   D(4,3,7,8)             47.201                                          !
 ! D38   D(4,3,7,19)           -71.4683                                         !
 ! D39   D(4,3,7,20)           171.5954                                         !
 ! D40   D(5,3,7,8)            -67.1651                                         !
 ! D41   D(5,3,7,19)           174.1657                                         !
 ! D42   D(5,3,7,20)            57.2293                                         !
 ! D43   D(3,5,6,18)            44.9508                                         !
 ! D44   D(16,5,6,18)          166.434                                          !
 ! D45   D(17,5,6,18)          -75.8046                                         !
 ! D46   D(3,7,8,21)            47.7235                                         !
 ! D47   D(19,7,8,21)          167.8085                                         !
 ! D48   D(20,7,8,21)          -75.3325                                         !
 --------------------------------------------------------------------------------
                    Distance matrix (angstroms):
                    1          2          3          4          5
     1  C    0.000000
     2  C    1.528689   0.000000
     3  C    2.606683   1.536658   0.000000
     4  N    3.879168   2.479835   1.470583   0.000000
     5  C    3.104444   2.549718   1.548954   2.402791   0.000000
     6  O    4.461048   3.759010   2.411921   2.636256   1.404349
     7  C    3.145533   2.538269   1.541584   2.442029   2.520530
     8  O    4.491224   3.784402   2.452939   2.767782   3.014548
     9  H    1.102952   2.171356   3.541333   4.649247   4.094055
    10  H    1.103303   2.192999   2.899478   4.220721   2.803270
    11  H    1.102898   2.195757   2.917910   4.278047   3.520518
    12  H    2.154001   1.107214   2.149003   2.652925   2.791521
    13  H    2.165821   1.106048   2.152240   2.714816   3.491428
    14  H    3.995257   2.486502   2.087410   1.017520   3.008961
    15  H    4.470148   3.104839   2.080338   1.018163   3.170677
    16  H    2.938722   2.938679   2.207356   3.372283   1.102335
    17  H    3.222197   2.676578   2.185076   2.775532   1.111480
    18  H    4.745895   3.747689   2.371890   2.022259   1.881672
    19  H    3.372996   2.701785   2.173112   2.778453   3.479694
    20  H    2.848242   2.823222   2.172828   3.397025   2.721574
    21  H    4.657491   3.989217   2.516311   2.827443   2.547875
                    6          7          8          9         10
     6  O    0.000000
     7  C    2.989875   0.000000
     8  O    2.797860   1.400128   0.000000
     9  H    5.473092   4.130728   5.506593   0.000000
    10  H    4.178639   3.565958   4.765857   1.777182   0.000000
    11  H    4.747213   2.875662   4.220141   1.776965   1.783555
    12  H    3.974494   3.477243   4.577517   2.471840   2.528103
    13  H    4.544586   2.751891   3.988402   2.492764   3.098347
    14  H    3.421243   3.249556   3.745996   4.562012   4.404846
    15  H    3.177608   2.410077   2.436426   5.239562   4.941174
    16  H    2.031616   2.697980   3.270474   3.973563   2.409524
    17  H    2.080148   3.476939   4.064396   4.021667   2.770020
    18  H    0.982062   3.098406   2.825940   5.693963   4.632926
    19  H    3.998172   1.105610   2.019238   4.171734   4.071869
    20  H    3.365682   1.109515   2.079984   3.868062   3.133883
    21  H    2.001037   1.926657   0.974746   5.725203   4.713804
                   11         12         13         14         15
    11  H    0.000000
    12  H    3.091642   0.000000
    13  H    2.540592   1.769746   0.000000
    14  H    4.570622   2.305216   2.580546   0.000000
    15  H    4.672009   3.466712   3.044660   1.665234   0.000000
    16  H    3.157233   3.357552   3.915504   4.003891   4.029862
    17  H    3.926497   2.471393   3.702753   3.040601   3.721918
    18  H    5.103273   3.857883   4.384475   2.768493   2.523264
    19  H    2.995209   3.695963   2.453037   3.394284   2.483797
    20  H    2.307919   3.830965   3.185730   4.149731   3.501563
    21  H    4.514366   4.643951   4.420889   3.841857   2.744645
                   16         17         18         19         20
    16  H    0.000000
    17  H    1.788547   0.000000
    18  H    2.792238   2.362058   0.000000
    19  H    3.709836   4.313949   3.940925   0.000000
    20  H    2.433127   3.679374   3.754652   1.783885   0.000000
    21  H    2.805102   3.602855   2.194122   2.817772   2.413015
                   21
    21  H    0.000000
 Framework group  C1[X(C5H13NO2)]
 Deg. of freedom    57
                         Standard orientation:                         
 ---------------------------------------------------------------------
 Center     Atomic      Atomic             Coordinates (Angstroms)
 Number     Number       Type             X           Y           Z
 ---------------------------------------------------------------------
      1          6           0        2.583231   -0.036248   -0.622386
      2          6           0        1.665127    0.004288    0.599224
      3          6           0        0.153823    0.010686    0.321313
      4          7           0       -0.612628    0.156100    1.567918
      5          6           0       -0.255348    1.219053   -0.557144
      6          8           0       -1.652253    1.361510   -0.533512
      7          6           0       -0.288691   -1.294288   -0.369851
      8          8           0       -1.680511   -1.434284   -0.429812
      9          1           0        3.639273   -0.017666   -0.304686
     10          1           0        2.424078    0.831825   -1.284503
     11          1           0        2.436402   -0.950571   -1.221416
     12          1           0        1.901828    0.911758    1.187777
     13          1           0        1.887023   -0.856561    1.257284
     14          1           0       -0.039753    0.468419    2.348698
     15          1           0       -1.101094   -0.700877    1.820202
     16          1           0        0.049130    1.079238   -1.607328
     17          1           0        0.245268    2.136034   -0.177778
     18          1           0       -1.863224    1.254758    0.419662
     19          1           0        0.094912   -2.158420    0.203296
     20          1           0        0.167201   -1.340397   -1.380327
     21          1           0       -2.039394   -0.588997   -0.756647
 ---------------------------------------------------------------------
 Rotational constants (GHZ):           2.5669324           1.5383229           1.3674681
   138 basis functions,   252 primitive gaussians,   146 cartesian basis functions
    33 alpha electrons       33 beta electrons
       nuclear repulsion energy       436.4204119796 Hartrees.
 NAtoms=   21 NActive=   21 NUniq=   21 SFac= 1.00D+00 NAtFMM=   60 NAOKFM=F Big=F
 Nuclear repulsion after empirical dispersion term =      436.4053440237 Hartrees.
   1 Symmetry operations used in ECPInt.
 ECPInt:  NShTT=    2775 NPrTT=   11169 LenC2=    2760 LenP2D=    8915.
 LDataN:  DoStor=T MaxTD1= 4 Len=   56
 Initial guess from the checkpoint file:  "monomer.chk"
 B after Tr=     0.000000    0.000000    0.000000
         Rot=    1.000000    0.000000   -0.000000   -0.000000 Ang=   0.00 deg.
 SCF Done:  E(RwB97XD) =  -403.093135319     A.U. after    1 cycles
            NFock=  1  Conv=0.48D-08     -V/T= 2.0091

 **********************************************************************

            Population analysis using the SCF Density.

 **********************************************************************

 Orbital symmetries:
       Occupied  (A) (A) (A) (A) (A) (A) (A) (A) (A) (A) (A) (A)
                 (A) (A) (A) (A) (A) (A) (A) (A) (A) (A) (A) (A)
                 (A) (A) (A) (A) (A) (A) (A) (A) (A)
       Virtual   (A) (A) (A) (A) (A) (A) (A) (A) (A) (A) (A) (A)
                 (A) (A) (A) (A) (A) (A) (A) (A) (A) (A) (A) (A)
                 (A) (A) (A) (A) (A) (A) (A) (A) (A) (A) (A) (A)
                 (A) (A) (A) (A) (A) (A) (A) (A) (A) (A) (A) (A)
                 (A) (A) (A) (A) (A) (A) (A) (A) (A) (A) (A) (A)
                 (A) (A) (A) (A) (A) (A) (A) (A) (A) (A) (A) (A)
                 (A) (A) (A) (A) (A) (A) (A) (A) (A) (A) (A) (A)
                 (A) (A) (A) (A) (A) (A) (A) (A) (A) (A) (A) (A)
                 (A) (A) (A) (A) (A) (A) (A) (A) (A)
 The electronic state is 1-A.
 Alpha  occ. eigenvalues --  -19.24608 -19.23662 -14.43207 -10.33600 -10.33552
 Alpha  occ. eigenvalues --  -10.33364 -10.30492 -10.29493  -1.12221  -1.09773
 Alpha  occ. eigenvalues --   -0.98943  -0.88099  -0.81084  -0.76031  -0.72841
 Alpha  occ. eigenvalues --   -0.66849  -0.61583  -0.59738  -0.57345  -0.55628
 Alpha  occ. eigenvalues --   -0.54005  -0.52051  -0.50441  -0.49155  -0.48244
 Alpha  occ. eigenvalues --   -0.46182  -0.45868  -0.44507  -0.41355  -0.40039
 Alpha  occ. eigenvalues --   -0.35422  -0.35059  -0.32730
 Alpha virt. eigenvalues --    0.12484   0.13902   0.16077   0.16634   0.18728
 Alpha virt. eigenvalues --    0.19477   0.20110   0.20991   0.21812   0.22612
 Alpha virt. eigenvalues --    0.24004   0.24663   0.26164   0.28982   0.30079
 Alpha virt. eigenvalues --    0.31278   0.32724   0.33858   0.34652   0.37813
 Alpha virt. eigenvalues --    0.52221   0.53829   0.54576   0.55318   0.56930
 Alpha virt. eigenvalues --    0.60156   0.61724   0.63946   0.67004   0.68054
 Alpha virt. eigenvalues --    0.70649   0.71117   0.72725   0.73275   0.75036
 Alpha virt. eigenvalues --    0.75955   0.76502   0.77084   0.77875   0.78989
 Alpha virt. eigenvalues --    0.79658   0.80919   0.82123   0.82474   0.83258
 Alpha virt. eigenvalues --    0.84242   0.86183   0.87770   0.89753   0.95366
 Alpha virt. eigenvalues --    1.02546   1.06403   1.08372   1.09773   1.13018
 Alpha virt. eigenvalues --    1.17558   1.19364   1.21748   1.24086   1.29574
 Alpha virt. eigenvalues --    1.33860   1.37236   1.42265   1.50662   1.58610
 Alpha virt. eigenvalues --    1.62779   1.70203   1.75208   1.82113   1.83503
 Alpha virt. eigenvalues --    1.85163   1.89826   1.96541   1.98523   2.00513
 Alpha virt. eigenvalues --    2.04388   2.08007   2.10478   2.11212   2.18379
 Alpha virt. eigenvalues --    2.20326   2.21945   2.28917   2.31488   2.34822
 Alpha virt. eigenvalues --    2.36502   2.43242   2.47125   2.53846   2.62672
 Alpha virt. eigenvalues --    2.65446   2.68885   2.74867   2.78536   2.79545
 Alpha virt. eigenvalues --    2.85801   2.95236   2.96695   3.04579   3.07253
 Alpha virt. eigenvalues --    3.09001   3.12963   3.15921   3.48742   3.50677
          Condensed to atoms (all electrons):
 Mulliken charges:
               1
     1  C   -0.342252
     2  C   -0.176196
     3  C   -0.241309
     4  N   -0.504010
     5  C    0.093336
     6  O   -0.506305
     7  C    0.084870
     8  O   -0.505232
     9  H    0.128115
    10  H    0.129749
    11  H    0.130799
    12  H    0.103363
    13  H    0.104630
    14  H    0.230400
    15  H    0.243797
    16  H    0.107396
    17  H    0.086492
    18  H    0.323494
    19  H    0.094038
    20  H    0.095040
    21  H    0.319785
 Sum of Mulliken charges =  -0.00000
 Mulliken charges with hydrogens summed into heavy atoms:
               1
     1  C    0.046411
     2  C    0.031796
     3  C   -0.241309
     4  N   -0.029812
     5  C    0.287224
     6  O   -0.182811
     7  C    0.273949
     8  O   -0.185447
 Electronic spatial extent (au):  <R**2>=           1056.8063
 Charge=             -0.0000 electrons
 Dipole moment (field-independent basis, Debye):
    X=              2.8590    Y=              0.2291    Z=              1.6859  Tot=              3.3269
 Evaluate density.
 Using the total density.
 Monte-Carlo method of calculating molar volume:
 based on  0.001 e/bohr**3 density envelope.
 Number of points per bohr**3 =  100 CutOff= 1.00D-04
 Using the SCF density.
 There are      1776 points.  Will hold      1776 in memory.
 LenV=  1048289278 MDV=  1048576000.
 Box volume = 5604.321 fraction occupied=0.195
 Integrated density= 5.8693155478853186D+01 error=-7.3068445211468145D+00
 Molar volume = 1094.988 bohr**3/mol ( 97.716 cm**3/mol)
 Recommended a0 for SCRF calculation =  4.22 angstrom (  7.98 bohr)
 1\1\GINC-C420\SP\RwB97XD\def2SVPP\C5H13N1O2\PETERCHAO1\02-Apr-2024\0\\
 #T wB97XD//def2svpp Volume=tight Geom=AllCheckpoint Guess=Read\\Monome
 r\\0,1\C,0,-2.6072314991,-0.0152566006,0.7014656\C,0,-1.7166142328,-0.
 0916858183,-0.5386347217\C,0,-0.2001316035,-0.0278862644,-0.2987882289
 \N,0,0.5362203671,-0.0055285633,-1.571541253\C,0,0.2030680348,1.276213
 4525,0.4333404787\O,0,1.5959422467,1.4403059336,0.3614345453\C,0,0.283
 6869707,-1.2415568441,0.5193839282\O,0,1.6790424955,-1.3491653463,0.56
 13479368\H,0,-3.6700168986,-0.0503943098,0.408624083\H,0,-2.4516412459
 ,0.9225533693,1.2614488088\H,0,-2.4289238151,-0.8560259911,1.392621239
 5\H,0,-1.984388642,0.7418001024,-1.2165152149\H,0,-1.9349788656,-1.023
 0012636,-1.0938916659\H,0,-0.0595604152,0.2094555404,-2.3678914445\H,0
 ,1.0365469552,-0.8759939341,-1.7407124701\H,0,-0.0758504676,1.24629880
 6,1.4993855045\H,0,-0.3242040195,2.1372226476,-0.0314559692\H,0,1.7885
 135984,1.2340621117,-0.5792173661\H,0,-0.0944219656,-2.1697801572,0.05
 26844478\H,0,-0.1493452816,-1.1853893727,1.5393603624\H,0,2.027533587,
 -0.4669730007,0.7858911338\\Version=ES64L-G16RevB.01\State=1-A\HF=-403
 .0931353\RMSD=4.775e-09\Dipole=-1.1404036,-0.0029195,-0.642432\Quadrup
 ole=-1.4751522,-2.1841241,3.6592762,0.3880584,-1.4133044,0.4410497\PG=
 C01 [X(C5H13N1O2)]\\@


 THE ATTENTION SPAN OF A COMPUTER IS AS LONG
 AS ITS EXTENSION CORD.
 File lengths (MBytes):  RWF=     10 Int=      0 D2E=      0 Chk=      3 Scr=      1
 Normal termination of Gaussian 16 at Tue Apr  2 13:58:55 2024.
