 Entering Gaussian System, Link 0=g16
 Input=gaussian_test.inp
 Output=gaussian_test.log
 Initial command:
 /sw/restricted/lms/sw/Gaussian/g16_B01/g16/l1.exe "/scratch/user/peterchao1/peterchao1/6269706_1663082815000000636344719/Gau-238235.inp" -scrdir="/scratch/user/peterchao1/peterchao1/6269706_1663082815000000636344719/"
 Entering Link 1 = /sw/restricted/lms/sw/Gaussian/g16_B01/g16/l1.exe PID=    238236.
  
 Copyright (c) 1988-2017, Gaussian, Inc.  All Rights Reserved.
  
 This is part of the Gaussian(R) 16 program.  It is based on
 the Gaussian(R) 09 system (copyright 2009, Gaussian, Inc.),
 the Gaussian(R) 03 system (copyright 2003, Gaussian, Inc.),
 the Gaussian(R) 98 system (copyright 1998, Gaussian, Inc.),
 the Gaussian(R) 94 system (copyright 1995, Gaussian, Inc.),
 the Gaussian 92(TM) system (copyright 1992, Gaussian, Inc.),
 the Gaussian 90(TM) system (copyright 1990, Gaussian, Inc.),
 the Gaussian 88(TM) system (copyright 1988, Gaussian, Inc.),
 the Gaussian 86(TM) system (copyright 1986, Carnegie Mellon
 University), and the Gaussian 82(TM) system (copyright 1983,
 Carnegie Mellon University). Gaussian is a federally registered
 trademark of Gaussian, Inc.
  
 This software contains proprietary and confidential information,
 including trade secrets, belonging to Gaussian, Inc.
  
 This software is provided under written license and may be
 used, copied, transmitted, or stored only in accord with that
 written license.
  
 The following legend is applicable only to US Government
 contracts under FAR:
  
                    RESTRICTED RIGHTS LEGEND
  
 Use, reproduction and disclosure by the US Government is
 subject to restrictions as set forth in subparagraphs (a)
 and (c) of the Commercial Computer Software - Restricted
 Rights clause in FAR 52.227-19.
  
 Gaussian, Inc.
 340 Quinnipiac St., Bldg. 40, Wallingford CT 06492
  
  
 ---------------------------------------------------------------
 Warning -- This program may not be used in any manner that
 competes with the business of Gaussian, Inc. or will provide
 assistance to any competitor of Gaussian, Inc.  The licensee
 of this program is prohibited from giving any competitor of
 Gaussian, Inc. access to this program.  By using this program,
 the user acknowledges that Gaussian, Inc. is engaged in the
 business of creating and licensing software in the field of
 computational chemistry and represents and warrants to the
 licensee that it is not a competitor of Gaussian, Inc. and that
 it will not use this program in any manner prohibited above.
 ---------------------------------------------------------------
  

 Cite this work as:
 Gaussian 16, Revision B.01,
 M. J. Frisch, G. W. Trucks, H. B. Schlegel, G. E. Scuseria, 
 M. A. Robb, J. R. Cheeseman, G. Scalmani, V. Barone, 
 G. A. Petersson, H. Nakatsuji, X. Li, M. Caricato, A. V. Marenich, 
 J. Bloino, B. G. Janesko, R. Gomperts, B. Mennucci, H. P. Hratchian, 
 J. V. Ortiz, A. F. Izmaylov, J. L. Sonnenberg, D. Williams-Young, 
 F. Ding, F. Lipparini, F. Egidi, J. Goings, B. Peng, A. Petrone, 
 T. Henderson, D. Ranasinghe, V. G. Zakrzewski, J. Gao, N. Rega, 
 G. Zheng, W. Liang, M. Hada, M. Ehara, K. Toyota, R. Fukuda, 
 J. Hasegawa, M. Ishida, T. Nakajima, Y. Honda, O. Kitao, H. Nakai, 
 T. Vreven, K. Throssell, J. A. Montgomery, Jr., J. E. Peralta, 
 F. Ogliaro, M. J. Bearpark, J. J. Heyd, E. N. Brothers, K. N. Kudin, 
 V. N. Staroverov, T. A. Keith, R. Kobayashi, J. Normand, 
 K. Raghavachari, A. P. Rendell, J. C. Burant, S. S. Iyengar, 
 J. Tomasi, M. Cossi, J. M. Millam, M. Klene, C. Adamo, R. Cammi, 
 J. W. Ochterski, R. L. Martin, K. Morokuma, O. Farkas, 
 J. B. Foresman, and D. J. Fox, Gaussian, Inc., Wallingford CT, 2016.
 
 ******************************************
 Gaussian 16:  ES64L-G16RevB.01 20-Dec-2017
                13-Sep-2022 
 ******************************************
 %nprocshared=4
 Will use up to    4 processors via shared memory.
 %mem=8000mb
 %nprocshared=4
 Will use up to    4 processors via shared memory.
 %mem=8000mb
 ----------------------------------------------------------------------
 #T wB97XD/def2svpp opt=(tight,calcall) freq int(grid=ultrafine) scf=(v
 erytight,qc)
 ----------------------------------------------------------------------
 -----
 dimer
 -----
 Symbolic Z-matrix:
 Charge =  0 Multiplicity = 1
 C                    -4.06183   0.47679  -0.37906 
 C                    -2.65813  -0.00032  -0.0003 
 C                    -1.95519  -0.55171  -1.24256 
 C                    -1.85828   1.17558   0.5645 
 C                    -2.76141  -1.10142   1.05722 
 H                    -4.64944  -0.34534  -0.78186 
 H                    -4.00906   1.26055  -1.13172 
 H                    -4.57975   0.87291   0.49183 
 H                    -1.85683   0.22115  -2.00209 
 H                    -2.52313  -1.37698  -1.66673 
 H                    -0.96133  -0.9149   -0.99226 
 H                    -1.76025   1.96496  -0.17799 
 H                    -0.86099   0.85516   0.85837 
 H                    -2.3533    1.58971   1.44038 
 H                    -3.33345  -1.9446    0.67622 
 H                    -3.25595  -0.72841   1.95158 
 H                    -1.77271  -1.45924   1.3371 
 C                     4.06303  -0.47768  -0.37348 
 C                     2.65812   0.00033  -0.00032 
 C                     1.95555   0.53984  -1.248 
 C                     1.85964  -1.17203   0.57371 
 C                     2.75849   1.11063   1.04783 
 H                     4.01226  -1.26971  -1.1176 
 H                     4.5816   -0.86312   0.50181 
 H                     4.64891   0.34137  -0.78505 
 H                     1.86097  -0.23919  -2.00168 
 H                     2.52158   1.36363  -1.67758 
 H                     0.9601    0.90175  -1.00218 
 H                     1.76231  -1.96723  -0.16267 
 H                     0.86205  -0.85044   0.86531 
 H                     2.35527  -1.57887   1.45265 
 H                     3.25166   0.74581   1.94631 
 H                     1.76896   1.47001   1.32275 
 H                     3.33055   1.95097   0.66061 
 
 Add virtual bond connecting atoms H30        and H13        Dist= 4.58D+00.

 GradGradGradGradGradGradGradGradGradGradGradGradGradGradGradGradGradGrad
 Initialization pass.
                           ----------------------------
                           !    Initial Parameters    !
                           ! (Angstroms and Degrees)  !
 --------------------------                            --------------------------
 ! Name  Definition              Value          Derivative Info.                !
 --------------------------------------------------------------------------------
 ! R1    R(1,2)                  1.5302         calculate D2E/DX2 analytically  !
 ! R2    R(1,6)                  1.0879         calculate D2E/DX2 analytically  !
 ! R3    R(1,7)                  1.0879         calculate D2E/DX2 analytically  !
 ! R4    R(1,8)                  1.0879         calculate D2E/DX2 analytically  !
 ! R5    R(2,3)                  1.5302         calculate D2E/DX2 analytically  !
 ! R6    R(2,4)                  1.5302         calculate D2E/DX2 analytically  !
 ! R7    R(2,5)                  1.5302         calculate D2E/DX2 analytically  !
 ! R8    R(3,9)                  1.0881         calculate D2E/DX2 analytically  !
 ! R9    R(3,10)                 1.0879         calculate D2E/DX2 analytically  !
 ! R10   R(3,11)                 1.0873         calculate D2E/DX2 analytically  !
 ! R11   R(4,12)                 1.0881         calculate D2E/DX2 analytically  !
 ! R12   R(4,13)                 1.0879         calculate D2E/DX2 analytically  !
 ! R13   R(4,14)                 1.088          calculate D2E/DX2 analytically  !
 ! R14   R(5,15)                 1.0878         calculate D2E/DX2 analytically  !
 ! R15   R(5,16)                 1.0879         calculate D2E/DX2 analytically  !
 ! R16   R(5,17)                 1.0881         calculate D2E/DX2 analytically  !
 ! R17   R(13,30)                2.4245         calculate D2E/DX2 analytically  !
 ! R18   R(18,19)                1.5302         calculate D2E/DX2 analytically  !
 ! R19   R(18,23)                1.0879         calculate D2E/DX2 analytically  !
 ! R20   R(18,24)                1.0879         calculate D2E/DX2 analytically  !
 ! R21   R(18,25)                1.0879         calculate D2E/DX2 analytically  !
 ! R22   R(19,20)                1.5302         calculate D2E/DX2 analytically  !
 ! R23   R(19,21)                1.5302         calculate D2E/DX2 analytically  !
 ! R24   R(19,22)                1.5302         calculate D2E/DX2 analytically  !
 ! R25   R(20,26)                1.0881         calculate D2E/DX2 analytically  !
 ! R26   R(20,27)                1.0879         calculate D2E/DX2 analytically  !
 ! R27   R(20,28)                1.0873         calculate D2E/DX2 analytically  !
 ! R28   R(21,29)                1.0882         calculate D2E/DX2 analytically  !
 ! R29   R(21,30)                1.088          calculate D2E/DX2 analytically  !
 ! R30   R(21,31)                1.088          calculate D2E/DX2 analytically  !
 ! R31   R(22,32)                1.0879         calculate D2E/DX2 analytically  !
 ! R32   R(22,33)                1.0881         calculate D2E/DX2 analytically  !
 ! R33   R(22,34)                1.0878         calculate D2E/DX2 analytically  !
 ! A1    A(2,1,6)              110.5798         calculate D2E/DX2 analytically  !
 ! A2    A(2,1,7)              110.5717         calculate D2E/DX2 analytically  !
 ! A3    A(2,1,8)              110.6151         calculate D2E/DX2 analytically  !
 ! A4    A(6,1,7)              108.3299         calculate D2E/DX2 analytically  !
 ! A5    A(6,1,8)              108.326          calculate D2E/DX2 analytically  !
 ! A6    A(7,1,8)              108.3366         calculate D2E/DX2 analytically  !
 ! A7    A(1,2,3)              109.44           calculate D2E/DX2 analytically  !
 ! A8    A(1,2,4)              109.3449         calculate D2E/DX2 analytically  !
 ! A9    A(1,2,5)              109.4826         calculate D2E/DX2 analytically  !
 ! A10   A(3,2,4)              109.6604         calculate D2E/DX2 analytically  !
 ! A11   A(3,2,5)              109.4381         calculate D2E/DX2 analytically  !
 ! A12   A(4,2,5)              109.4613         calculate D2E/DX2 analytically  !
 ! A13   A(2,3,9)              110.6279         calculate D2E/DX2 analytically  !
 ! A14   A(2,3,10)             110.4915         calculate D2E/DX2 analytically  !
 ! A15   A(2,3,11)             110.6934         calculate D2E/DX2 analytically  !
 ! A16   A(9,3,10)             108.2913         calculate D2E/DX2 analytically  !
 ! A17   A(9,3,11)             108.3805         calculate D2E/DX2 analytically  !
 ! A18   A(10,3,11)            108.2724         calculate D2E/DX2 analytically  !
 ! A19   A(2,4,12)             110.6536         calculate D2E/DX2 analytically  !
 ! A20   A(2,4,13)             110.6424         calculate D2E/DX2 analytically  !
 ! A21   A(2,4,14)             110.5994         calculate D2E/DX2 analytically  !
 ! A22   A(12,4,13)            108.3836         calculate D2E/DX2 analytically  !
 ! A23   A(12,4,14)            108.3114         calculate D2E/DX2 analytically  !
 ! A24   A(13,4,14)            108.1632         calculate D2E/DX2 analytically  !
 ! A25   A(2,5,15)             110.5607         calculate D2E/DX2 analytically  !
 ! A26   A(2,5,16)             110.6161         calculate D2E/DX2 analytically  !
 ! A27   A(2,5,17)             110.6757         calculate D2E/DX2 analytically  !
 ! A28   A(15,5,16)            108.3389         calculate D2E/DX2 analytically  !
 ! A29   A(15,5,17)            108.2424         calculate D2E/DX2 analytically  !
 ! A30   A(16,5,17)            108.3218         calculate D2E/DX2 analytically  !
 ! A31   A(4,13,30)            149.2535         calculate D2E/DX2 analytically  !
 ! A32   A(19,18,23)           110.5709         calculate D2E/DX2 analytically  !
 ! A33   A(19,18,24)           110.6157         calculate D2E/DX2 analytically  !
 ! A34   A(19,18,25)           110.5805         calculate D2E/DX2 analytically  !
 ! A35   A(23,18,24)           108.337          calculate D2E/DX2 analytically  !
 ! A36   A(23,18,25)           108.3298         calculate D2E/DX2 analytically  !
 ! A37   A(24,18,25)           108.3251         calculate D2E/DX2 analytically  !
 ! A38   A(18,19,20)           109.442          calculate D2E/DX2 analytically  !
 ! A39   A(18,19,21)           109.3438         calculate D2E/DX2 analytically  !
 ! A40   A(18,19,22)           109.4803         calculate D2E/DX2 analytically  !
 ! A41   A(20,19,21)           109.6592         calculate D2E/DX2 analytically  !
 ! A42   A(20,19,22)           109.4396         calculate D2E/DX2 analytically  !
 ! A43   A(21,19,22)           109.4622         calculate D2E/DX2 analytically  !
 ! A44   A(19,20,26)           110.6266         calculate D2E/DX2 analytically  !
 ! A45   A(19,20,27)           110.4913         calculate D2E/DX2 analytically  !
 ! A46   A(19,20,28)           110.693          calculate D2E/DX2 analytically  !
 ! A47   A(26,20,27)           108.2925         calculate D2E/DX2 analytically  !
 ! A48   A(26,20,28)           108.3803         calculate D2E/DX2 analytically  !
 ! A49   A(27,20,28)           108.2733         calculate D2E/DX2 analytically  !
 ! A50   A(19,21,29)           110.6526         calculate D2E/DX2 analytically  !
 ! A51   A(19,21,30)           110.6431         calculate D2E/DX2 analytically  !
 ! A52   A(19,21,31)           110.6001         calculate D2E/DX2 analytically  !
 ! A53   A(29,21,30)           108.3835         calculate D2E/DX2 analytically  !
 ! A54   A(29,21,31)           108.3117         calculate D2E/DX2 analytically  !
 ! A55   A(30,21,31)           108.1626         calculate D2E/DX2 analytically  !
 ! A56   A(19,22,32)           110.6174         calculate D2E/DX2 analytically  !
 ! A57   A(19,22,33)           110.6755         calculate D2E/DX2 analytically  !
 ! A58   A(19,22,34)           110.5604         calculate D2E/DX2 analytically  !
 ! A59   A(32,22,33)           108.3212         calculate D2E/DX2 analytically  !
 ! A60   A(32,22,34)           108.3386         calculate D2E/DX2 analytically  !
 ! A61   A(33,22,34)           108.2424         calculate D2E/DX2 analytically  !
 ! A62   A(13,30,21)           149.1875         calculate D2E/DX2 analytically  !
 ! D1    D(6,1,2,3)             59.9721         calculate D2E/DX2 analytically  !
 ! D2    D(6,1,2,4)           -179.8927         calculate D2E/DX2 analytically  !
 ! D3    D(6,1,2,5)            -59.9752         calculate D2E/DX2 analytically  !
 ! D4    D(7,1,2,3)            -60.0096         calculate D2E/DX2 analytically  !
 ! D5    D(7,1,2,4)             60.1256         calculate D2E/DX2 analytically  !
 ! D6    D(7,1,2,5)           -179.9569         calculate D2E/DX2 analytically  !
 ! D7    D(8,1,2,3)            179.9773         calculate D2E/DX2 analytically  !
 ! D8    D(8,1,2,4)            -59.8876         calculate D2E/DX2 analytically  !
 ! D9    D(8,1,2,5)             60.03           calculate D2E/DX2 analytically  !
 ! D10   D(1,2,3,9)             60.9456         calculate D2E/DX2 analytically  !
 ! D11   D(1,2,3,10)           -58.9671         calculate D2E/DX2 analytically  !
 ! D12   D(1,2,3,11)          -178.8985         calculate D2E/DX2 analytically  !
 ! D13   D(4,2,3,9)            -58.9963         calculate D2E/DX2 analytically  !
 ! D14   D(4,2,3,10)          -178.9089         calculate D2E/DX2 analytically  !
 ! D15   D(4,2,3,11)            61.1596         calculate D2E/DX2 analytically  !
 ! D16   D(5,2,3,9)           -179.0798         calculate D2E/DX2 analytically  !
 ! D17   D(5,2,3,10)            61.0076         calculate D2E/DX2 analytically  !
 ! D18   D(5,2,3,11)           -58.9239         calculate D2E/DX2 analytically  !
 ! D19   D(1,2,4,12)           -60.9074         calculate D2E/DX2 analytically  !
 ! D20   D(1,2,4,13)           178.9494         calculate D2E/DX2 analytically  !
 ! D21   D(1,2,4,14)            59.1173         calculate D2E/DX2 analytically  !
 ! D22   D(3,2,4,12)            59.0926         calculate D2E/DX2 analytically  !
 ! D23   D(3,2,4,13)           -61.0507         calculate D2E/DX2 analytically  !
 ! D24   D(3,2,4,14)           179.1173         calculate D2E/DX2 analytically  !
 ! D25   D(5,2,4,12)           179.1619         calculate D2E/DX2 analytically  !
 ! D26   D(5,2,4,13)            59.0187         calculate D2E/DX2 analytically  !
 ! D27   D(5,2,4,14)           -60.8133         calculate D2E/DX2 analytically  !
 ! D28   D(1,2,5,15)            59.76           calculate D2E/DX2 analytically  !
 ! D29   D(1,2,5,16)           -60.2495         calculate D2E/DX2 analytically  !
 ! D30   D(1,2,5,17)           179.6874         calculate D2E/DX2 analytically  !
 ! D31   D(3,2,5,15)           -60.1885         calculate D2E/DX2 analytically  !
 ! D32   D(3,2,5,16)           179.8021         calculate D2E/DX2 analytically  !
 ! D33   D(3,2,5,17)            59.739          calculate D2E/DX2 analytically  !
 ! D34   D(4,2,5,15)           179.6062         calculate D2E/DX2 analytically  !
 ! D35   D(4,2,5,16)            59.5967         calculate D2E/DX2 analytically  !
 ! D36   D(4,2,5,17)           -60.4664         calculate D2E/DX2 analytically  !
 ! D37   D(2,4,13,30)           10.0661         calculate D2E/DX2 analytically  !
 ! D38   D(12,4,13,30)        -111.4262         calculate D2E/DX2 analytically  !
 ! D39   D(14,4,13,30)         131.3498         calculate D2E/DX2 analytically  !
 ! D40   D(4,13,30,21)         116.5559         calculate D2E/DX2 analytically  !
 ! D41   D(23,18,19,20)        -60.1517         calculate D2E/DX2 analytically  !
 ! D42   D(23,18,19,21)         59.9826         calculate D2E/DX2 analytically  !
 ! D43   D(23,18,19,22)        179.8993         calculate D2E/DX2 analytically  !
 ! D44   D(24,18,19,20)        179.8348         calculate D2E/DX2 analytically  !
 ! D45   D(24,18,19,21)        -60.0308         calculate D2E/DX2 analytically  !
 ! D46   D(24,18,19,22)         59.8858         calculate D2E/DX2 analytically  !
 ! D47   D(25,18,19,20)         59.8299         calculate D2E/DX2 analytically  !
 ! D48   D(25,18,19,21)        179.9643         calculate D2E/DX2 analytically  !
 ! D49   D(25,18,19,22)        -60.1191         calculate D2E/DX2 analytically  !
 ! D50   D(18,19,20,26)         60.839          calculate D2E/DX2 analytically  !
 ! D51   D(18,19,20,27)        -59.0742         calculate D2E/DX2 analytically  !
 ! D52   D(18,19,20,28)       -179.0064         calculate D2E/DX2 analytically  !
 ! D53   D(21,19,20,26)        -59.1022         calculate D2E/DX2 analytically  !
 ! D54   D(21,19,20,27)       -179.0153         calculate D2E/DX2 analytically  !
 ! D55   D(21,19,20,28)         61.0524         calculate D2E/DX2 analytically  !
 ! D56   D(22,19,20,26)       -179.1871         calculate D2E/DX2 analytically  !
 ! D57   D(22,19,20,27)         60.8997         calculate D2E/DX2 analytically  !
 ! D58   D(22,19,20,28)        -59.0325         calculate D2E/DX2 analytically  !
 ! D59   D(18,19,21,29)        -61.0021         calculate D2E/DX2 analytically  !
 ! D60   D(18,19,21,30)        178.8548         calculate D2E/DX2 analytically  !
 ! D61   D(18,19,21,31)         59.0227         calculate D2E/DX2 analytically  !
 ! D62   D(20,19,21,29)         58.999          calculate D2E/DX2 analytically  !
 ! D63   D(20,19,21,30)        -61.144          calculate D2E/DX2 analytically  !
 ! D64   D(20,19,21,31)        179.0238         calculate D2E/DX2 analytically  !
 ! D65   D(22,19,21,29)        179.0701         calculate D2E/DX2 analytically  !
 ! D66   D(22,19,21,30)         58.9271         calculate D2E/DX2 analytically  !
 ! D67   D(22,19,21,31)        -60.905          calculate D2E/DX2 analytically  !
 ! D68   D(18,19,22,32)        -60.3155         calculate D2E/DX2 analytically  !
 ! D69   D(18,19,22,33)        179.6215         calculate D2E/DX2 analytically  !
 ! D70   D(18,19,22,34)         59.6942         calculate D2E/DX2 analytically  !
 ! D71   D(20,19,22,32)        179.734          calculate D2E/DX2 analytically  !
 ! D72   D(20,19,22,33)         59.671          calculate D2E/DX2 analytically  !
 ! D73   D(20,19,22,34)        -60.2562         calculate D2E/DX2 analytically  !
 ! D74   D(21,19,22,32)         59.5286         calculate D2E/DX2 analytically  !
 ! D75   D(21,19,22,33)        -60.5345         calculate D2E/DX2 analytically  !
 ! D76   D(21,19,22,34)        179.5383         calculate D2E/DX2 analytically  !
 ! D77   D(19,21,30,13)         10.0441         calculate D2E/DX2 analytically  !
 ! D78   D(29,21,30,13)       -111.4473         calculate D2E/DX2 analytically  !
 ! D79   D(31,21,30,13)        131.3287         calculate D2E/DX2 analytically  !
 --------------------------------------------------------------------------------
 Number of steps in this run=    184 maximum allowed number of steps=    204.
 GradGradGradGradGradGradGradGradGradGradGradGradGradGradGradGradGradGrad

                    Distance matrix (angstroms):
                    1          2          3          4          5
     1  C    0.000000
     2  C    1.530194   0.000000
     3  C    2.498279   1.530151   0.000000
     4  C    2.496846   1.530194   2.501675   0.000000
     5  C    2.498956   1.530174   2.498234   2.498627   0.000000
     6  H    1.087860   2.166844   2.741139   3.452022   2.741998
     7  H    1.087917   2.166784   2.741344   2.740482   3.453556
     8  H    1.087935   2.167342   3.453402   2.739209   2.743000
     9  H    2.749836   2.167555   1.088054   2.738310   3.453525
    10  H    2.731705   2.165739   1.087916   3.454852   2.748205
    11  H    3.453393   2.167842   1.087342   2.756464   2.734121
    12  H    2.748160   2.167977   2.739516   1.088137   3.454100
    13  H    3.452505   2.167688   2.755082   1.087939   2.734842
    14  H    2.732769   2.167182   3.455766   1.087982   2.748738
    15  H    2.739945   2.166552   2.742533   3.453129   1.087815
    16  H    2.744785   2.167332   3.453366   2.739092   1.087928
    17  H    3.454491   2.168184   2.740720   2.747084   1.088066
    18  C    8.180736   6.748413   6.081095   6.218923   7.000636
    19  C    6.747460   5.316246   4.809419   4.700863   5.630588
    20  C    6.080124   4.809837   4.060217   4.270202   5.500676
    21  C    6.220152   4.702408   4.270432   4.397081   4.646814
    22  C    6.996756   5.627838   5.498002   4.642461   5.946643
    23  H    8.293771   6.881404   6.011783   6.578156   7.116226
    24  H    8.790917   7.308226   6.772695   6.755167   7.367836
    25  H    8.721245   7.356990   6.679891   6.697811   7.770993
    26  H    6.182641   4.948208   3.903453   4.734940   5.609510
    27  H    6.768599   5.612752   4.888680   4.923970   6.439375
    28  H    5.078254   3.861226   3.266379   3.236162   4.701429
    29  H    6.319869   4.841008   4.121854   4.849199   4.764638
    30  H    5.249247   3.723385   3.531172   3.405203   3.637204
    31  H    6.982840   5.453160   5.186447   5.111726   5.154091
    32  H    7.678992   6.266706   6.242095   5.310897   6.352933
    33  H    6.154736   4.848859   4.953526   3.717327   5.216035
    34  H    7.609302   6.333138   6.150163   5.247332   6.825422
                    6          7          8          9         10
     6  H    0.000000
     7  H    1.763915   0.000000
     8  H    1.763886   1.764051   0.000000
     9  H    3.099764   2.543616   3.749495   0.000000
    10  H    2.523590   3.074222   3.735123   1.763643   0.000000
    11  H    3.737757   3.747091   4.300202   1.764168   1.762854
    12  H    3.748284   2.542236   3.096908   2.525386   3.737241
    13  H    4.299295   3.746352   3.736821   3.094501   3.757838
    14  H    3.735644   3.076620   2.524008   3.737651   4.299332
    15  H    2.532874   3.741405   3.086363   3.747561   2.543275
    16  H    3.091964   3.745651   2.539204   4.300080   3.748313
    17  H    3.742505   4.300419   3.746051   3.739111   3.097240
    18  C    8.723042   8.291864   8.790364   6.179443   6.771907
    19  C    7.357360   6.878918   7.306871   4.943749   5.614200
    20  C    6.680325   6.009119   6.771120   3.899294   4.889591
    21  C    6.699940   6.577816   6.756796   4.731587   4.926488
    22  C    7.768212   7.111447   7.363114   5.603073   6.438367
    23  H    8.717351   8.410943   9.000204   6.119739   6.559290
    24  H    9.334240   8.998769   9.324388   6.992753   7.446059
    25  H    9.323672   8.713520   9.331721   6.619690   7.427528
    26  H    6.624547   6.120724   6.995511   3.746192   4.541698
    27  H    7.426065   6.554222   7.441505   4.536638   5.741093
    28  H    5.750717   4.983781   5.737841   3.065644   4.215110
    29  H    6.642628   6.683292   6.979723   4.612016   4.579911
    30  H    5.774497   5.672046   5.720365   4.094216   4.260037
    31  H    7.455237   7.432760   7.418142   5.737341   5.793966
    32  H    8.429767   7.902995   7.966346   6.477800   7.135023
    33  H    6.994338   6.281226   6.430635   5.075489   5.955198
    34  H    8.428173   7.586768   7.985210   6.082044   7.124421
                   11         12         13         14         15
    11  H    0.000000
    12  H    3.097562   0.000000
    13  H    2.562813   1.764755   0.000000
    14  H    3.758768   1.763986   1.762177   0.000000
    15  H    3.077510   4.299924   3.739643   3.746461   0.000000
    16  H    3.737140   3.745194   3.072238   2.539644   1.763987
    17  H    2.525970   3.744436   2.533153   3.105452   1.763026
    18  C    5.081165   6.317852   5.247849   6.980935   7.613258
    19  C    3.862899   4.838729   3.721859   5.451243   6.335567
    20  C    3.269533   4.121046   3.531163   5.186112   6.152121
    21  C    3.236706   4.848649   3.404764   5.111479   5.251250
    22  C    4.701252   4.759360   3.633431   5.149178   6.825271
    23  H    4.987802   6.683395   5.671694   7.432351   7.591621
    24  H    5.740992   6.977046   5.718516   7.415530   7.990499
    25  H    5.752902   6.639411   5.772675   7.452633   8.430837
    26  H    3.072597   4.614901   4.097139   5.740440   6.087817
    27  H    4.218057   4.576503   4.258093   5.791131   7.125037
    28  H    2.644278   3.034794   2.603878   4.173484   5.417871
    29  H    3.035432   5.279281   3.986248   5.670965   5.164403
    30  H    2.603731   3.986398   2.424455   4.077188   4.339952
    31  H    4.173516   5.670551   4.077006   5.675438   5.753098
    32  H    5.398373   5.578369   4.255524   5.690669   7.226007
    33  H    4.301337   3.866844   2.740497   4.125675   6.173507
    34  H    5.418986   5.159426   4.336928   5.748455   7.719111
                   16         17         18         19         20
    16  H    0.000000
    17  H    1.764002   0.000000
    18  C    7.683505   6.159981   0.000000
    19  C    6.270343   4.852964   1.530201   0.000000
    20  C    6.245435   4.957712   2.498317   1.530152   0.000000
    21  C    5.316448   3.722798   2.496840   1.530199   2.501661
    22  C    6.353926   5.217248   2.498930   1.530180   2.498263
    23  H    7.908204   6.287071   1.087939   2.166797   2.742540
    24  H    7.971647   6.436636   1.087942   2.167362   3.453441
    25  H    8.433285   6.998771   1.087877   2.166871   2.740050
    26  H    6.484626   5.083255   2.748995   2.167543   1.088060
    27  H    7.136334   5.957998   2.732609   2.165737   1.087917
    28  H    5.399739   4.302872   3.453441   2.167843   1.087349
    29  H    5.584591   3.873463   2.748913   2.167980   2.738738
    30  H    4.260608   2.745025   3.452512   2.167716   2.755842
    31  H    5.697187   4.131323   2.732002   2.167189   3.455745
    32  H    6.672508   5.520658   2.745304   2.167353   3.453395
    33  H    5.520709   4.596098   3.454480   2.168194   2.740208
    34  H    7.226874   6.174983   2.739377   2.166560   2.743118
                   21         22         23         24         25
    21  C    0.000000
    22  C    2.498650   0.000000
    23  H    2.739309   3.453552   0.000000
    24  H    2.740372   2.741810   1.764077   0.000000
    25  H    3.452041   2.743144   1.763946   1.763897   0.000000
    26  H    2.739123   3.453555   2.543935   3.749477   3.096748
    27  H    3.454857   2.747356   3.077367   3.735215   2.523319
    28  H    2.755571   2.735024   3.747565   4.300233   3.737440
    29  H    1.088152   3.454115   2.541787   3.099838   3.748258
    30  H    1.087958   2.734152   3.745870   3.737292   4.299345
    31  H    1.087976   2.749518   3.073660   2.524470   3.735690
    32  H    2.738589   1.087927   3.745452   2.538498   3.094543
    33  H    2.747665   1.088076   4.300436   3.745445   3.743086
    34  H    3.453150   1.087823   3.741595   3.083733   2.533531
                   26         27         28         29         30
    26  H    0.000000
    27  H    1.763661   0.000000
    28  H    1.764177   1.762872   0.000000
    29  H    2.525429   3.737123   3.095059   0.000000
    30  H    3.096943   3.757979   2.562670   1.764781   0.000000
    31  H    3.737836   4.299334   3.758474   1.763997   1.762180
    32  H    4.300103   3.747974   3.737534   3.745207   3.070313
    33  H    3.739200   3.095106   2.526347   3.744482   2.533023
    34  H    3.747568   2.542937   3.079734   4.299939   3.739422
                   31         32         33         34
    31  H    0.000000
    32  H    2.539949   0.000000
    33  H    3.107454   1.764002   0.000000
    34  H    3.746763   1.763990   1.763041   0.000000
 Framework group  C1[X(C10H24)]
 Deg. of freedom    96
                         Standard orientation:                         
 ---------------------------------------------------------------------
 Center     Atomic      Atomic             Coordinates (Angstroms)
 Number     Number       Type             X           Y           Z
 ---------------------------------------------------------------------
      1          6           0        4.061831    0.476439    0.379557
      2          6           0        2.658127   -0.000316    0.000331
      3          6           0        1.955190   -0.552906    1.242058
      4          6           0        1.858279    1.176130   -0.563328
      5          6           0        2.761411   -1.100388   -1.058256
      6          1           0        4.649444   -0.346085    0.781557
      7          1           0        4.009056    1.259468    1.132979
      8          1           0        4.579747    0.873407   -0.490950
      9          1           0        1.856834    0.219209    2.002338
     10          1           0        2.523132   -1.378594    1.665429
     11          1           0        0.961334   -0.915856    0.991400
     12          1           0        1.760239    1.964796    0.179931
     13          1           0        0.860989    0.856001   -0.857508
     14          1           0        2.353294    1.591115   -1.438801
     15          1           0        3.333460   -1.943931   -0.678076
     16          1           0        3.255953   -0.726507   -1.952251
     17          1           0        1.772712   -1.457933   -1.338480
     18          6           0       -4.063028   -0.478054    0.373051
     19          6           0       -2.658119    0.000322    0.000355
     20          6           0       -1.955551    0.538621    1.248552
     21          6           0       -1.859640   -1.171480   -0.574815
     22          6           0       -2.758497    1.111637   -1.046715
     23          1           0       -4.012252   -1.270811    1.116400
     24          1           0       -4.581596   -0.862645   -0.502617
     25          1           0       -4.648906    0.340593    0.785411
     26          1           0       -1.860965   -0.241145    2.001475
     27          1           0       -2.521583    1.361993    1.678934
     28          1           0       -0.960103    0.900776    1.003083
     29          1           0       -1.762304   -1.967396    0.160792
     30          1           0       -0.862045   -0.849597   -0.866103
     31          1           0       -2.355261   -1.577461   -1.454151
     32          1           0       -3.251663    0.747690   -1.945556
     33          1           0       -1.768966    1.471289   -1.321284
     34          1           0       -3.330560    1.951597   -0.658683
 ---------------------------------------------------------------------
 Rotational constants (GHZ):           2.2377847           0.4059462           0.4059173
   188 basis functions,   346 primitive gaussians,   198 cartesian basis functions
    42 alpha electrons       42 beta electrons
       nuclear repulsion energy       571.7278207898 Hartrees.
 NAtoms=   34 NActive=   34 NUniq=   34 SFac= 1.00D+00 NAtFMM=   60 NAOKFM=F Big=F
 Nuclear repulsion after empirical dispersion term =      571.7024195627 Hartrees.
   1 Symmetry operations used in ECPInt.
 ECPInt:  NShTT=    5886 NPrTT=   23638 LenC2=    5703 LenP2D=   16859.
 LDataN:  DoStor=T MaxTD1= 4 Len=   56
 ExpMin= 1.22D-01 ExpMax= 1.24D+03 ExpMxC= 1.86D+02 IAcc=3 IRadAn=         5 AccDes= 0.00D+00
 Harris functional with IExCor= 4639 and IRadAn=       5 diagonalized for initial guess.
 HarFok:  IExCor= 4639 AccDes= 0.00D+00 IRadAn=         5 IDoV= 1 UseB2=F ITyADJ=14
 ICtDFT=  3500011 ScaDFX=  1.000000  1.000000  1.000000  1.000000
 FoFCou: FMM=F IPFlag=           0 FMFlag=      100000 FMFlg1=           0
         NFxFlg=           0 DoJE=T BraDBF=F KetDBF=T FulRan=T
         wScrn=  0.000000 ICntrl=       500 IOpCl=  0 I1Cent=   200000004 NGrid=           0
         NMat0=    1 NMatS0=      1 NMatT0=    0 NMatD0=    1 NMtDS0=    0 NMtDT0=    0
 Petite list used in FoFCou.
     Accept linear search using points  2 and  3.
     Accept linear search using points  1 and  2.
     Accept linear search using points  1 and  2.
     Minimum is close to point  2 DX= -1.47D-04 DF= -2.84D-13 DXR=  1.47D-04 DFR=  2.19D-08 which will be used.
 SCF Done:  E(RwB97XD) =  -395.094855146     a.u. after    8 cycles
            Convg  =    0.3659D-09                    39 Fock formations.
              S**2 =  0.0000                  -V/T =  2.0108
 DoSCS=F DFT=T ScalE2(SS,OS)=  1.000000  1.000000
 NROrb=    188 NOA=    42 NOB=    42 NVA=   146 NVB=   146

 **** Warning!!: The largest alpha MO coefficient is  0.11816603D+02

   1 Symmetry operations used in ECPInt.
 ECPInt:  NShTT=    5886 NPrTT=   23638 LenC2=    5703 LenP2D=   16859.
 LDataN:  DoStor=T MaxTD1= 5 Len=  102
 Symmetrizing basis deriv contribution to polar:
 IMax=3 JMax=2 DiffMx= 0.00D+00
 Calling FoFCou, ICntrl=  3107 FMM=F I1Cent=   0 AccDes= 0.00D+00.
 End of G2Drv F.D. properties file   721 does not exist.
 End of G2Drv F.D. properties file   722 does not exist.
 End of G2Drv F.D. properties file   788 does not exist.
          IDoAtm=1111111111111111111111111111111111
 End of Minotr F.D. properties file   721 does not exist.
 End of Minotr F.D. properties file   722 does not exist.
 End of Minotr F.D. properties file   788 does not exist.

 **********************************************************************

            Population analysis using the SCF Density.

 **********************************************************************

 Orbital symmetries:
       Occupied  (A) (A) (A) (A) (A) (A) (A) (A) (A) (A) (A) (A)
                 (A) (A) (A) (A) (A) (A) (A) (A) (A) (A) (A) (A)
                 (A) (A) (A) (A) (A) (A) (A) (A) (A) (A) (A) (A)
                 (A) (A) (A) (A) (A) (A)
       Virtual   (A) (A) (A) (A) (A) (A) (A) (A) (A) (A) (A) (A)
                 (A) (A) (A) (A) (A) (A) (A) (A) (A) (A) (A) (A)
                 (A) (A) (A) (A) (A) (A) (A) (A) (A) (A) (A) (A)
                 (A) (A) (A) (A) (A) (A) (A) (A) (A) (A) (A) (A)
                 (A) (A) (A) (A) (A) (A) (A) (A) (A) (A) (A) (A)
                 (A) (A) (A) (A) (A) (A) (A) (A) (A) (A) (A) (A)
                 (A) (A) (A) (A) (A) (A) (A) (A) (A) (A) (A) (A)
                 (A) (A) (A) (A) (A) (A) (A) (A) (A) (A) (A) (A)
                 (A) (A) (A) (A) (A) (A) (A) (A) (A) (A) (A) (A)
                 (A) (A) (A) (A) (A) (A) (A) (A) (A) (A) (A) (A)
                 (A) (A) (A) (A) (A) (A) (A) (A) (A) (A) (A) (A)
                 (A) (A) (A) (A) (A) (A) (A) (A) (A) (A) (A) (A)
                 (A) (A)
 The electronic state is 1-A.
 Alpha  occ. eigenvalues --  -10.30050 -10.30050 -10.27215 -10.27215 -10.27101
 Alpha  occ. eigenvalues --  -10.27101 -10.27079 -10.27079 -10.27040 -10.27040
 Alpha  occ. eigenvalues --   -0.91633  -0.91535  -0.77518  -0.77459  -0.77431
 Alpha  occ. eigenvalues --   -0.77352  -0.77334  -0.77195  -0.61991  -0.61625
 Alpha  occ. eigenvalues --   -0.54195  -0.53771  -0.53719  -0.53698  -0.53634
 Alpha  occ. eigenvalues --   -0.53265  -0.48915  -0.48684  -0.48584  -0.48325
 Alpha  occ. eigenvalues --   -0.44687  -0.44663  -0.44659  -0.44615  -0.44589
 Alpha  occ. eigenvalues --   -0.44537  -0.40559  -0.40005  -0.39988  -0.39893
 Alpha  occ. eigenvalues --   -0.39866  -0.39181
 Alpha virt. eigenvalues --    0.11392   0.13867   0.16871   0.16991   0.18545
 Alpha virt. eigenvalues --    0.18636   0.18772   0.18779   0.19550   0.20272
 Alpha virt. eigenvalues --    0.20803   0.22286   0.22307   0.23515   0.23905
 Alpha virt. eigenvalues --    0.24561   0.24919   0.25994   0.26026   0.26584
 Alpha virt. eigenvalues --    0.26996   0.27699   0.27895   0.29304   0.30138
 Alpha virt. eigenvalues --    0.31162   0.31224   0.32153   0.32467   0.33174
 Alpha virt. eigenvalues --    0.33821   0.36801   0.45968   0.47098   0.47181
 Alpha virt. eigenvalues --    0.49478   0.51134   0.51167   0.52536   0.53642
 Alpha virt. eigenvalues --    0.54006   0.57632   0.63880   0.64412   0.65134
 Alpha virt. eigenvalues --    0.65546   0.66588   0.67876   0.68732   0.69183
 Alpha virt. eigenvalues --    0.74582   0.74638   0.76637   0.77157   0.78180
 Alpha virt. eigenvalues --    0.78484   0.78603   0.78780   0.78964   0.79397
 Alpha virt. eigenvalues --    0.79439   0.79840   0.80356   0.80607   0.82324
 Alpha virt. eigenvalues --    0.82642   0.82847   0.83558   0.83842   0.84482
 Alpha virt. eigenvalues --    0.85494   0.85539   0.85956   0.86114   0.86258
 Alpha virt. eigenvalues --    0.86858   0.87097   0.87135   0.87406   0.89113
 Alpha virt. eigenvalues --    0.89368   0.90099   0.91067   0.92740   0.96070
 Alpha virt. eigenvalues --    0.97807   1.02433   1.07636   1.12472   1.13647
 Alpha virt. eigenvalues --    1.24034   1.25154   1.25196   1.25635   1.25983
 Alpha virt. eigenvalues --    1.27264   1.46221   1.46441   1.47463   1.47589
 Alpha virt. eigenvalues --    1.80844   1.80918   1.81011   1.81063   1.81146
 Alpha virt. eigenvalues --    1.81191   1.91610   1.91671   1.92132   1.93058
 Alpha virt. eigenvalues --    1.93597   1.94014   2.12361   2.12503   2.12785
 Alpha virt. eigenvalues --    2.13223   2.13710   2.14006   2.14124   2.14964
 Alpha virt. eigenvalues --    2.16483   2.20965   2.26141   2.26402   2.26520
 Alpha virt. eigenvalues --    2.26590   2.26603   2.27922   2.28163   2.28291
 Alpha virt. eigenvalues --    2.28402   2.28836   2.28953   2.29084   2.31993
 Alpha virt. eigenvalues --    2.32086   2.64118   2.64140   2.64539   2.65479
 Alpha virt. eigenvalues --    2.77446   2.77568   2.77742   2.77898   2.77912
 Alpha virt. eigenvalues --    2.78140
          Condensed to atoms (all electrons):
 Mulliken charges:
               1
     1  C   -0.246462
     2  C   -0.297352
     3  C   -0.259865
     4  C   -0.277027
     5  C   -0.259083
     6  H    0.107500
     7  H    0.107427
     8  H    0.107005
     9  H    0.108817
    10  H    0.107298
    11  H    0.118147
    12  H    0.110615
    13  H    0.133205
    14  H    0.108423
    15  H    0.107560
    16  H    0.107400
    17  H    0.116420
    18  C   -0.246487
    19  C   -0.297258
    20  C   -0.259911
    21  C   -0.277010
    22  C   -0.259167
    23  H    0.107428
    24  H    0.107009
    25  H    0.107501
    26  H    0.108760
    27  H    0.107286
    28  H    0.118167
    29  H    0.110614
    30  H    0.133167
    31  H    0.108420
    32  H    0.107399
    33  H    0.116497
    34  H    0.107556
 Sum of Mulliken charges =   0.00000
 Mulliken charges with hydrogens summed into heavy atoms:
               1
     1  C    0.075471
     2  C   -0.297352
     3  C    0.074397
     4  C    0.075216
     5  C    0.072297
    18  C    0.075451
    19  C   -0.297258
    20  C    0.074302
    21  C    0.075191
    22  C    0.072286
 APT charges:
               1
     1  C    0.012265
     2  C    0.126405
     3  C    0.013110
     4  C    0.017583
     5  C    0.011172
     6  H   -0.015101
     7  H   -0.011695
     8  H   -0.014217
     9  H   -0.008950
    10  H   -0.019135
    11  H   -0.016454
    12  H   -0.009092
    13  H   -0.023261
    14  H   -0.020155
    15  H   -0.014413
    16  H   -0.014011
    17  H   -0.014054
    18  C    0.012323
    19  C    0.126332
    20  C    0.013617
    21  C    0.017414
    22  C    0.011021
    23  H   -0.011723
    24  H   -0.014246
    25  H   -0.015102
    26  H   -0.009041
    27  H   -0.019180
    28  H   -0.017018
    29  H   -0.009119
    30  H   -0.023040
    31  H   -0.020111
    32  H   -0.014003
    33  H   -0.013723
    34  H   -0.014397
 Sum of APT charges =   0.00000
 APT charges with hydrogens summed into heavy atoms:
               1
     1  C   -0.028749
     2  C    0.126405
     3  C   -0.031430
     4  C   -0.034925
     5  C   -0.031306
    18  C   -0.028748
    19  C    0.126332
    20  C   -0.031622
    21  C   -0.034856
    22  C   -0.031102
 Electronic spatial extent (au):  <R**2>=           3081.7285
 Charge=              0.0000 electrons
 Dipole moment (field-independent basis, Debye):
    X=              0.0004    Y=              0.0001    Z=             -0.0139  Tot=              0.0139
  Exact polarizability: 120.426   0.235 103.338   0.001  -0.001 103.266
 Approx polarizability: 111.174   0.047 109.853   0.001   0.000 109.691
   1 Symmetry operations used in ECPInt.
 ECPInt:  NShTT=    5886 NPrTT=   23638 LenC2=    5703 LenP2D=   16859.
 LDataN:  DoStor=T MaxTD1= 6 Len=  172
 Calling FoFJK, ICntrl=    100127 FMM=F ISym2X=0 I1Cent= 0 IOpClX= 0 NMat=1 NMatS=1 NMatT=0.
 FormGI is forming the generalized inverse of G from B-inverse, IUseBI=4.

 GradGradGradGradGradGradGradGradGradGradGradGradGradGradGradGradGradGrad
 Internal  Forces:  Max     0.011841667 RMS     0.004380432
 Step number   1 out of a maximum of  184
 All quantities printed in internal units (Hartrees-Bohrs-Radians)
 Mixed Optimization -- RFO/linear search
 Second derivative matrix not updated -- analytic derivatives used.
 ITU=  0
     Eigenvalues ---    0.00028   0.00051   0.00072   0.00219   0.00225
     Eigenvalues ---    0.00399   0.00406   0.00408   0.00409   0.00415
     Eigenvalues ---    0.00451   0.00833   0.01137   0.01552   0.04251
     Eigenvalues ---    0.04283   0.04504   0.04523   0.04642   0.04644
     Eigenvalues ---    0.04705   0.04728   0.04730   0.04732   0.04799
     Eigenvalues ---    0.04801   0.04803   0.04805   0.04812   0.04828
     Eigenvalues ---    0.04854   0.04881   0.04881   0.04894   0.04997
     Eigenvalues ---    0.05224   0.09031   0.09106   0.11615   0.11791
     Eigenvalues ---    0.12175   0.12581   0.12628   0.12631   0.12636
     Eigenvalues ---    0.12679   0.13188   0.13198   0.13313   0.13340
     Eigenvalues ---    0.14548   0.14556   0.14738   0.14959   0.15414
     Eigenvalues ---    0.15419   0.15893   0.15930   0.16499   0.17190
     Eigenvalues ---    0.18237   0.18304   0.18683   0.18792   0.29749
     Eigenvalues ---    0.29916   0.29982   0.29990   0.29999   0.30044
     Eigenvalues ---    0.33948   0.33971   0.36914   0.36918   0.36939
     Eigenvalues ---    0.36945   0.36985   0.36986   0.37132   0.37134
     Eigenvalues ---    0.37143   0.37145   0.37170   0.37174   0.37186
     Eigenvalues ---    0.37192   0.37202   0.37208   0.37214   0.37215
     Eigenvalues ---    0.37226   0.37238   0.37350   0.37354   0.37409
     Eigenvalues ---    0.37455
 Linear search not attempted -- first point.
 Iteration  1 RMS(Cart)=  0.11968435 RMS(Int)=  0.00190562
 Iteration  2 RMS(Cart)=  0.00982255 RMS(Int)=  0.00002271
 Iteration  3 RMS(Cart)=  0.00002539 RMS(Int)=  0.00001966
 Iteration  4 RMS(Cart)=  0.00000000 RMS(Int)=  0.00001966
 Variable       Old X    -DE/DX   Delta X   Delta X   Delta X     New X
                                 (Linear)    (Quad)   (Total)
    R1        2.89165   0.00440   0.00000   0.00913   0.00913   2.90078
    R2        2.05576   0.01147   0.00000   0.03022   0.03022   2.08598
    R3        2.05587   0.01144   0.00000   0.03015   0.03015   2.08602
    R4        2.05590   0.01143   0.00000   0.03017   0.03017   2.08607
    R5        2.89157   0.00450   0.00000   0.00974   0.00974   2.90130
    R6        2.89165   0.00384   0.00000   0.00959   0.00959   2.90124
    R7        2.89161   0.00432   0.00000   0.00935   0.00935   2.90096
    R8        2.05612   0.01133   0.00000   0.02998   0.02998   2.08610
    R9        2.05586   0.01149   0.00000   0.03030   0.03030   2.08617
   R10        2.05478   0.01184   0.00000   0.02992   0.02992   2.08470
   R11        2.05628   0.01126   0.00000   0.02977   0.02977   2.08605
   R12        2.05591   0.01048   0.00000   0.02868   0.02868   2.08459
   R13        2.05599   0.01141   0.00000   0.02997   0.02997   2.08596
   R14        2.05567   0.01150   0.00000   0.03027   0.03027   2.08594
   R15        2.05589   0.01144   0.00000   0.03015   0.03015   2.08604
   R16        2.05615   0.01147   0.00000   0.03016   0.03016   2.08631
   R17        4.58156  -0.00084   0.00000  -0.03611  -0.03611   4.54545
   R18        2.89166   0.00439   0.00000   0.00909   0.00909   2.90075
   R19        2.05591   0.01143   0.00000   0.03012   0.03012   2.08603
   R20        2.05591   0.01142   0.00000   0.03016   0.03016   2.08607
   R21        2.05579   0.01146   0.00000   0.03019   0.03019   2.08598
   R22        2.89157   0.00450   0.00000   0.00972   0.00972   2.90129
   R23        2.89166   0.00384   0.00000   0.00957   0.00957   2.90123
   R24        2.89162   0.00432   0.00000   0.00934   0.00934   2.90096
   R25        2.05614   0.01133   0.00000   0.02997   0.02997   2.08611
   R26        2.05586   0.01149   0.00000   0.03030   0.03030   2.08617
   R27        2.05479   0.01184   0.00000   0.02991   0.02991   2.08470
   R28        2.05631   0.01125   0.00000   0.02974   0.02974   2.08605
   R29        2.05594   0.01046   0.00000   0.02861   0.02861   2.08455
   R30        2.05598   0.01142   0.00000   0.02997   0.02997   2.08595
   R31        2.05588   0.01144   0.00000   0.03015   0.03015   2.08603
   R32        2.05617   0.01146   0.00000   0.03019   0.03019   2.08635
   R33        2.05569   0.01149   0.00000   0.03025   0.03025   2.08594
    A1        1.92998   0.00119   0.00000   0.00817   0.00814   1.93812
    A2        1.92984   0.00117   0.00000   0.00790   0.00787   1.93771
    A3        1.93060   0.00115   0.00000   0.00799   0.00796   1.93856
    A4        1.89071  -0.00123   0.00000  -0.00845  -0.00848   1.88223
    A5        1.89065  -0.00121   0.00000  -0.00822  -0.00825   1.88239
    A6        1.89083  -0.00121   0.00000  -0.00837  -0.00840   1.88243
    A7        1.91009   0.00021   0.00000   0.00024   0.00024   1.91032
    A8        1.90843   0.00026   0.00000   0.00049   0.00049   1.90892
    A9        1.91083  -0.00007   0.00000   0.00091   0.00091   1.91174
   A10        1.91394  -0.00045   0.00000   0.00072   0.00072   1.91466
   A11        1.91005   0.00005   0.00000  -0.00119  -0.00119   1.90886
   A12        1.91046  -0.00000   0.00000  -0.00116  -0.00116   1.90930
   A13        1.93082   0.00123   0.00000   0.00868   0.00865   1.93947
   A14        1.92844   0.00124   0.00000   0.00780   0.00776   1.93620
   A15        1.93197   0.00104   0.00000   0.00883   0.00880   1.94077
   A16        1.89004  -0.00119   0.00000  -0.00741  -0.00745   1.88259
   A17        1.89160  -0.00136   0.00000  -0.01151  -0.01154   1.88006
   A18        1.88971  -0.00111   0.00000  -0.00742  -0.00746   1.88225
   A19        1.93127   0.00106   0.00000   0.00785   0.00785   1.93912
   A20        1.93107  -0.00120   0.00000   0.00539   0.00539   1.93646
   A21        1.93032   0.00145   0.00000   0.00877   0.00876   1.93908
   A22        1.89165  -0.00048   0.00000  -0.01096  -0.01098   1.88067
   A23        1.89039  -0.00082   0.00000  -0.00663  -0.00671   1.88368
   A24        1.88780  -0.00007   0.00000  -0.00534  -0.00538   1.88242
   A25        1.92965   0.00125   0.00000   0.00855   0.00852   1.93816
   A26        1.93061   0.00120   0.00000   0.00840   0.00837   1.93898
   A27        1.93166   0.00083   0.00000   0.00596   0.00594   1.93759
   A28        1.89087  -0.00125   0.00000  -0.00843  -0.00846   1.88241
   A29        1.88919  -0.00108   0.00000  -0.00776  -0.00779   1.88140
   A30        1.89057  -0.00109   0.00000  -0.00766  -0.00769   1.88289
   A31        2.60496  -0.00268   0.00000  -0.09797  -0.09797   2.50699
   A32        1.92983   0.00118   0.00000   0.00790   0.00787   1.93769
   A33        1.93061   0.00115   0.00000   0.00800   0.00796   1.93857
   A34        1.92999   0.00119   0.00000   0.00815   0.00812   1.93811
   A35        1.89084  -0.00122   0.00000  -0.00836  -0.00839   1.88245
   A36        1.89071  -0.00123   0.00000  -0.00846  -0.00849   1.88222
   A37        1.89063  -0.00121   0.00000  -0.00820  -0.00823   1.88240
   A38        1.91012   0.00021   0.00000   0.00026   0.00026   1.91039
   A39        1.90841   0.00026   0.00000   0.00063   0.00063   1.90904
   A40        1.91079  -0.00007   0.00000   0.00107   0.00107   1.91187
   A41        1.91391  -0.00045   0.00000   0.00063   0.00063   1.91454
   A42        1.91008   0.00005   0.00000  -0.00136  -0.00136   1.90872
   A43        1.91048  -0.00000   0.00000  -0.00124  -0.00124   1.90924
   A44        1.93080   0.00123   0.00000   0.00883   0.00879   1.93959
   A45        1.92844   0.00124   0.00000   0.00784   0.00780   1.93624
   A46        1.93196   0.00104   0.00000   0.00870   0.00867   1.94063
   A47        1.89006  -0.00119   0.00000  -0.00743  -0.00747   1.88259
   A48        1.89159  -0.00136   0.00000  -0.01142  -0.01145   1.88014
   A49        1.88973  -0.00111   0.00000  -0.00755  -0.00759   1.88214
   A50        1.93125   0.00107   0.00000   0.00790   0.00789   1.93915
   A51        1.93109  -0.00121   0.00000   0.00498   0.00497   1.93606
   A52        1.93034   0.00145   0.00000   0.00882   0.00880   1.93913
   A53        1.89165  -0.00048   0.00000  -0.01076  -0.01078   1.88087
   A54        1.89040  -0.00082   0.00000  -0.00658  -0.00665   1.88374
   A55        1.88779  -0.00007   0.00000  -0.00526  -0.00530   1.88249
   A56        1.93064   0.00120   0.00000   0.00842   0.00838   1.93902
   A57        1.93165   0.00084   0.00000   0.00583   0.00580   1.93746
   A58        1.92964   0.00125   0.00000   0.00856   0.00853   1.93817
   A59        1.89056  -0.00109   0.00000  -0.00759  -0.00761   1.88295
   A60        1.89086  -0.00124   0.00000  -0.00841  -0.00844   1.88242
   A61        1.88919  -0.00108   0.00000  -0.00775  -0.00777   1.88142
   A62        2.60381  -0.00269   0.00000  -0.10434  -0.10434   2.49948
    D1        1.04671   0.00013   0.00000  -0.00111  -0.00111   1.04561
    D2       -3.13972  -0.00013   0.00000   0.00022   0.00022  -3.13950
    D3       -1.04676  -0.00002   0.00000  -0.00034  -0.00034  -1.04711
    D4       -1.04737   0.00013   0.00000  -0.00099  -0.00099  -1.04835
    D5        1.04939  -0.00013   0.00000   0.00034   0.00034   1.04973
    D6       -3.14084  -0.00002   0.00000  -0.00023  -0.00023  -3.14107
    D7        3.14120   0.00014   0.00000  -0.00087  -0.00087   3.14033
    D8       -1.04524  -0.00012   0.00000   0.00046   0.00046  -1.04478
    D9        1.04772  -0.00001   0.00000  -0.00011  -0.00011   1.04761
   D10        1.06370   0.00009   0.00000   0.00167   0.00168   1.06538
   D11       -1.02917  -0.00002   0.00000   0.00025   0.00025  -1.02892
   D12       -3.12237  -0.00012   0.00000  -0.00128  -0.00128  -3.12365
   D13       -1.02968  -0.00008   0.00000   0.00048   0.00049  -1.02919
   D14       -3.12255  -0.00020   0.00000  -0.00094  -0.00094  -3.12349
   D15        1.06744  -0.00030   0.00000  -0.00247  -0.00247   1.06496
   D16       -3.12553   0.00016   0.00000   0.00220   0.00220  -3.12333
   D17        1.06478   0.00005   0.00000   0.00077   0.00078   1.06556
   D18       -1.02842  -0.00005   0.00000  -0.00076  -0.00076  -1.02917
   D19       -1.06303  -0.00037   0.00000  -0.00047  -0.00047  -1.06351
   D20        3.12326   0.00031   0.00000   0.00460   0.00460   3.12786
   D21        1.03179   0.00024   0.00000   0.00207   0.00207   1.03386
   D22        1.03136  -0.00022   0.00000   0.00057   0.00056   1.03192
   D23       -1.06554   0.00046   0.00000   0.00563   0.00564  -1.05990
   D24        3.12619   0.00039   0.00000   0.00310   0.00310   3.12929
   D25        3.12697  -0.00044   0.00000  -0.00117  -0.00117   3.12579
   D26        1.03007   0.00025   0.00000   0.00390   0.00390   1.03397
   D27       -1.06139   0.00017   0.00000   0.00137   0.00137  -1.06003
   D28        1.04301   0.00002   0.00000   0.00121   0.00121   1.04422
   D29       -1.05155  -0.00002   0.00000   0.00072   0.00072  -1.05084
   D30        3.13614   0.00002   0.00000   0.00094   0.00094   3.13707
   D31       -1.05049  -0.00023   0.00000   0.00109   0.00110  -1.04939
   D32        3.13814  -0.00026   0.00000   0.00061   0.00060   3.13874
   D33        1.04264  -0.00022   0.00000   0.00082   0.00082   1.04346
   D34        3.13472   0.00029   0.00000   0.00165   0.00165   3.13637
   D35        1.04016   0.00025   0.00000   0.00116   0.00116   1.04132
   D36       -1.05534   0.00029   0.00000   0.00138   0.00138  -1.05396
   D37        0.17569  -0.00056   0.00000  -0.00249  -0.00249   0.17320
   D38       -1.94475  -0.00082   0.00000  -0.00846  -0.00840  -1.95316
   D39        2.29249   0.00045   0.00000   0.00821   0.00815   2.30064
   D40        2.03428  -0.00147   0.00000  -0.05197  -0.05197   1.98232
   D41       -1.04985   0.00013   0.00000  -0.00051  -0.00051  -1.05036
   D42        1.04689  -0.00012   0.00000   0.00080   0.00080   1.04770
   D43        3.13984  -0.00001   0.00000   0.00033   0.00033   3.14016
   D44        3.13871   0.00014   0.00000  -0.00041  -0.00041   3.13830
   D45       -1.04774  -0.00011   0.00000   0.00091   0.00091  -1.04683
   D46        1.04521   0.00000   0.00000   0.00044   0.00044   1.04564
   D47        1.04423   0.00013   0.00000  -0.00066  -0.00066   1.04357
   D48        3.14097  -0.00012   0.00000   0.00066   0.00065  -3.14156
   D49       -1.04928  -0.00001   0.00000   0.00018   0.00018  -1.04909
   D50        1.06184   0.00010   0.00000   0.00222   0.00223   1.06407
   D51       -1.03104  -0.00002   0.00000   0.00070   0.00070  -1.03034
   D52       -3.12425  -0.00012   0.00000  -0.00061  -0.00062  -3.12487
   D53       -1.03153  -0.00008   0.00000   0.00090   0.00090  -1.03062
   D54       -3.12441  -0.00020   0.00000  -0.00063  -0.00063  -3.12503
   D55        1.06557  -0.00030   0.00000  -0.00193  -0.00194   1.06363
   D56       -3.12740   0.00017   0.00000   0.00287   0.00287  -3.12453
   D57        1.06290   0.00005   0.00000   0.00134   0.00134   1.06424
   D58       -1.03031  -0.00005   0.00000   0.00003   0.00003  -1.03028
   D59       -1.06469  -0.00037   0.00000  -0.00033  -0.00034  -1.06503
   D60        3.12161   0.00032   0.00000   0.00472   0.00473   3.12633
   D61        1.03014   0.00025   0.00000   0.00233   0.00233   1.03247
   D62        1.02973  -0.00022   0.00000   0.00076   0.00076   1.03048
   D63       -1.06716   0.00047   0.00000   0.00582   0.00582  -1.06134
   D64        3.12456   0.00039   0.00000   0.00343   0.00343   3.12798
   D65        3.12536  -0.00044   0.00000  -0.00128  -0.00129   3.12408
   D66        1.02847   0.00025   0.00000   0.00377   0.00378   1.03225
   D67       -1.06299   0.00017   0.00000   0.00139   0.00139  -1.06161
   D68       -1.05270  -0.00002   0.00000   0.00082   0.00082  -1.05188
   D69        3.13499   0.00002   0.00000   0.00102   0.00102   3.13601
   D70        1.04186   0.00002   0.00000   0.00135   0.00136   1.04322
   D71        3.13695  -0.00026   0.00000   0.00067   0.00067   3.13762
   D72        1.04146  -0.00022   0.00000   0.00087   0.00087   1.04233
   D73       -1.05167  -0.00023   0.00000   0.00121   0.00121  -1.05046
   D74        1.03897   0.00026   0.00000   0.00150   0.00149   1.04046
   D75       -1.05653   0.00030   0.00000   0.00170   0.00170  -1.05483
   D76        3.13353   0.00029   0.00000   0.00203   0.00203   3.13557
   D77        0.17530  -0.00056   0.00000  -0.00285  -0.00285   0.17245
   D78       -1.94512  -0.00082   0.00000  -0.00875  -0.00870  -1.95382
   D79        2.29212   0.00045   0.00000   0.00769   0.00764   2.29976
         Item               Value     Threshold  Converged?
 Maximum Force            0.011842     0.000015     NO 
 RMS     Force            0.004380     0.000010     NO 
 Maximum Displacement     0.451070     0.000060     NO 
 RMS     Displacement     0.127867     0.000040     NO 
 GradGradGradGradGradGradGradGradGradGradGradGradGradGradGradGradGradGrad

                    Distance matrix (angstroms):
                    1          2          3          4          5
     1  C    0.000000
     2  C    1.535026   0.000000
     3  C    2.506639   1.535303   0.000000
     4  C    2.505364   1.535270   2.510673   0.000000
     5  C    2.507744   1.535120   2.505419   2.505781   0.000000
     6  H    1.103852   2.189018   2.761994   3.478551   2.764152
     7  H    1.103872   2.188740   2.762936   2.762002   3.480096
     8  H    1.103901   2.189371   3.479737   2.760427   2.764788
     9  H    2.772533   2.190288   1.103917   2.760606   3.479157
    10  H    2.752668   2.187950   1.103951   3.481652   2.768265
    11  H    3.479918   2.190660   1.103175   2.778052   2.754876
    12  H    2.769762   2.189987   2.761542   1.103892   3.479261
    13  H    3.477057   2.187479   2.771935   1.103118   2.753788
    14  H    2.755837   2.189920   3.482873   1.103842   2.768550
    15  H    2.762858   2.189117   2.762258   3.478862   1.103830
    16  H    2.766680   2.189749   3.479019   2.759683   1.103885
    17  H    3.480160   2.188853   2.759073   2.764452   1.104026
    18  C    7.925249   6.517567   5.749574   6.054570   6.844703
    19  C    6.515173   5.093750   4.508929   4.539061   5.464103
    20  C    5.741061   4.503004   3.698788   4.025012   5.265182
    21  C    6.064890   4.549600   4.038410   4.319477   4.526433
    22  C    6.833137   5.456937   5.265571   4.509324   5.814746
    23  H    8.016008   6.643927   5.666443   6.421338   6.959171
    24  H    8.606716   7.137515   6.491676   6.648421   7.267439
    25  H    8.446914   7.116024   6.345119   6.515925   7.612509
    26  H    5.796263   4.618108   3.494219   4.496914   5.360580
    27  H    6.404992   5.299419   4.532898   4.658116   6.207147
    28  H    4.733076   3.538757   2.936686   2.960445   4.444186
    29  H    6.122205   4.664248   3.857350   4.766389   4.624436
    30  H    5.130341   3.597647   3.363620   3.357997   3.506929
    31  H    6.899177   5.365006   5.007322   5.091383   5.096990
    32  H    7.586379   6.158085   6.054543   5.242954   6.279897
    33  H    6.027062   4.705331   4.781617   3.598824   5.085731
    34  H    7.412779   6.140920   5.904121   5.081621   6.683578
                    6          7          8          9         10
     6  H    0.000000
     7  H    1.784319   0.000000
     8  H    1.784446   1.784488   0.000000
     9  H    3.132384   2.569933   3.789660   0.000000
    10  H    2.546993   3.106069   3.773279   1.784665   0.000000
    11  H    3.776461   3.785758   4.345058   1.782394   1.783846
    12  H    3.787318   2.567142   3.128730   2.551080   3.776714
    13  H    4.341678   3.782736   3.775127   3.121037   3.792378
    14  H    3.775884   3.110469   2.550054   3.778204   4.344484
    15  H    2.559471   3.781533   3.119804   3.785645   2.565728
    16  H    3.124409   3.784878   2.564340   4.344795   3.785811
    17  H    3.781607   4.343583   3.784409   3.774244   3.127108
    18  C    8.454231   8.010268   8.603476   5.796007   6.422205
    19  C    7.119217   6.637435   7.132119   4.616895   5.311743
    20  C    6.341397   5.654562   6.480420   3.488334   4.537700
    21  C    6.531146   6.427817   6.657139   4.503323   4.678191
    22  C    7.605972   6.944211   7.251658   5.354772   6.212591
    23  H    8.417028   8.103383   8.793126   5.715422   6.178526
    24  H    9.135388   8.790139   9.214388   6.666455   7.143953
    25  H    9.039088   8.403469   9.124251   6.217935   7.077840
    26  H    6.223294   5.712036   6.664559   3.269428   4.117692
    27  H    7.066069   6.156879   7.123034   4.106184   5.391484
    28  H    5.418913   4.638520   5.427533   2.711538   3.915666
    29  H    6.419616   6.490046   6.839266   4.350956   4.274419
    30  H    5.644849   5.577679   5.641961   3.959991   4.080749
    31  H    7.356152   7.350804   7.396433   5.556764   5.593370
    32  H    8.335077   7.805835   7.933811   6.275791   6.948747
    33  H    6.873090   6.166202   6.339257   4.911001   5.794778
    34  H    8.237543   7.375793   7.837304   5.803980   6.887609
                   11         12         13         14         15
    11  H    0.000000
    12  H    3.128927   0.000000
    13  H    2.582442   1.782725   0.000000
    14  H    3.797462   1.785265   1.783822   0.000000
    15  H    3.107802   4.344153   3.775348   3.784656   0.000000
    16  H    3.775662   3.783320   3.103897   2.562866   1.784425
    17  H    2.547710   3.778815   2.552117   3.132797   1.783882
    18  C    4.746637   6.106108   5.119207   6.885886   7.430433
    19  C    3.550453   4.649538   3.586317   5.351794   6.152357
    20  C    2.943339   3.840481   3.350758   4.992406   5.906578
    21  C    2.975599   4.763309   3.354439   5.089560   5.102974
    22  C    4.452220   4.603115   3.491964   5.075287   6.687272
    23  H    4.653231   6.478439   5.568774   7.342056   7.397481
    24  H    5.443143   6.824275   5.632130   7.384296   7.860180
    25  H    5.429475   6.397651   5.630877   7.337513   8.249720
    26  H    2.721136   4.341726   3.952114   5.549363   5.813013
    27  H    3.919670   4.248878   4.063947   5.570871   6.885179
    28  H    2.378411   2.740465   2.403236   3.944474   5.164659
    29  H    2.756424   5.188238   3.955189   5.638290   4.980066
    30  H    2.416720   3.957299   2.405348   4.068223   4.190813
    31  H    3.959905   5.636125   4.066692   5.717955   5.662314
    32  H    5.179743   5.486240   4.168440   5.688597   7.141283
    33  H    4.118072   3.750628   2.596152   4.048607   6.047529
    34  H    5.171546   4.953140   4.173901   5.635495   7.575214
                   16         17         18         19         20
    16  H    0.000000
    17  H    1.784893   0.000000
    18  C    7.594665   6.042585   0.000000
    19  C    6.162316   4.716415   1.535010   0.000000
    20  C    6.051768   4.784979   2.506677   1.535295   0.000000
    21  C    5.257805   3.617841   2.505456   1.535263   2.510560
    22  C    6.276333   5.091391   2.507843   1.535120   2.505291
    23  H    7.817810   6.183455   1.103878   2.188718   2.763913
    24  H    7.946249   6.359012   1.103901   2.189369   3.479766
    25  H    8.338073   6.884904   1.103855   2.189004   2.761093
    26  H    6.279613   4.918639   2.772078   2.190372   1.103921
    27  H    6.940111   5.794908   2.753419   2.187973   1.103953
    28  H    5.170422   4.113633   3.479889   2.190554   1.103175
    29  H    5.505384   3.771892   2.770621   2.189997   2.760760
    30  H    4.181495   2.612044   3.476914   2.187168   2.772119
    31  H    5.708585   4.072513   2.755359   2.189949   3.482798
    32  H    6.663044   5.437444   2.767333   2.189776   3.478937
    33  H    5.428491   4.462935   3.480188   2.188773   2.758277
    34  H    7.133323   6.050670   2.762529   2.189124   2.762610
                   21         22         23         24         25
    21  C    0.000000
    22  C    2.505721   0.000000
    23  H    2.761157   3.480164   0.000000
    24  H    2.761519   2.764007   1.784503   0.000000
    25  H    3.478617   2.765203   1.784316   1.784451   0.000000
    26  H    2.761235   3.479128   2.570449   3.789857   3.130128
    27  H    3.481596   2.767521   3.108617   3.773369   2.546769
    28  H    2.777170   2.755109   3.786175   4.344980   3.776067
    29  H    1.103888   3.479213   2.567082   3.131449   3.787480
    30  H    1.103098   2.752555   3.782351   3.775451   4.341431
    31  H    1.103836   2.769264   3.108173   2.550655   3.776059
    32  H    2.759246   1.103882   3.784919   2.564105   3.126751
    33  H    2.764683   1.104050   4.343535   3.784089   3.782129
    34  H    3.478819   1.103832   3.781782   3.117836   2.560168
                   26         27         28         29         30
    26  H    0.000000
    27  H    1.784674   0.000000
    28  H    1.782451   1.783774   0.000000
    29  H    2.551026   3.776521   3.126723   0.000000
    30  H    3.122771   3.792030   2.581795   1.782837   0.000000
    31  H    3.778370   4.344497   3.797060   1.785299   1.783849
    32  H    4.344853   3.785523   3.775508   3.783396   3.101735
    33  H    3.773930   3.125130   2.547199   3.778508   2.551091
    34  H    3.785645   2.565411   3.109110   4.344144   3.774496
                   31         32         33         34
    31  H    0.000000
    32  H    2.563254   0.000000
    33  H    3.134431   1.784951   0.000000
    34  H    3.784997   1.784433   1.783915   0.000000
 Framework group  C1[X(C10H24)]
 Deg. of freedom    96
                         Standard orientation:                         
 ---------------------------------------------------------------------
 Center     Atomic      Atomic             Coordinates (Angstroms)
 Number     Number       Type             X           Y           Z
 ---------------------------------------------------------------------
      1          6           0        3.935290    0.444842    0.480503
      2          6           0        2.546819   -0.000144    0.000462
      3          6           0        1.764167   -0.594433    1.180051
      4          6           0        1.791014    1.210883   -0.564538
      5          6           0        2.699274   -1.063084   -1.096584
      6          1           0        4.504609   -0.407075    0.891116
      7          1           0        3.854219    1.210309    1.271719
      8          1           0        4.522559    0.876112   -0.348786
      9          1           0        1.621381    0.153083    1.979716
     10          1           0        2.299514   -1.456757    1.614229
     11          1           0        0.766210   -0.941120    0.862428
     12          1           0        1.651278    1.987637    0.207281
     13          1           0        0.792778    0.917094   -0.930710
     14          1           0        2.340718    1.664489   -1.407470
     15          1           0        3.244949   -1.945743   -0.720296
     16          1           0        3.256769   -0.664011   -1.961744
     17          1           0        1.713117   -1.404401   -1.456960
     18          6           0       -3.938472   -0.456831    0.459934
     19          6           0       -2.546931    0.000058    0.000453
     20          6           0       -1.759047    0.531312    1.206330
     21          6           0       -1.800527   -1.188148   -0.622506
     22          6           0       -2.691697    1.115441   -1.044323
     23          1           0       -3.862810   -1.261274    1.212059
     24          1           0       -4.530227   -0.841565   -0.388832
     25          1           0       -4.500270    0.378277    0.913226
     26          1           0       -1.622567   -0.254186    1.969880
     27          1           0       -2.286788    1.376876    1.680906
     28          1           0       -0.758233    0.884016    0.904724
     29          1           0       -1.664835   -2.001354    0.111560
     30          1           0       -0.801008   -0.883868   -0.976345
     31          1           0       -2.354709   -1.597716   -1.484823
     32          1           0       -3.251741    0.762274   -1.927600
     33          1           0       -1.703006    1.466683   -1.387900
     34          1           0       -3.231253    1.982844   -0.626067
 ---------------------------------------------------------------------
 Rotational constants (GHZ):           2.2131609           0.4343322           0.4343047
   188 basis functions,   346 primitive gaussians,   198 cartesian basis functions
    42 alpha electrons       42 beta electrons
       nuclear repulsion energy       576.2719327405 Hartrees.
 NAtoms=   34 NActive=   34 NUniq=   34 SFac= 1.00D+00 NAtFMM=   60 NAOKFM=F Big=F
 Nuclear repulsion after empirical dispersion term =      576.2451564040 Hartrees.
   1 Symmetry operations used in ECPInt.
 ECPInt:  NShTT=    5886 NPrTT=   23638 LenC2=    5729 LenP2D=   17042.
 LDataN:  DoStor=T MaxTD1= 4 Len=   56
 Initial guess from the checkpoint file:  "/scratch/user/peterchao1/peterchao1/6269706_1663082815000000636344719/Gau-238236.chk"
 B after Tr=     0.000000    0.000000   -0.000000
         Rot=    0.999955   -0.009402   -0.000117    0.001494 Ang=  -1.09 deg.
 ExpMin= 1.22D-01 ExpMax= 1.24D+03 ExpMxC= 1.86D+02 IAcc=3 IRadAn=         5 AccDes= 0.00D+00
 Harris functional with IExCor= 4639 and IRadAn=       5 diagonalized for initial guess.
 HarFok:  IExCor= 4639 AccDes= 0.00D+00 IRadAn=         5 IDoV= 1 UseB2=F ITyADJ=14
 ICtDFT=  3500011 ScaDFX=  1.000000  1.000000  1.000000  1.000000
 FoFCou: FMM=F IPFlag=           0 FMFlag=      100000 FMFlg1=           0
         NFxFlg=           0 DoJE=T BraDBF=F KetDBF=T FulRan=T
         wScrn=  0.000000 ICntrl=       500 IOpCl=  0 I1Cent=   200000004 NGrid=           0
         NMat0=    1 NMatS0=      1 NMatT0=    0 NMatD0=    1 NMtDS0=    0 NMtDT0=    0
 Petite list used in FoFCou.
     Accept linear search using points  2 and  3.
     Minimum is close to point  2 DX=  7.82D-02 DF= -2.12D-06 DXR=  6.64D-02 DFR=  4.43D-03 which will be used.
     Accept linear search using points  1 and  2.
     Minimum is close to point  2 DX= -7.82D-02 DF= -1.28D-06 DXR=  7.65D-02 DFR=  6.86D-03 which will be used.
     Accept linear search using points  1 and  2.
     Minimum is close to point  2 DX=  5.56D-05 DF= -1.71D-13 DXR=  5.56D-05 DFR=  2.48D-09 which will be used.
 SCF Done:  E(RwB97XD) =  -395.099732408     a.u. after    8 cycles
            Convg  =    0.7572D-09                    31 Fock formations.
              S**2 =  0.0000                  -V/T =  2.0123
 DoSCS=F DFT=T ScalE2(SS,OS)=  1.000000  1.000000
 NROrb=    188 NOA=    42 NOB=    42 NVA=   146 NVB=   146

 **** Warning!!: The largest alpha MO coefficient is  0.11895048D+02

   1 Symmetry operations used in ECPInt.
 ECPInt:  NShTT=    5886 NPrTT=   23638 LenC2=    5729 LenP2D=   17042.
 LDataN:  DoStor=T MaxTD1= 5 Len=  102
 Symmetrizing basis deriv contribution to polar:
 IMax=3 JMax=2 DiffMx= 0.00D+00
 Calling FoFCou, ICntrl=  3107 FMM=F I1Cent=   0 AccDes= 0.00D+00.
 End of G2Drv F.D. properties file   721 does not exist.
 End of G2Drv F.D. properties file   722 does not exist.
 End of G2Drv F.D. properties file   788 does not exist.
          IDoAtm=1111111111111111111111111111111111
 End of Minotr F.D. properties file   721 does not exist.
 End of Minotr F.D. properties file   722 does not exist.
 End of Minotr F.D. properties file   788 does not exist.
   1 Symmetry operations used in ECPInt.
 ECPInt:  NShTT=    5886 NPrTT=   23638 LenC2=    5729 LenP2D=   17042.
 LDataN:  DoStor=T MaxTD1= 6 Len=  172
 Calling FoFJK, ICntrl=    100127 FMM=F ISym2X=0 I1Cent= 0 IOpClX= 0 NMat=1 NMatS=1 NMatT=0.
 FormGI is forming the generalized inverse of G from B-inverse, IUseBI=4.

 GradGradGradGradGradGradGradGradGradGradGradGradGradGradGradGradGradGrad
 Using GEDIIS/GDIIS optimizer.
 Internal  Forces:  Max     0.004026777 RMS     0.000759900
 Step number   2 out of a maximum of  184
 All quantities printed in internal units (Hartrees-Bohrs-Radians)
 Mixed Optimization -- En-DIIS/RFO-DIIS
 Second derivative matrix not updated -- analytic derivatives used.
 Trust test= 9.67D-01 RLast= 2.25D-01 DXMaxT set to 5.05D-01
 ITU=  1  0
 Use linear search instead of GDIIS.
     Eigenvalues ---    0.00031   0.00045   0.00184   0.00255   0.00261
     Eigenvalues ---    0.00397   0.00398   0.00410   0.00433   0.00539
     Eigenvalues ---    0.00674   0.02276   0.02759   0.03579   0.04344
     Eigenvalues ---    0.04426   0.04493   0.04558   0.04580   0.04597
     Eigenvalues ---    0.04653   0.04666   0.04669   0.04694   0.04724
     Eigenvalues ---    0.04727   0.04736   0.04737   0.04752   0.04757
     Eigenvalues ---    0.04770   0.04776   0.04781   0.05098   0.05542
     Eigenvalues ---    0.07615   0.09074   0.09160   0.11449   0.11745
     Eigenvalues ---    0.12084   0.12320   0.12330   0.12333   0.12336
     Eigenvalues ---    0.12892   0.12898   0.13217   0.13304   0.13633
     Eigenvalues ---    0.14332   0.14363   0.14750   0.15093   0.15156
     Eigenvalues ---    0.15317   0.15576   0.15635   0.17287   0.17964
     Eigenvalues ---    0.17970   0.18211   0.19652   0.26548   0.28888
     Eigenvalues ---    0.29031   0.29046   0.29075   0.29076   0.31988
     Eigenvalues ---    0.32830   0.33081   0.33669   0.33678   0.33705
     Eigenvalues ---    0.33707   0.33761   0.33794   0.33899   0.33902
     Eigenvalues ---    0.33933   0.33948   0.33955   0.33959   0.33984
     Eigenvalues ---    0.33994   0.34009   0.34020   0.34090   0.34093
     Eigenvalues ---    0.34160   0.34194   0.34373   0.34485   0.34599
     Eigenvalues ---    0.44410
 Quintic linear search produced a step of -0.00450.
 Iteration  1 RMS(Cart)=  0.03789809 RMS(Int)=  0.00027048
 Iteration  2 RMS(Cart)=  0.00048745 RMS(Int)=  0.00000163
 Iteration  3 RMS(Cart)=  0.00000009 RMS(Int)=  0.00000162
 Variable       Old X    -DE/DX   Delta X   Delta X   Delta X     New X
                                 (Linear)    (Quad)   (Total)
    R1        2.90078   0.00013  -0.00004   0.00030   0.00025   2.90103
    R2        2.08598   0.00076  -0.00014   0.00242   0.00228   2.08826
    R3        2.08602   0.00077  -0.00014   0.00244   0.00231   2.08832
    R4        2.08607   0.00077  -0.00014   0.00241   0.00227   2.08834
    R5        2.90130  -0.00011  -0.00004   0.00005   0.00001   2.90131
    R6        2.90124   0.00114  -0.00004   0.00014   0.00010   2.90134
    R7        2.90096   0.00014  -0.00004   0.00021   0.00017   2.90113
    R8        2.08610   0.00073  -0.00013   0.00239   0.00226   2.08836
    R9        2.08617   0.00080  -0.00014   0.00240   0.00226   2.08842
   R10        2.08470   0.00007  -0.00013   0.00178   0.00165   2.08634
   R11        2.08605   0.00073  -0.00013   0.00237   0.00223   2.08829
   R12        2.08459   0.00162  -0.00013   0.00308   0.00295   2.08754
   R13        2.08596   0.00076  -0.00013   0.00256   0.00242   2.08838
   R14        2.08594   0.00075  -0.00014   0.00239   0.00225   2.08819
   R15        2.08604   0.00077  -0.00014   0.00242   0.00228   2.08832
   R16        2.08631   0.00078  -0.00014   0.00242   0.00228   2.08859
   R17        4.54545   0.00001   0.00016  -0.06995  -0.06979   4.47566
   R18        2.90075   0.00013  -0.00004   0.00034   0.00030   2.90105
   R19        2.08603   0.00077  -0.00014   0.00244   0.00230   2.08833
   R20        2.08607   0.00078  -0.00014   0.00242   0.00228   2.08835
   R21        2.08598   0.00076  -0.00014   0.00240   0.00226   2.08825
   R22        2.90129  -0.00010  -0.00004   0.00013   0.00008   2.90137
   R23        2.90123   0.00119  -0.00004   0.00015   0.00011   2.90134
   R24        2.90096   0.00016  -0.00004   0.00023   0.00019   2.90114
   R25        2.08611   0.00073  -0.00013   0.00240   0.00226   2.08837
   R26        2.08617   0.00080  -0.00014   0.00240   0.00226   2.08843
   R27        2.08470   0.00001  -0.00013   0.00179   0.00166   2.08636
   R28        2.08605   0.00073  -0.00013   0.00235   0.00222   2.08827
   R29        2.08455   0.00171  -0.00013   0.00314   0.00301   2.08756
   R30        2.08595   0.00076  -0.00013   0.00256   0.00243   2.08838
   R31        2.08603   0.00077  -0.00014   0.00242   0.00229   2.08832
   R32        2.08635   0.00073  -0.00014   0.00237   0.00224   2.08859
   R33        2.08594   0.00075  -0.00014   0.00239   0.00225   2.08820
    A1        1.93812   0.00008  -0.00004   0.00069   0.00065   1.93877
    A2        1.93771   0.00009  -0.00004   0.00076   0.00072   1.93843
    A3        1.93856   0.00011  -0.00004   0.00097   0.00093   1.93949
    A4        1.88223  -0.00009   0.00004  -0.00086  -0.00082   1.88141
    A5        1.88239  -0.00010   0.00004  -0.00082  -0.00078   1.88161
    A6        1.88243  -0.00010   0.00004  -0.00086  -0.00082   1.88161
    A7        1.91032  -0.00038  -0.00000  -0.00080  -0.00080   1.90953
    A8        1.90892  -0.00046  -0.00000  -0.00078  -0.00078   1.90813
    A9        1.91174   0.00040  -0.00000   0.00000  -0.00000   1.91174
   A10        1.91466   0.00110  -0.00000   0.00159   0.00159   1.91624
   A11        1.90886  -0.00036   0.00001   0.00041   0.00042   1.90928
   A12        1.90930  -0.00030   0.00001  -0.00043  -0.00042   1.90888
   A13        1.93947   0.00021  -0.00004   0.00043   0.00039   1.93986
   A14        1.93620  -0.00013  -0.00003   0.00031   0.00027   1.93647
   A15        1.94077   0.00016  -0.00004   0.00097   0.00093   1.94169
   A16        1.88259  -0.00007   0.00003  -0.00073  -0.00070   1.88189
   A17        1.88006  -0.00004   0.00005  -0.00073  -0.00068   1.87938
   A18        1.88225  -0.00014   0.00003  -0.00034  -0.00031   1.88194
   A19        1.93912   0.00024  -0.00004   0.00126   0.00122   1.94034
   A20        1.93646   0.00302  -0.00002   0.00476   0.00474   1.94119
   A21        1.93908  -0.00142  -0.00004  -0.00066  -0.00069   1.93839
   A22        1.88067  -0.00108   0.00005  -0.00043  -0.00039   1.88028
   A23        1.88368   0.00020   0.00003  -0.00189  -0.00186   1.88182
   A24        1.88242  -0.00106   0.00002  -0.00335  -0.00332   1.87910
   A25        1.93816   0.00009  -0.00004   0.00096   0.00092   1.93908
   A26        1.93898   0.00010  -0.00004   0.00076   0.00072   1.93970
   A27        1.93759   0.00006  -0.00003   0.00055   0.00053   1.93812
   A28        1.88241  -0.00010   0.00004  -0.00077  -0.00073   1.88168
   A29        1.88140  -0.00008   0.00004  -0.00070  -0.00067   1.88073
   A30        1.88289  -0.00010   0.00003  -0.00093  -0.00089   1.88199
   A31        2.50699   0.00222   0.00044   0.00081   0.00125   2.50824
   A32        1.93769   0.00009  -0.00004   0.00075   0.00071   1.93841
   A33        1.93857   0.00011  -0.00004   0.00096   0.00092   1.93949
   A34        1.93811   0.00008  -0.00004   0.00071   0.00067   1.93878
   A35        1.88245  -0.00010   0.00004  -0.00086  -0.00082   1.88163
   A36        1.88222  -0.00009   0.00004  -0.00088  -0.00084   1.88138
   A37        1.88240  -0.00010   0.00004  -0.00082  -0.00078   1.88162
   A38        1.91039  -0.00040  -0.00000  -0.00094  -0.00094   1.90945
   A39        1.90904  -0.00048  -0.00000  -0.00093  -0.00093   1.90811
   A40        1.91187   0.00038  -0.00000  -0.00011  -0.00012   1.91175
   A41        1.91454   0.00111  -0.00000   0.00183   0.00182   1.91637
[...]
 028,-0.00002351,-0.00005736,0.00001918,-0.00000240,0.00015873,-0.00014
 772,-0.00012168,0.00002516,-0.00001271,-0.00000150,0.00000896,-0.00000
 315,0.00000975,0.00001196,0.00001860,0.00003231,0.00002880,0.00000803,
 -0.00000393,-0.00003201,0.00000297,0.00002823,0.00000081,-0.00004578,-
 0.00003712,0.00119295,0.00064814,-0.00056791,-0.00172889,-0.01715636,-
 0.01839262,0.00007677,0.00053511,-0.00155574,-0.02429563,-0.17978465,-
 0.12945592,-0.00316641,-0.00358752,0.00363740,-0.00052762,0.00050018,0
 .00041505,-0.00001552,-0.00001473,0.00011395,0.00021167,0.00014718,0.0
 0023569,0.00016724,-0.00007537,0.00106868,0.00001489,0.00044455,0.0001
 3561,-0.00001009,-0.00004222,0.00002380,0.02945382,0.19387775,-0.00000
 033,0.00005818,0.00004470,-0.00002074,-0.00007969,-0.00007621,0.000087
 32,0.00005845,0.00001749,-0.00014368,0.00000644,-0.00005070,0.00001282
 ,0.00005035,0.00003832,0.00002683,0.00000424,0.00000911,-0.00000347,-0
 .00000049,-0.00000844,-0.00002328,0.00000594,0.00000367,-0.00006298,0.
 00005050,-0.00003144,0.00001823,0.00000855,0.00002207,-0.00007720,-0.0
 0013495,-0.00002075,0.00002951,0.00000230,0.00001012,0.00005006,0.0000
 0809,0.00001866,0.00002450,0.00001100,0.00001712,0.00005850,0.00001070
 ,0.00001308,-0.00004220,0.00002203,0.00000479,-0.00002626,-0.00008590,
 -0.00005329,-0.00024709,0.00044537,0.00063097,0.00161128,0.00939959,0.
 00812899,0.00020953,0.00076959,0.00120291,-0.02475081,-0.13119859,-0.1
 7752913,0.00097437,0.00174257,-0.00021282,-0.00013826,-0.00009018,0.00
 007451,0.00004608,-0.00012605,-0.00010830,-0.00020826,0.00007096,0.000
 12678,0.00012576,-0.00005687,-0.00008846,0.00001116,-0.00013929,0.0002
 1864,-0.00008461,-0.00004170,-0.00009088,0.02548990,0.14032065,0.18695
 496,-0.00000613,-0.00004228,0.00002730,-0.00012329,0.00011361,-0.00006
 541,0.00002103,-0.00016609,-0.00018150,-0.00017249,0.00020832,0.000095
 69,-0.00020139,0.00004117,-0.00003081,-0.00001481,-0.00001866,-0.00001
 241,0.00001429,0.00000707,-0.00000462,-0.00000473,0.00001044,0.0000155
 1,-0.00002535,0.00004899,-0.00001440,-0.00008276,0.00000408,-0.0000190
 8,-0.00054254,0.00009891,-0.00029596,0.00000926,0.00000564,-0.00005136
 ,-0.00067131,0.00077068,-0.00007231,-0.00003593,-0.00000170,0.00001666
 ,0.00004198,-0.00002695,-0.00001166,0.00005920,0.00000359,0.00001556,-
 0.00008752,-0.00001949,0.00001399,-0.00089627,-0.00427218,0.00137734,-
 0.01476239,0.00656619,0.00417631,0.00052392,0.00060266,-0.00076951,-0.
 26228209,0.07278881,0.07594046,0.00032842,0.00113340,0.00010650,0.0002
 1500,0.00010699,-0.00003840,0.00043317,-0.00002521,-0.00007828,-0.0010
 4877,0.00024153,0.00060270,-0.00001880,-0.00007585,-0.00001246,0.00015
 229,-0.00013737,-0.00013788,0.00050254,-0.00022899,0.00029901,0.006137
 17,-0.00216545,-0.00229333,0.28330212,-0.00005969,-0.00018043,-0.00003
 080,0.00009447,0.00025945,0.00002940,-0.00026622,-0.00003125,0.0000771
 5,0.00060377,-0.00027153,0.00016028,-0.00035349,0.00007886,-0.00024623
 ,-0.00004826,0.00001309,-0.00001885,0.00002613,-0.00001998,0.00003296,
 0.00002974,-0.00000487,-0.00001272,0.00011725,-0.00008095,0.00007970,0
 .00004036,-0.00002478,-0.00002398,0.00017449,0.00013183,-0.00017862,-0
 .00010108,-0.00000463,-0.00000618,0.00084169,-0.00081059,-0.00011164,-
 0.00010608,0.00002745,-0.00003963,0.00002392,-0.00003514,0.00003961,0.
 00012561,-0.00005717,0.00001133,-0.00001921,-0.00001550,0.00018191,-0.
 00225124,-0.00395881,0.00176601,-0.02298330,0.00800160,0.00755812,-0.0
 0055491,0.00113074,-0.00055271,0.07442262,-0.07323320,-0.02667428,-0.0
 0077886,0.00142492,0.00058192,0.00003415,0.00002798,0.00025459,-0.0000
 3165,-0.00011259,-0.00016252,-0.00143266,0.00061843,0.00055227,0.00012
 861,-0.00009501,0.00003587,0.00003000,0.00011106,-0.00030646,0.0002880
 1,-0.00016208,0.00015552,0.01990947,-0.00575377,-0.00465682,-0.0780773
 3,0.07734147,0.00004013,-0.00000726,-0.00013902,-0.00018127,0.00004543
 ,0.00018709,-0.00047168,0.00023241,-0.00001828,-0.00007016,-0.00002114
 ,-0.00028021,0.00007112,-0.00010200,-0.00009607,0.00000063,0.00001368,
 0.00001575,-0.00002082,0.00000430,0.00000809,0.00006051,-0.00003251,-0
 .00001729,0.00016854,-0.00008901,0.00004701,0.00022249,-0.00003977,0.0
 0006283,-0.00027834,-0.00019078,-0.00048438,-0.00001116,-0.00001213,0.
 00002017,0.00005014,0.00009827,0.00041025,0.00017195,-0.00009639,-0.00
 000342,-0.00002738,0.00002975,-0.00001034,0.00009677,-0.00002845,-0.00
 003130,-0.00002143,0.00000313,0.00021414,0.00081254,0.00258428,-0.0007
 9516,0.01035033,-0.00487357,-0.00490375,0.00078533,-0.00079188,0.00017
 613,0.07532770,-0.02580400,-0.07557744,-0.00088050,-0.00055992,0.00023
 680,-0.00033164,0.00017830,0.00022399,0.00020676,-0.00010680,0.0001828
 3,0.00096533,-0.00009571,0.00021749,0.00003859,-0.00003153,-0.00002012
 ,-0.00024667,-0.00003145,0.00013573,-0.00022951,0.00050738,-0.00016754
 ,0.02001094,-0.00489011,-0.00582383,-0.08381477,0.02673628,0.07594455,
 -0.00002183,-0.00002190,0.00009263,0.00006333,0.00002891,-0.00013721,0
 .00032859,-0.00021709,0.00002390,0.00016474,-0.00000059,0.00017089,0.0
 0000571,-0.00000353,0.00004401,-0.00001176,-0.00001121,-0.00001669,0.0
 0001630,-0.00000466,-0.00000117,-0.00004038,0.00002652,0.00001489,-0.0
 0009853,0.00005358,-0.00003124,-0.00014672,0.00002839,-0.00005288,-0.0
 0013466,0.00014831,0.00010162,-0.00004504,0.00001174,-0.00002535,-0.00
 003702,-0.00011821,-0.00016598,-0.00011288,0.00006138,-0.00000635,-0.0
 0002307,-0.00001301,-0.00001019,-0.00005551,0.00001842,0.00002511,0.00
 004278,0.00005992,-0.00011882,0.00126272,-0.00053211,0.00097896,0.0078
 5070,-0.00656424,0.01370203,-0.00146951,-0.00251079,0.00126838,-0.1125
 1235,0.05322808,-0.10140688,0.00050205,0.00040774,0.00052900,-0.000066
 86,0.00009250,-0.00000728,-0.00032646,-0.00011906,-0.00015659,0.000217
 71,0.00010663,-0.00013709,-0.00014963,0.00002965,0.,0.00071512,-0.0005
 1420,0.00070215,0.00013378,-0.00024278,0.00002264,-0.00189666,0.001228
 19,-0.00103487,-0.01122694,0.00961920,-0.02247347,0.11705551,-0.000005
 04,0.00002561,0.00002842,-0.00004665,-0.00002599,-0.00006172,0.0000081
 3,0.00003601,0.00004981,-0.00005908,-0.00003312,-0.00005718,0.00000444
 ,0.00001016,0.00000401,0.00001104,0.00000223,0.00000320,-0.00000256,0.
 00000075,-0.00000438,-0.00000870,0.00000219,-0.00000160,-0.00003925,0.
 00002294,-0.00003056,0.00002469,0.00000437,-0.00000130,0.00008096,-0.0
 0009787,-0.00001640,-0.00000951,0.00001743,-0.00001104,-0.00000255,0.0
 0003299,0.00009309,0.00006142,-0.00000404,0.00000569,0.00000815,0.0000
 0759,-0.00000769,0.00001050,-0.00000323,0.00000171,-0.00000978,-0.0000
 1017,0.00001897,0.00120749,0.00064123,-0.00054335,0.01369521,-0.009881
 03,0.01880173,-0.00379098,-0.00388040,0.00108130,0.05190799,-0.0911119
 1,0.08125320,0.00113591,0.00076127,0.00109111,-0.00013071,-0.00001831,
 -0.00009314,-0.00059144,0.00039609,-0.00010072,0.00008698,-0.00002057,
 -0.00031960,-0.00003770,0.00022011,0.00014599,0.00060678,-0.00048149,0
 .00155595,-0.00015481,0.00014385,-0.00030840,-0.01203351,0.01095535,-0
 .01707841,0.00334690,-0.00402145,0.00725867,-0.05457264,0.09642216,-0.
 00000564,0.00001381,0.00004337,-0.00003592,-0.00000521,-0.00007924,0.0
 0008751,0.00000888,0.00009364,-0.00002413,-0.00001404,-0.00000319,-0.0
 0001493,0.00001211,0.00001249,0.00000418,-0.00000297,-0.00000327,0.000
 00754,-0.00000693,0.00000205,-0.00001752,0.00000903,0.00000429,0.00001
 383,-0.00001409,0.00002494,-0.00001216,-0.00000365,0.00000920,-0.00002
 259,-0.00001812,-0.00013182,0.00003392,-0.00003246,0.00001862,-0.00001
 378,0.00004168,-0.00001040,0.00000452,-0.00000511,0.00001998,0.0000038
 3,-0.00000373,-0.00000400,-0.00000295,-0.00000182,0.00001459,-0.000009
 13,0.00000579,-0.00000933,-0.00094982,-0.00023299,0.00008902,-0.006527
 93,0.00336572,-0.01005963,0.00258930,0.00227693,-0.00016360,-0.1000454
 7,0.08216471,-0.20721810,-0.00003759,-0.00107322,0.00060599,-0.0000446
 5,0.00006236,-0.00010820,0.00085598,0.00001245,0.00013326,0.00011265,-
 0.00020841,0.00030326,0.00010871,-0.00014188,0.00044308,-0.00046680,0.
 00070781,-0.00050798,-0.00011841,-0.00005330,0.00010619,-0.00965491,0.
 00995970,-0.01423873,0.00562964,-0.00505029,0.01005033,0.10825579,-0.0
 9187953,0.21997202,-0.00001394,-0.00004805,-0.00000095,-0.00000691,0.0
 0008437,0.00000266,-0.00001108,-0.00001649,0.00001094,0.00002675,-0.00
 011005,0.00003940,-0.00003540,0.00000690,-0.00002774,-0.00001849,-0.00
 000336,-0.00001006,0.00000949,-0.00000366,0.00000796,-0.00000145,0.000
 00637,0.00000377,0.00001862,-0.00000985,0.00002444,-0.00001655,-0.0000
 1138,-0.00000593,-0.00000039,0.00003183,-0.00001875,0.00005072,-0.0000
 3040,0.00004279,0.00004394,0.00011691,-0.00010747,-0.00005587,0.000010
 65,0.00000216,-0.00000003,-0.00001724,0.00001049,-0.00000962,0.0000046
 7,0.00000813,0.00001790,-0.00000602,-0.00000954,0.00050387,-0.00012306
 ,0.00112049,-0.00289100,0.00153003,-0.00172768,0.00030948,-0.00123376,
 -0.00036070,-0.00013296,0.00048961,-0.00032116,-0.11099387,0.04680036,
 -0.10164524,-0.00003794,-0.00014597,-0.00001337,0.00025004,0.00022472,
 0.00005377,-0.00002002,-0.00009102,0.00004700,0.00032466,0.00013513,-0
 .00047068,0.00002967,0.00019939,-0.00010743,0.00036581,-0.00009676,0.0
 0025733,0.00005455,-0.00005076,0.00027352,-0.00010972,0.00007690,-0.00
 011002,0.00008482,-0.00059620,0.00001567,0.11354192,0.00000206,0.00002
 535,0.00001137,0.00001212,-0.00004952,-0.00002349,-0.00000462,0.000009
 44,-0.00000117,-0.00003542,0.00005765,-0.00000016,-0.00000624,0.000014
 92,0.00001208,0.00001191,0.00000409,0.00000478,-0.00000234,-0.00000313
 ,-0.00000218,-0.00000240,-0.00000221,-0.00000220,0.00001305,-0.0000131
 0,0.00000365,0.00000005,0.00000600,0.00000643,0.00000518,0.00000865,-0
 .00002003,-0.00001754,0.00000146,-0.00002174,0.00000614,-0.00005550,0.
 00003018,0.00001792,-0.00000330,0.00000248,0.00000602,0.00000869,-0.00
 000174,0.00000448,-0.00000671,0.00000067,0.00000059,-0.00000452,0.0000
 0588,-0.00087124,0.00098966,-0.00006776,-0.01164603,0.00857330,-0.0182
 9303,-0.00036959,-0.00322497,-0.00296043,-0.00031608,0.00139366,-0.000
 89018,0.04759710,-0.08460899,0.07898116,-0.00020552,0.00008605,0.00021
 201,0.00030162,-0.00011319,0.00015198,0.00013160,-0.00009226,0.0000857
 2,-0.00059044,0.00071048,-0.00121750,0.00017983,0.00007784,-0.00022429
 ,-0.00009136,-0.00014799,0.00007593,0.00021075,0.00024348,0.00012275,-
 0.00001510,-0.00006845,0.00010449,0.00010120,-0.00042734,0.00019167,-0
 .05079057,0.08791832,-0.00000076,0.00001015,0.00002108,0.00001950,-0.0
 0002628,-0.00003101,0.00000791,-0.00000910,0.00000871,-0.00000383,0.00
 003544,0.00002068,-0.00001468,0.00001509,0.00000618,0.00000258,-0.0000
 0285,-0.00000221,0.00000564,-0.00000549,0.00000093,-0.00001149,0.00000
 583,0.00000585,0.00003887,-0.00002551,0.00003154,-0.00002736,-0.000005
 72,0.00000847,0.00000123,0.00005364,-0.00004797,0.00001809,-0.00002832
 ,0.00000654,-0.00000901,-0.00000792,-0.00003097,-0.00002564,-0.0000013
 5,0.00001461,0.00000127,-0.00000318,-0.00000139,-0.00000832,-0.0000001
 5,0.00001240,0.00000662,-0.00000034,-0.00000796,-0.00079549,0.00119108
 ,0.00046857,-0.01063050,0.01019464,-0.01769153,0.00021101,-0.00492624,
 -0.00266195,0.00051140,0.00120532,0.00067525,-0.10113651,0.07728082,-0
 .21571058,0.00010430,-0.00007467,0.00043042,0.00077883,-0.00068532,0.0
 0005244,-0.00001998,-0.00002993,-0.00006751,-0.00095463,0.00037635,-0.
 00125173,0.00017764,-0.00008203,0.00037342,-0.00000647,0.00003514,0.00
 024254,0.00030117,-0.00003555,0.00018609,0.00003269,-0.00009362,-0.000
 02344,-0.00016419,-0.00064244,0.00052425,0.11156519,-0.08137340,0.2321
 3184,0.00000005,0.00001458,-0.00000749,0.00004941,-0.00001119,0.000045
 25,-0.00001414,0.00000087,-0.00000731,-0.00028254,-0.00001971,-0.00011
 420,-0.00000085,-0.00001120,-0.00000830,-0.00000110,-0.00000992,-0.000
 00062,0.00000026,0.00000259,0.00000568,0.00001114,-0.00000168,-0.00000
 559,-0.00000129,0.00000642,0.00000009,-0.00000158,-0.00000791,-0.00000
 616,0.00000414,0.00001077,0.00002141,0.00007162,-0.00000039,0.00002836
 ,-0.00012892,-0.00010444,-0.00007844,0.00005052,-0.00001123,0.00001382
 ,-0.00001193,-0.00000730,-0.00000592,0.00001779,0.00000029,-0.00000654
 ,-0.00000036,0.00002007,0.00001324,0.00107885,-0.00005279,-0.00002301,
 0.00273193,-0.00203035,-0.00180815,0.00068893,-0.00039322,-0.00037426,
 0.00071184,-0.00038663,-0.00039407,-0.26213734,0.07872737,0.07059325,0
 .00023500,0.00010016,0.00008564,0.00014109,-0.00025795,-0.00005158,0.0
 0016190,-0.00005360,-0.00026088,0.00024194,-0.00004671,0.00008536,-0.0
 0009252,0.00009405,-0.00000250,0.00016670,-0.00010321,0.00027809,0.000
 24958,0.00008074,-0.00003032,0.00018996,0.00023058,-0.00011998,-0.0000
 8747,-0.00000744,0.00008943,-0.01083815,0.00299195,0.00519652,0.278656
 13,0.00000651,0.00006481,0.00002197,0.00007105,-0.00009573,0.00001226,
 -0.00001812,0.00002080,-0.00001587,-0.00031038,0.00012066,-0.00011404,
 -0.00004997,0.00002801,-0.00000416,0.00002803,0.00000151,0.00001056,-0
 .00000059,-0.00001042,0.00001020,-0.00000127,-0.00000136,-0.00000801,0
 .00000841,-0.00001438,0.00001448,0.00001407,0.00000650,0.00001408,0.00
 001687,-0.00001535,-0.00002556,0.00007709,-0.00004294,0.00008594,-0.00
 005851,-0.00003563,-0.00001410,0.00006527,-0.00001124,-0.00000417,0.00
 002475,0.00000508,0.00001412,-0.00000593,-0.00000468,0.00000029,0.0000
 1897,-0.00003803,0.00000726,-0.00163635,-0.00335835,-0.00343967,0.0211
 7556,-0.00776037,-0.00536433,0.00031084,0.00050301,0.00117717,0.001550
 88,0.00070401,-0.00002475,0.07733795,-0.07709453,-0.02480642,0.0013897
 9,-0.00025414,-0.00078871,-0.00035612,0.00012892,0.00010250,0.00009878
 ,0.00021514,-0.00013626,-0.00011355,-0.00008443,0.00023972,-0.00015417
 ,-0.00002023,-0.00000535,-0.00035957,0.00041188,-0.00022822,-0.0002099
 4,0.00033209,0.00015445,-0.00079299,-0.00047743,-0.00003608,0.00001024
 ,-0.00004976,-0.00000274,0.00928565,-0.00392917,-0.00447212,-0.0848907
 4,0.08051472,0.00001692,0.00007751,0.00001540,0.00003648,-0.00012326,-
 0.00003962,0.00001876,0.00001826,-0.00000216,-0.00013246,0.00018935,-0
 .00010331,0.00002892,0.00000937,0.00004182,0.00003217,0.00000443,0.000
 01450,-0.00001109,-0.00000130,-0.00000686,-0.00000012,-0.00000645,-0.0
 0000685,-0.00001264,0.00000222,-0.00002443,0.00002229,0.00001749,0.000
 01014,0.00000306,-0.00003715,0.00000008,-0.00008510,0.00003544,-0.0000
 5563,-0.00006676,-0.00019885,0.00020032,0.00012039,-0.00001959,-0.0000
 0626,0.00000724,0.00002419,-0.00001192,0.00000967,-0.00000597,-0.00000
 777,-0.00001437,-0.00000621,0.00000796,-0.00159319,-0.00342569,-0.0033
 3304,0.02111711,-0.00615329,-0.00698323,0.00153198,-0.00006378,0.00072
 736,0.00034294,0.00114353,0.00045674,0.06908462,-0.02471561,-0.0714220
 4,0.00137009,-0.00082771,-0.00020180,0.00009336,-0.00014195,0.00021309
 ,-0.00034936,0.00011213,0.00011333,-0.00019489,0.00016876,0.00031851,0
 .00001882,0.00000337,-0.00005849,-0.00078065,-0.00003337,-0.00048231,-
 0.00010116,0.00023004,-0.00009205,-0.00036111,-0.00017103,0.00041233,-
 0.00015149,0.00000141,-0.00001877,-0.02311890,0.00754896,0.00965367,-0
 .07606450,0.03111582,0.07422339,-0.00000491,-0.00003725,-0.00000755,-0
 .00003971,0.00006582,-0.00001939,0.00002588,-0.00001961,0.00001976,0.0
 0014973,-0.00009374,0.00006643,0.00003754,-0.00001628,0.00000886,-0.00
 001570,-0.00000086,-0.00000659,-0.00000050,0.00000728,-0.00000892,-0.0
 0000007,0.00000105,0.00000461,-0.00001405,0.00001446,-0.00001699,-0.00
 000459,-0.00000043,-0.00001032,-0.00000728,0.00000522,0.00002200,-0.00
 005730,0.00002730,-0.00005946,0.00002771,0.00001887,0.00001828,-0.0000
 2354,0.00000809,-0.00000428,-0.00001285,-0.00000091,-0.00000954,-0.000
 00002,0.00000602,-0.00000146,-0.00001215,0.00002469,-0.00000790,0.0005
 4077,0.00113114,-0.00009337,-0.00293148,-0.00156086,0.00151105,-0.0001
 4571,-0.00026943,0.00050226,0.00033703,-0.00036372,-0.00125387,-0.1211
 3010,-0.10693916,0.04953545,-0.00002474,-0.00000275,-0.00015322,-0.000
 02002,0.00003962,-0.00009374,0.00028428,0.00003402,0.00020267,0.000068
 94,0.00027534,-0.00006597,0.00009273,0.00002130,-0.00060884,-0.0001123
 4,-0.00010785,0.00006836,0.00030142,-0.00047635,0.00013833,0.00038291,
 0.00024700,-0.00009101,0.00001943,-0.00009803,0.00019182,0.00956112,0.
 01337092,-0.00517160,-0.01186061,-0.02253251,0.00918295,0.12458819,0.0
 0000620,0.00001847,0.00001496,-0.00000250,-0.00003085,-0.00002100,0.00
 006581,-0.00001014,0.00001558,0.00002280,0.00001730,0.00002034,0.00003
 950,-0.00000787,0.00002616,0.00000522,-0.00000210,0.00000110,-0.000002
 09,0.00000433,-0.00000794,-0.00001039,0.00000339,0.00000467,-0.0000210
 2,0.00001658,-0.00001249,-0.00000720,0.00000436,0.00000233,0.00000049,
 -0.00001403,0.00001843,-0.00000678,0.00000774,-0.00001048,-0.00002134,
 -0.00003585,-0.00002548,-0.00001242,0.00000780,0.00000353,-0.00000058,
 0.00000517,-0.00000569,-0.00001754,0.00000881,0.00000284,-0.00000773,0
 .00000378,-0.00002441,-0.00083849,0.00046818,0.00116981,-0.01155825,-0
 .01735871,0.01005423,0.00050550,0.00066101,0.00121657,0.00024136,-0.00
 274341,-0.00488135,-0.10635103,-0.20711670,0.07385927,0.00011875,0.000
 43174,-0.00006675,-0.00001644,-0.00007030,-0.00002486,0.00079160,0.000
 01528,-0.00067669,0.00030262,0.00017198,-0.00002906,-0.00013311,0.0005
 3632,-0.00063315,0.00004381,-0.00001730,-0.00009133,-0.00101872,-0.001
 22340,0.00036625,-0.00003335,0.00025272,0.00004410,0.00018541,0.000364
 32,-0.00008216,-0.00561890,-0.00737867,0.00212803,0.00612718,0.0102410
 4,-0.00477106,0.11722162,0.22276902,0.00000195,0.00002257,0.00000889,0
 .00001314,-0.00003658,-0.00000765,0.00001953,0.00000436,0.00000128,-0.
 00005670,0.00003794,-0.00001831,-0.00000147,0.00000683,0.00000870,0.00
 001081,0.00000265,0.00000459,-0.00000245,-0.00000178,0.00000129,-0.000
 00208,-0.00000040,-0.00000337,-0.00001610,0.00000691,-0.00000761,0.000
 00795,0.00000773,0.00000298,0.00000812,-0.00002618,0.00000996,0.000006
 61,0.00000413,0.00001304,0.00001383,-0.00003830,-0.00000672,0.00001044
 ,0.00000742,-0.00000425,0.00000953,0.00000570,0.00000487,-0.00001005,0
 .00000149,-0.00000152,0.00000593,-0.00001459,-0.00001084,-0.00087397,-
 0.00002687,0.00094292,-0.01247849,-0.01763996,0.00831549,-0.00038343,-
 0.00087978,0.00139985,-0.00036866,-0.00295825,-0.00316559,0.05039713,0
 .07554406,-0.08328481,-0.00020340,0.00021246,0.00007428,0.00013676,0.0
 0008694,-0.00009133,0.00030165,0.00013861,-0.00009099,0.00020132,0.000
 12713,0.00023974,0.00011720,0.00018330,-0.00043780,-0.00001842,0.00010
 019,-0.00007249,-0.00062310,-0.00119694,0.00070201,-0.00008410,0.00008
 347,-0.00015394,0.00016575,-0.00023681,0.00008567,0.01456989,0.0175471
 3,-0.00734725,0.00291369,0.00650975,-0.00355208,-0.05378880,-0.0775843
 2,0.08644099\\0.00000008,0.00000043,-0.00000024,-0.00000001,0.00000032
 ,-0.00000010,-0.00000002,0.00000009,-0.00000001,0.00000012,0.00000028,
 -0.00000021,-0.00000018,0.00000047,0.,0.,0.00000047,-0.00000017,0.0000
 0021,0.00000033,-0.00000032,0.00000009,0.00000060,-0.00000031,0.000000
 11,-0.00000002,-0.00000010,-0.00000011,0.00000011,0.00000005,-0.000000
 10,-0.00000001,0.00000007,0.00000025,0.00000017,-0.00000030,0.00000008
 ,0.00000020,-0.00000013,0.00000014,0.00000043,-0.00000030,-0.00000027,
 0.00000049,0.00000006,-0.00000017,0.00000062,-0.00000008,-0.00000024,0
 .00000038,0.00000008,-0.00000004,-0.00000054,0.00000023,0.,-0.00000031
 ,0.00000013,0.00000013,-0.00000037,0.00000002,-0.00000017,-0.00000016,
 0.00000021,0.00000008,-0.00000022,0.,-0.00000010,-0.00000061,0.0000003
 2,-0.00000013,-0.00000051,0.00000031,0.00000008,-0.00000066,0.00000017
 ,0.00000007,-0.00000043,0.00000009,0.00000026,-0.00000048,-0.00000005,
 0.00000017,-0.00000019,-0.00000007,-0.00000024,-0.00000022,0.00000029,
 -0.00000014,0.00000002,0.00000013,-0.00000027,-0.00000012,0.00000029,0
 .,-0.00000018,0.00000007,0.00000012,-0.00000006,-0.00000008,0.00000021
 ,-0.00000033,-0.00000007\\\@


 GARBAGE IN, GARBAGE OUT
 File lengths (MBytes):  RWF=    153 Int=      0 D2E=      0 Chk=      5 Scr=      1
 Normal termination of Gaussian 16 at Tue Sep 13 12:46:35 2022.
real 8379.63
user 32952.89
sys 61.43
