 Entering Gaussian System, Link 0=g16
 Input=gaussian_test.inp
 Output=gaussian_test.log
 Initial command:
 /sw/restricted/lms/sw/Gaussian/g16_B01/g16/l1.exe "/scratch/user/peterchao1/peterchao1/7003912_1675700111000000037921663/Gau-55706.inp" -scrdir="/scratch/user/peterchao1/peterchao1/7003912_1675700111000000037921663/"
 Entering Link 1 = /sw/restricted/lms/sw/Gaussian/g16_B01/g16/l1.exe PID=     55710.
  
 Copyright (c) 1988-2017, Gaussian, Inc.  All Rights Reserved.
  
 This is part of the Gaussian(R) 16 program.  It is based on
 the Gaussian(R) 09 system (copyright 2009, Gaussian, Inc.),
 the Gaussian(R) 03 system (copyright 2003, Gaussian, Inc.),
 the Gaussian(R) 98 system (copyright 1998, Gaussian, Inc.),
 the Gaussian(R) 94 system (copyright 1995, Gaussian, Inc.),
 the Gaussian 92(TM) system (copyright 1992, Gaussian, Inc.),
 the Gaussian 90(TM) system (copyright 1990, Gaussian, Inc.),
 the Gaussian 88(TM) system (copyright 1988, Gaussian, Inc.),
 the Gaussian 86(TM) system (copyright 1986, Carnegie Mellon
 University), and the Gaussian 82(TM) system (copyright 1983,
 Carnegie Mellon University). Gaussian is a federally registered
 trademark of Gaussian, Inc.
  
 This software contains proprietary and confidential information,
 including trade secrets, belonging to Gaussian, Inc.
  
 This software is provided under written license and may be
 used, copied, transmitted, or stored only in accord with that
 written license.
  
 The following legend is applicable only to US Government
 contracts under FAR:
  
                    RESTRICTED RIGHTS LEGEND
  
 Use, reproduction and disclosure by the US Government is
 subject to restrictions as set forth in subparagraphs (a)
 and (c) of the Commercial Computer Software - Restricted
 Rights clause in FAR 52.227-19.
  
 Gaussian, Inc.
 340 Quinnipiac St., Bldg. 40, Wallingford CT 06492
  
  
 ---------------------------------------------------------------
 Warning -- This program may not be used in any manner that
 competes with the business of Gaussian, Inc. or will provide
 assistance to any competitor of Gaussian, Inc.  The licensee
 of this program is prohibited from giving any competitor of
 Gaussian, Inc. access to this program.  By using this program,
 the user acknowledges that Gaussian, Inc. is engaged in the
 business of creating and licensing software in the field of
 computational chemistry and represents and warrants to the
 licensee that it is not a competitor of Gaussian, Inc. and that
 it will not use this program in any manner prohibited above.
 ---------------------------------------------------------------
  

 Cite this work as:
 Gaussian 16, Revision B.01,
 M. J. Frisch, G. W. Trucks, H. B. Schlegel, G. E. Scuseria, 
 M. A. Robb, J. R. Cheeseman, G. Scalmani, V. Barone, 
 G. A. Petersson, H. Nakatsuji, X. Li, M. Caricato, A. V. Marenich, 
 J. Bloino, B. G. Janesko, R. Gomperts, B. Mennucci, H. P. Hratchian, 
 J. V. Ortiz, A. F. Izmaylov, J. L. Sonnenberg, D. Williams-Young, 
 F. Ding, F. Lipparini, F. Egidi, J. Goings, B. Peng, A. Petrone, 
 T. Henderson, D. Ranasinghe, V. G. Zakrzewski, J. Gao, N. Rega, 
 G. Zheng, W. Liang, M. Hada, M. Ehara, K. Toyota, R. Fukuda, 
 J. Hasegawa, M. Ishida, T. Nakajima, Y. Honda, O. Kitao, H. Nakai, 
 T. Vreven, K. Throssell, J. A. Montgomery, Jr., J. E. Peralta, 
 F. Ogliaro, M. J. Bearpark, J. J. Heyd, E. N. Brothers, K. N. Kudin, 
 V. N. Staroverov, T. A. Keith, R. Kobayashi, J. Normand, 
 K. Raghavachari, A. P. Rendell, J. C. Burant, S. S. Iyengar, 
 J. Tomasi, M. Cossi, J. M. Millam, M. Klene, C. Adamo, R. Cammi, 
 J. W. Ochterski, R. L. Martin, K. Morokuma, O. Farkas, 
 J. B. Foresman, and D. J. Fox, Gaussian, Inc., Wallingford CT, 2016.
 
 ******************************************
 Gaussian 16:  ES64L-G16RevB.01 20-Dec-2017
                 6-Feb-2023 
 ******************************************
 %nprocshared=4
 Will use up to    4 processors via shared memory.
 %mem=8000mb
 %chk=39.chk
 %nprocshared=4
 Will use up to    4 processors via shared memory.
 %mem=8000mb
 ----------------------------------------------------------------------
 #T wB97XD/def2svpp opt=tight freq int(grid=ultrafine) scf=(verytight,q
 c) Volume=tight
 ----------------------------------------------------------------------
 -------
 Monomer
 -------
 Symbolic Z-matrix:
 Charge =  0 Multiplicity = 1
 C                    -0.55774   1.41909   0.56177 
 C                    -0.43972  -0.00061   0.00199 
 C                    -1.646    -0.83638   0.45715 
 N                    -0.34188   0.10006  -1.4523 
 C                     0.86305  -0.67867   0.49537 
 N                     2.09149  -0.04977   0.05634 
 H                    -0.49032   1.40729   1.64671 
 H                    -1.51213   1.85824   0.27817 
 H                     0.23381   2.04759   0.16123 
 H                    -1.68706  -0.88845   1.54214 
 H                    -1.57588  -1.85082   0.06723 
 H                    -2.57325  -0.39166   0.09795 
 H                    -0.30016  -0.82642  -1.86489 
 H                    -1.1575    0.57104  -1.82877 
 H                     0.87864  -1.70928   0.12499 
 H                     0.8628   -0.71339   1.58745 
 H                     2.17597   0.87332   0.46889 
 H                     2.04784   0.07452  -0.95086 
 

 GradGradGradGradGradGradGradGradGradGradGradGradGradGradGradGradGradGrad
 Initialization pass.
                           ----------------------------
                           !    Initial Parameters    !
                           ! (Angstroms and Degrees)  !
 --------------------------                            --------------------------
 ! Name  Definition              Value          Derivative Info.                !
 --------------------------------------------------------------------------------
 ! R1    R(1,2)                  1.5306         estimate D2E/DX2                !
 ! R2    R(1,7)                  1.0871         estimate D2E/DX2                !
 ! R3    R(1,8)                  1.0882         estimate D2E/DX2                !
 ! R4    R(1,9)                  1.0872         estimate D2E/DX2                !
 ! R5    R(2,3)                  1.5365         estimate D2E/DX2                !
 ! R6    R(2,4)                  1.461          estimate D2E/DX2                !
 ! R7    R(2,5)                  1.5493         estimate D2E/DX2                !
 ! R8    R(3,10)                 1.087          estimate D2E/DX2                !
 ! R9    R(3,11)                 1.0891         estimate D2E/DX2                !
 ! R10   R(3,12)                 1.0893         estimate D2E/DX2                !
 ! R11   R(4,13)                 1.0151         estimate D2E/DX2                !
 ! R12   R(4,14)                 1.0143         estimate D2E/DX2                !
 ! R13   R(5,6)                  1.4482         estimate D2E/DX2                !
 ! R14   R(5,15)                 1.0953         estimate D2E/DX2                !
 ! R15   R(5,16)                 1.0926         estimate D2E/DX2                !
 ! R16   R(6,17)                 1.0146         estimate D2E/DX2                !
 ! R17   R(6,18)                 1.0158         estimate D2E/DX2                !
 ! A1    A(2,1,7)              110.4965         estimate D2E/DX2                !
 ! A2    A(2,1,8)              110.2815         estimate D2E/DX2                !
 ! A3    A(2,1,9)              110.2012         estimate D2E/DX2                !
 ! A4    A(7,1,8)              108.5947         estimate D2E/DX2                !
 ! A5    A(7,1,9)              109.196          estimate D2E/DX2                !
 ! A6    A(8,1,9)              108.0132         estimate D2E/DX2                !
 ! A7    A(1,2,3)              109.612          estimate D2E/DX2                !
 ! A8    A(1,2,4)              107.7751         estimate D2E/DX2                !
 ! A9    A(1,2,5)              110.751          estimate D2E/DX2                !
 ! A10   A(3,2,4)              112.6383         estimate D2E/DX2                !
 ! A11   A(3,2,5)              109.1333         estimate D2E/DX2                !
 ! A12   A(4,2,5)              106.9071         estimate D2E/DX2                !
 ! A13   A(2,3,10)             110.5721         estimate D2E/DX2                !
 ! A14   A(2,3,11)             110.4914         estimate D2E/DX2                !
 ! A15   A(2,3,12)             110.3979         estimate D2E/DX2                !
 ! A16   A(10,3,11)            108.3718         estimate D2E/DX2                !
 ! A17   A(10,3,12)            108.4541         estimate D2E/DX2                !
 ! A18   A(11,3,12)            108.4837         estimate D2E/DX2                !
 ! A19   A(2,4,13)             110.1483         estimate D2E/DX2                !
 ! A20   A(2,4,14)             110.3407         estimate D2E/DX2                !
 ! A21   A(13,4,14)            107.8187         estimate D2E/DX2                !
 ! A22   A(2,5,6)              115.2564         estimate D2E/DX2                !
 ! A23   A(2,5,15)             108.4276         estimate D2E/DX2                !
 ! A24   A(2,5,16)             109.3904         estimate D2E/DX2                !
 ! A25   A(6,5,15)             107.0998         estimate D2E/DX2                !
 ! A26   A(6,5,16)             108.4809         estimate D2E/DX2                !
 ! A27   A(15,5,16)            107.9442         estimate D2E/DX2                !
 ! A28   A(5,6,17)             110.0265         estimate D2E/DX2                !
 ! A29   A(5,6,18)             108.498          estimate D2E/DX2                !
 ! A30   A(17,6,18)            107.1838         estimate D2E/DX2                !
 ! D1    D(7,1,2,3)             65.1804         estimate D2E/DX2                !
 ! D2    D(7,1,2,4)           -171.9089         estimate D2E/DX2                !
 ! D3    D(7,1,2,5)            -55.2901         estimate D2E/DX2                !
 ! D4    D(8,1,2,3)            -54.8901         estimate D2E/DX2                !
 ! D5    D(8,1,2,4)             68.0206         estimate D2E/DX2                !
 ! D6    D(8,1,2,5)           -175.3607         estimate D2E/DX2                !
 ! D7    D(9,1,2,3)           -174.0507         estimate D2E/DX2                !
 ! D8    D(9,1,2,4)            -51.14           estimate D2E/DX2                !
 ! D9    D(9,1,2,5)             65.4787         estimate D2E/DX2                !
 ! D10   D(1,2,3,10)           -59.9622         estimate D2E/DX2                !
 ! D11   D(1,2,3,11)          -179.9391         estimate D2E/DX2                !
 ! D12   D(1,2,3,12)            60.0569         estimate D2E/DX2                !
 ! D13   D(4,2,3,10)          -179.9448         estimate D2E/DX2                !
 ! D14   D(4,2,3,11)            60.0783         estimate D2E/DX2                !
 ! D15   D(4,2,3,12)           -59.9257         estimate D2E/DX2                !
 ! D16   D(5,2,3,10)            61.4868         estimate D2E/DX2                !
 ! D17   D(5,2,3,11)           -58.4901         estimate D2E/DX2                !
 ! D18   D(5,2,3,12)          -178.4941         estimate D2E/DX2                !
 ! D19   D(1,2,4,13)          -177.6837         estimate D2E/DX2                !
 ! D20   D(1,2,4,14)           -58.7597         estimate D2E/DX2                !
 ! D21   D(3,2,4,13)           -56.6463         estimate D2E/DX2                !
 ! D22   D(3,2,4,14)            62.2777         estimate D2E/DX2                !
 ! D23   D(5,2,4,13)            63.2172         estimate D2E/DX2                !
 ! D24   D(5,2,4,14)          -177.8588         estimate D2E/DX2                !
 ! D25   D(1,2,5,6)            -63.476          estimate D2E/DX2                !
 ! D26   D(1,2,5,15)           176.5322         estimate D2E/DX2                !
 ! D27   D(1,2,5,16)            59.0455         estimate D2E/DX2                !
 ! D28   D(3,2,5,6)            175.769          estimate D2E/DX2                !
 ! D29   D(3,2,5,15)            55.7772         estimate D2E/DX2                !
 ! D30   D(3,2,5,16)           -61.7095         estimate D2E/DX2                !
 ! D31   D(4,2,5,6)             53.6773         estimate D2E/DX2                !
 ! D32   D(4,2,5,15)           -66.3145         estimate D2E/DX2                !
 ! D33   D(4,2,5,16)           176.1988         estimate D2E/DX2                !
 ! D34   D(2,5,6,17)            66.0609         estimate D2E/DX2                !
 ! D35   D(2,5,6,18)           -50.9093         estimate D2E/DX2                !
 ! D36   D(15,5,6,17)         -173.2209         estimate D2E/DX2                !
 ! D37   D(15,5,6,18)           69.8089         estimate D2E/DX2                !
 ! D38   D(16,5,6,17)          -56.9454         estimate D2E/DX2                !
 ! D39   D(16,5,6,18)         -173.9156         estimate D2E/DX2                !
 --------------------------------------------------------------------------------
 Number of steps in this run=     96 maximum allowed number of steps=    108.
 GradGradGradGradGradGradGradGradGradGradGradGradGradGradGradGradGradGrad

                    Distance matrix (angstroms):
                    1          2          3          4          5
     1  C    0.000000
     2  C    1.530629   0.000000
     3  C    2.506467   1.536489   0.000000
     4  N    2.417211   1.461050   2.494721   0.000000
     5  C    2.534486   1.549311   2.514291   2.419018   0.000000
     6  N    3.071061   2.532266   3.840345   2.867004   1.448217
     7  H    1.087097   2.165609   2.790114   3.366714   2.740153
     8  H    1.088180   2.163716   2.703870   2.730423   3.482027
     9  H    1.087201   2.161971   3.455218   2.593793   2.817808
    10  H    2.749763   2.171676   1.087021   3.428312   2.764558
    11  H    3.460269   2.172186   1.089057   2.763627   2.739637
    12  H    2.748852   2.171192   1.089303   2.761167   3.471084
    13  H    3.316219   2.046135   2.683881   1.015051   2.635465
    14  H    2.606451   2.047854   2.728538   1.014295   3.323552
    15  H    3.469963   2.161652   2.691860   2.692808   1.095254
    16  H    2.759963   2.172157   2.754413   3.369421   1.092634
    17  H    2.789209   2.797064   4.186966   3.260130   2.033009
    18  H    3.299238   2.664864   4.056683   2.441891   2.015587
                    6          7          8          9         10
     6  N    0.000000
     7  H    3.364233   0.000000
     8  H    4.083595   1.766448   0.000000
     9  H    2.803722   1.772286   1.760067   0.000000
    10  H    4.145892   2.591051   3.028615   3.770539   0.000000
    11  H    4.085770   3.780016   3.715598   4.299000   1.764624
    12  H    4.677433   3.158082   2.494091   3.719342   1.765739
    13  H    3.164538   4.166168   3.642656   3.556711   3.679017
    14  H    3.807225   3.636405   2.494365   2.841836   3.711286
    15  H    2.056623   3.728635   4.297258   3.811976   3.043829
    16  H    2.072286   2.516296   3.737345   3.170600   2.556260
    17  H    1.014600   2.963365   3.822110   2.290316   4.379348
    18  H    1.015778   3.868583   4.167198   2.901799   4.592583
                   11         12         13         14         15
    11  H    0.000000
    12  H    1.767720   0.000000
    13  H    2.531779   3.034573   0.000000
    14  H    3.104077   2.577480   1.639887   0.000000
    15  H    2.459278   3.694914   2.475610   3.628077   0.000000
    16  H    3.090628   3.758794   3.644704   4.171563   1.769413
    17  H    4.653885   4.928776   3.803530   4.059879   2.910520
    18  H    4.227855   4.761485   2.675862   3.360272   2.388810
                   16         17         18
    16  H    0.000000
    17  H    2.343765   0.000000
    18  H    2.910005   1.634069   0.000000
 Framework group  C1[X(C4H12N2)]
 Deg. of freedom    48
                         Standard orientation:                         
 ---------------------------------------------------------------------
 Center     Atomic      Atomic             Coordinates (Angstroms)
 Number     Number       Type             X           Y           Z
 ---------------------------------------------------------------------
      1          6           0        0.500633    1.496736   -0.298438
      2          6           0        0.408962    0.001414    0.015303
      3          6           0        1.637536   -0.721984   -0.557497
      4          7           0        0.295696   -0.144106    1.464668
      5          6           0       -0.873937   -0.611068   -0.600654
      6          7           0       -2.119937   -0.089348   -0.078519
      7          1           0        0.443362    1.664858   -1.370928
      8          1           0        1.442449    1.901665    0.066461
      9          1           0       -0.308245    2.033355    0.191217
     10          1           0        1.689601   -0.591355   -1.635384
     11          1           0        1.586333   -1.788492   -0.343061
     12          1           0        2.551407   -0.324738   -0.117477
     13          1           0        0.270740   -1.127111    1.716477
     14          1           0        1.097233    0.273883    1.924687
     15          1           0       -0.870093   -1.689148   -0.407496
     16          1           0       -0.862987   -0.462985   -1.683151
     17          1           0       -2.221068    0.887742   -0.332451
     18          1           0       -2.088210   -0.134084    0.935777
 ---------------------------------------------------------------------
 Rotational constants (GHZ):           4.5024532           2.6371415           2.5967122
   108 basis functions,   198 primitive gaussians,   114 cartesian basis functions
    25 alpha electrons       25 beta electrons
       nuclear repulsion energy       270.6868240070 Hartrees.
 NAtoms=   18 NActive=   18 NUniq=   18 SFac= 1.00D+00 NAtFMM=   60 NAOKFM=F Big=F
 Nuclear repulsion after empirical dispersion term =      270.6751852501 Hartrees.
   1 Symmetry operations used in ECPInt.
 ECPInt:  NShTT=    1830 NPrTT=    7374 LenC2=    1828 LenP2D=    6157.
 LDataN:  DoStor=T MaxTD1= 4 Len=   56
 ExpMin= 1.22D-01 ExpMax= 1.71D+03 ExpMxC= 2.58D+02 IAcc=3 IRadAn=         5 AccDes= 0.00D+00
 Harris functional with IExCor= 4639 and IRadAn=       5 diagonalized for initial guess.
 HarFok:  IExCor= 4639 AccDes= 0.00D+00 IRadAn=         5 IDoV= 1 UseB2=F ITyADJ=14
 ICtDFT=  3500011 ScaDFX=  1.000000  1.000000  1.000000  1.000000
 FoFCou: FMM=F IPFlag=           0 FMFlag=      100000 FMFlg1=           0
         NFxFlg=           0 DoJE=T BraDBF=F KetDBF=T FulRan=T
         wScrn=  0.000000 ICntrl=       500 IOpCl=  0 I1Cent=   200000004 NGrid=           0
         NMat0=    1 NMatS0=      1 NMatT0=    0 NMatD0=    1 NMtDS0=    0 NMtDT0=    0
 Petite list used in FoFCou.
     Accept linear search using points  2 and  3.
     Accept linear search using points  1 and  2.
     Minimum is close to point  2 DX=  2.46D-04 DF= -7.96D-13 DXR=  2.46D-04 DFR=  5.95D-08 which will be used.
 SCF Done:  E(RwB97XD) =  -268.842016859     a.u. after    7 cycles
            Convg  =    0.2462D-09                    34 Fock formations.
              S**2 =  0.0000                  -V/T =  2.0095

 **********************************************************************

            Population analysis using the SCF Density.

 **********************************************************************

 Orbital symmetries:
       Occupied  (A) (A) (A) (A) (A) (A) (A) (A) (A) (A) (A) (A)
                 (A) (A) (A) (A) (A) (A) (A) (A) (A) (A) (A) (A)
                 (A)
       Virtual   (A) (A) (A) (A) (A) (A) (A) (A) (A) (A) (A) (A)
                 (A) (A) (A) (A) (A) (A) (A) (A) (A) (A) (A) (A)
                 (A) (A) (A) (A) (A) (A) (A) (A) (A) (A) (A) (A)
                 (A) (A) (A) (A) (A) (A) (A) (A) (A) (A) (A) (A)
                 (A) (A) (A) (A) (A) (A) (A) (A) (A) (A) (A) (A)
                 (A) (A) (A) (A) (A) (A) (A) (A) (A) (A) (A) (A)
                 (A) (A) (A) (A) (A) (A) (A) (A) (A) (A) (A)
 The electronic state is 1-A.
 Alpha  occ. eigenvalues --  -14.41453 -14.39745 -10.32356 -10.30188 -10.27663
 Alpha  occ. eigenvalues --  -10.27655  -0.99787  -0.94746  -0.84790  -0.78228
 Alpha  occ. eigenvalues --   -0.74427  -0.64337  -0.59107  -0.57397  -0.54141
 Alpha  occ. eigenvalues --   -0.52661  -0.51336  -0.47891  -0.46583  -0.45192
 Alpha  occ. eigenvalues --   -0.44121  -0.43323  -0.41342  -0.32001  -0.30221
 Alpha virt. eigenvalues --    0.12085   0.16547   0.17526   0.17807   0.18740
 Alpha virt. eigenvalues --    0.20860   0.21606   0.23249   0.24310   0.25774
 Alpha virt. eigenvalues --    0.26306   0.28319   0.29372   0.31189   0.33344
 Alpha virt. eigenvalues --    0.33876   0.35847   0.49286   0.51794   0.55067
 Alpha virt. eigenvalues --    0.56184   0.58645   0.62227   0.63863   0.66484
 Alpha virt. eigenvalues --    0.70486   0.71792   0.72945   0.76834   0.77774
 Alpha virt. eigenvalues --    0.78195   0.79759   0.79967   0.80783   0.81557
 Alpha virt. eigenvalues --    0.83133   0.83935   0.84239   0.85381   0.86090
 Alpha virt. eigenvalues --    0.86686   0.90084   0.92839   0.98356   1.01288
 Alpha virt. eigenvalues --    1.04842   1.06128   1.11275   1.17769   1.24513
 Alpha virt. eigenvalues --    1.33161   1.33424   1.45664   1.52402   1.56292
 Alpha virt. eigenvalues --    1.77712   1.82851   1.88694   1.92022   1.94156
 Alpha virt. eigenvalues --    1.97609   2.05414   2.12241   2.14619   2.18219
 Alpha virt. eigenvalues --    2.24182   2.24368   2.25318   2.33699   2.36336
 Alpha virt. eigenvalues --    2.40009   2.44113   2.44753   2.54337   2.56096
 Alpha virt. eigenvalues --    2.61202   2.74750   2.78592   2.80248   2.82575
 Alpha virt. eigenvalues --    2.87899   3.08818   3.11919
          Condensed to atoms (all electrons):
 Mulliken charges:
               1
     1  C   -0.260845
     2  C   -0.174508
     3  C   -0.234170
     4  N   -0.488532
     5  C   -0.038598
     6  N   -0.496586
     7  H    0.110541
     8  H    0.107245
     9  H    0.111940
    10  H    0.106933
    11  H    0.103044
    12  H    0.102976
    13  H    0.214072
    14  H    0.216229
    15  H    0.088226
    16  H    0.095912
    17  H    0.214098
    18  H    0.222023
 Sum of Mulliken charges =   0.00000
 Mulliken charges with hydrogens summed into heavy atoms:
               1
     1  C    0.068881
     2  C   -0.174508
     3  C    0.078783
     4  N   -0.058231
     5  C    0.145541
     6  N   -0.060465
 Electronic spatial extent (au):  <R**2>=            643.3652
 Charge=              0.0000 electrons
 Dipole moment (field-independent basis, Debye):
    X=              2.1643    Y=              0.2724    Z=              0.4341  Tot=              2.2241
 Evaluate density.
 Using the total density.
 Monte-Carlo method of calculating molar volume:
 based on  0.001 e/bohr**3 density envelope.
 Number of points per bohr**3 =  100 CutOff= 1.00D-04
 Using the SCF density.
 There are      1735 points.  Will hold      1735 in memory.
 LenV=  1048358829 MDV=  1048576000.
 Box volume = 5227.711 fraction occupied=0.173
 Integrated density= 9.6817970086694814D+01 error= 4.6817970086694814D+01
 Molar volume =  903.927 bohr**3/mol ( 80.665 cm**3/mol)
 Recommended a0 for SCRF calculation =  3.99 angstrom (  7.55 bohr)
   1 Symmetry operations used in ECPInt.
 ECPInt:  NShTT=    1830 NPrTT=    7374 LenC2=    1828 LenP2D=    6157.
 LDataN:  DoStor=T MaxTD1= 5 Len=  102
 Calling FoFJK, ICntrl=      2127 FMM=F ISym2X=0 I1Cent= 0 IOpClX= 0 NMat=1 NMatS=1 NMatT=0.

 GradGradGradGradGradGradGradGradGradGradGradGradGradGradGradGradGradGrad
 FormGI is forming the generalized inverse of G from B-inverse, IUseBI=4.
 Internal  Forces:  Max     0.012135329 RMS     0.003554025
 Step number   1 out of a maximum of   96
 All quantities printed in internal units (Hartrees-Bohrs-Radians)
 Mixed Optimization -- RFO/linear search
 Second derivative matrix not updated -- first step.
 ITU=  0
     Eigenvalues ---    0.00230   0.00283   0.00361   0.00884   0.01054
     Eigenvalues ---    0.03944   0.04271   0.04642   0.04659   0.05176
     Eigenvalues ---    0.05393   0.05556   0.05568   0.05606   0.05680
     Eigenvalues ---    0.05790   0.09875   0.13127   0.14722   0.15493
     Eigenvalues ---    0.16000   0.16000   0.16000   0.16000   0.16000
     Eigenvalues ---    0.16000   0.16000   0.16000   0.16000   0.16000
     Eigenvalues ---    0.22053   0.27710   0.28832   0.29365   0.34212
     Eigenvalues ---    0.34510   0.34893   0.34922   0.35024   0.35138
     Eigenvalues ---    0.35150   0.35159   0.36833   0.38479   0.45019
     Eigenvalues ---    0.45137   0.45211   0.45261
 Linear search not attempted -- first point.
 Iteration  1 RMS(Cart)=  0.05854344 RMS(Int)=  0.00157173
 Iteration  2 RMS(Cart)=  0.00201531 RMS(Int)=  0.00008644
 Iteration  3 RMS(Cart)=  0.00000187 RMS(Int)=  0.00008642
 Iteration  4 RMS(Cart)=  0.00000000 RMS(Int)=  0.00008642
 Variable       Old X    -DE/DX   Delta X   Delta X   Delta X     New X
                                 (Linear)    (Quad)   (Total)
    R1        2.89247   0.00149   0.00000   0.00501   0.00501   2.89748
    R2        2.05432   0.01133   0.00000   0.03184   0.03184   2.08616
    R3        2.05636   0.01133   0.00000   0.03196   0.03196   2.08832
    R4        2.05451   0.01037   0.00000   0.02916   0.02916   2.08367
    R5        2.90354   0.00149   0.00000   0.00510   0.00510   2.90865
    R6        2.76098   0.00434   0.00000   0.01165   0.01165   2.77264
    R7        2.92777   0.00112   0.00000   0.00400   0.00400   2.93177
    R8        2.05417   0.01214   0.00000   0.03411   0.03411   2.08828
    R9        2.05802   0.01079   0.00000   0.03053   0.03053   2.08855
   R10        2.05849   0.01048   0.00000   0.02968   0.02968   2.08816
   R11        1.91817   0.00567   0.00000   0.01244   0.01244   1.93061
   R12        1.91674   0.00530   0.00000   0.01161   0.01161   1.92835
   R13        2.73673   0.00325   0.00000   0.00836   0.00836   2.74509
   R14        2.06973   0.00792   0.00000   0.02288   0.02288   2.09261
   R15        2.06478   0.00776   0.00000   0.02222   0.02222   2.08700
   R16        1.91732   0.00408   0.00000   0.00893   0.00893   1.92625
   R17        1.91954   0.00416   0.00000   0.00915   0.00915   1.92870
    A1        1.92853   0.00140   0.00000   0.00838   0.00836   1.93689
    A2        1.92478   0.00134   0.00000   0.00740   0.00739   1.93216
    A3        1.92337   0.00043   0.00000   0.00353   0.00351   1.92688
    A4        1.89534  -0.00163   0.00000  -0.01165  -0.01167   1.88367
    A5        1.90583  -0.00079   0.00000  -0.00340  -0.00342   1.90241
    A6        1.88519  -0.00086   0.00000  -0.00488  -0.00489   1.88029
    A7        1.91309   0.00052   0.00000   0.00189   0.00188   1.91497
    A8        1.88103   0.00028   0.00000   0.00477   0.00478   1.88581
    A9        1.93297  -0.00065   0.00000  -0.00434  -0.00435   1.92862
   A10        1.96591  -0.00067   0.00000  -0.00464  -0.00463   1.96127
   A11        1.90474  -0.00018   0.00000  -0.00365  -0.00365   1.90108
   A12        1.86588   0.00069   0.00000   0.00598   0.00598   1.87186
   A13        1.92985   0.00248   0.00000   0.01629   0.01625   1.94609
   A14        1.92844   0.00038   0.00000   0.00156   0.00154   1.92998
   A15        1.92681   0.00064   0.00000   0.00343   0.00341   1.93021
   A16        1.89144  -0.00138   0.00000  -0.00756  -0.00759   1.88385
   A17        1.89288  -0.00144   0.00000  -0.00730  -0.00735   1.88553
   A18        1.89340  -0.00080   0.00000  -0.00721  -0.00720   1.88620
   A19        1.92245   0.00089   0.00000   0.00390   0.00390   1.92635
   A20        1.92581   0.00216   0.00000   0.01164   0.01164   1.93745
   A21        1.88179  -0.00184   0.00000  -0.01422  -0.01423   1.86756
   A22        2.01160   0.00427   0.00000   0.02569   0.02555   2.03716
   A23        1.89242  -0.00260   0.00000  -0.01539  -0.01587   1.87655
   A24        1.90922  -0.00098   0.00000  -0.00758  -0.00777   1.90145
   A25        1.86924   0.00106   0.00000   0.02161   0.02162   1.89087
   A26        1.89335  -0.00118   0.00000  -0.00038  -0.00031   1.89304
   A27        1.88398  -0.00079   0.00000  -0.02698  -0.02721   1.85678
   A28        1.92032   0.00294   0.00000   0.01691   0.01690   1.93723
   A29        1.89365   0.00083   0.00000   0.00403   0.00402   1.89766
   A30        1.87071  -0.00201   0.00000  -0.01441  -0.01443   1.85628
    D1        1.13761  -0.00041   0.00000  -0.03792  -0.03793   1.09969
    D2       -3.00038  -0.00074   0.00000  -0.03943  -0.03943  -3.03980
    D3       -0.96499  -0.00011   0.00000  -0.03184  -0.03185  -0.99684
    D4       -0.95801  -0.00015   0.00000  -0.03357  -0.03358  -0.99159
    D5        1.18718  -0.00048   0.00000  -0.03509  -0.03508   1.15211
    D6       -3.06062   0.00015   0.00000  -0.02749  -0.02750  -3.08812
    D7       -3.03776  -0.00020   0.00000  -0.03440  -0.03440  -3.07216
    D8       -0.89256  -0.00053   0.00000  -0.03591  -0.03590  -0.92847
    D9        1.14282   0.00010   0.00000  -0.02832  -0.02832   1.11450
   D10       -1.04654   0.00025   0.00000   0.00254   0.00254  -1.04400
   D11       -3.14053   0.00013   0.00000   0.00042   0.00042  -3.14011
   D12        1.04819   0.00047   0.00000   0.00619   0.00621   1.05440
   D13       -3.14063  -0.00002   0.00000  -0.00176  -0.00176   3.14080
   D14        1.04856  -0.00015   0.00000  -0.00388  -0.00389   1.04468
   D15       -1.04590   0.00020   0.00000   0.00189   0.00191  -1.04399
   D16        1.07315  -0.00034   0.00000  -0.00392  -0.00394   1.06921
   D17       -1.02085  -0.00046   0.00000  -0.00604  -0.00606  -1.02690
   D18       -3.11531  -0.00012   0.00000  -0.00027  -0.00027  -3.11558
   D19       -3.10117   0.00041   0.00000   0.03747   0.03749  -3.06368
   D20       -1.02555   0.00004   0.00000   0.02961   0.02962  -0.99593
   D21       -0.98866   0.00083   0.00000   0.04018   0.04017  -0.94849
   D22        1.08695   0.00046   0.00000   0.03231   0.03231   1.11926
   D23        1.10335   0.00066   0.00000   0.03685   0.03684   1.14018
   D24       -3.10422   0.00029   0.00000   0.02899   0.02897  -3.07525
   D25       -1.10787   0.00095   0.00000   0.08670   0.08667  -1.02120
   D26        3.08107  -0.00130   0.00000   0.05338   0.05355   3.13462
   D27        1.03054   0.00169   0.00000   0.09872   0.09861   1.12915
   D28        3.06775   0.00083   0.00000   0.08946   0.08940  -3.12604
   D29        0.97350  -0.00142   0.00000   0.05613   0.05628   1.02978
   D30       -1.07703   0.00157   0.00000   0.10147   0.10135  -0.97568
   D31        0.93685   0.00133   0.00000   0.09356   0.09352   1.03036
   D32       -1.15741  -0.00091   0.00000   0.06024   0.06040  -1.09701
   D33        3.07525   0.00207   0.00000   0.10558   0.10546  -3.10247
   D34        1.15298   0.00062   0.00000   0.03315   0.03301   1.18599
   D35       -0.88853   0.00090   0.00000   0.03867   0.03851  -0.85002
   D36       -3.02328   0.00079   0.00000   0.04571   0.04594  -2.97733
   D37        1.21839   0.00107   0.00000   0.05122   0.05144   1.26984
   D38       -0.99389  -0.00018   0.00000   0.02527   0.02520  -0.96869
   D39       -3.03540   0.00010   0.00000   0.03079   0.03070  -3.00471
         Item               Value     Threshold  Converged?
 Maximum Force            0.012135     0.000015     NO 
 RMS     Force            0.003554     0.000010     NO 
 Maximum Displacement     0.233312     0.000060     NO 
 RMS     Displacement     0.058610     0.000040     NO 
 GradGradGradGradGradGradGradGradGradGradGradGradGradGradGradGradGradGrad

                    Distance matrix (angstroms):
                    1          2          3          4          5
     1  C    0.000000
     2  C    1.533282   0.000000
     3  C    2.512504   1.539189   0.000000
     4  N    2.428514   1.467216   2.498199   0.000000
     5  C    2.534588   1.551426   2.514938   2.430974   0.000000
     6  N    3.052172   2.558075   3.858979   2.957017   1.452640
     7  H    1.103947   2.186662   2.792476   3.398318   2.767223
     8  H    1.105090   2.184102   2.738287   2.738553   3.502585
     9  H    1.102630   2.178413   3.477652   2.629515   2.812994
    10  H    2.776273   2.199368   1.105071   3.457094   2.783818
    11  H    3.481223   2.187812   1.105212   2.771712   2.749863
    12  H    2.767306   2.187830   1.105008   2.771530   3.488352
    13  H    3.332701   2.059144   2.675043   1.021635   2.671990
    14  H    2.617215   2.065791   2.757016   1.020441   3.343301
    15  H    3.475024   2.160428   2.708235   2.666450   1.107364
    16  H    2.803393   2.176955   2.703677   3.388059   1.104391
    17  H    2.806787   2.857144   4.211194   3.412683   2.051884
    18  H    3.233289   2.688249   4.107698   2.545309   2.025805
                    6          7          8          9         10
     6  N    0.000000
     7  H    3.345624   0.000000
     8  H    4.088736   1.786312   0.000000
     9  H    2.768767   1.796407   1.783053   0.000000
    10  H    4.153433   2.600714   3.086855   3.807017   0.000000
    11  H    4.131750   3.802531   3.761895   4.334083   1.787439
    12  H    4.718342   3.164760   2.530787   3.761826   1.788365
    13  H    3.307217   4.202949   3.650756   3.602384   3.697261
    14  H    3.887012   3.662103   2.493626   2.875550   3.759708
    15  H    2.085344   3.772921   4.320196   3.805374   3.094513
    16  H    2.084699   2.583659   3.792905   3.229048   2.509450
    17  H    1.019327   2.942177   3.863190   2.314656   4.371264
    18  H    1.020622   3.811594   4.125893   2.785543   4.631592
                   11         12         13         14         15
    11  H    0.000000
    12  H    1.788911   0.000000
    13  H    2.519152   3.021378   0.000000
    14  H    3.141649   2.608007   1.641575   0.000000
    15  H    2.475125   3.718940   2.465458   3.620651   0.000000
    16  H    3.028495   3.735521   3.660064   4.197833   1.770854
    17  H    4.703058   4.984134   3.988217   4.201761   2.945657
    18  H    4.329418   4.828131   2.876903   3.441656   2.443026
                   16         17         18
    16  H    0.000000
    17  H    2.360561   0.000000
    18  H    2.928320   1.632993   0.000000
 Framework group  C1[X(C4H12N2)]
 Deg. of freedom    48
                         Standard orientation:                         
 ---------------------------------------------------------------------
 Center     Atomic      Atomic             Coordinates (Angstroms)
 Number     Number       Type             X           Y           Z
 ---------------------------------------------------------------------
      1          6           0        0.438100    1.500673   -0.317783
      2          6           0        0.412192    0.004669    0.017257
      3          6           0        1.633407   -0.689645   -0.611763
      4          7           0        0.381870   -0.133658    1.477623
      5          6           0       -0.880070   -0.653338   -0.534111
      6          7           0       -2.142065   -0.109769   -0.062874
      7          1           0        0.356707    1.663248   -1.406655
      8          1           0        1.382048    1.961610    0.025325
      9          1           0       -0.392720    2.021869    0.186088
     10          1           0        1.641558   -0.577331   -1.711082
     11          1           0        1.628007   -1.770283   -0.380060
     12          1           0        2.571395   -0.259119   -0.216963
     13          1           0        0.438506   -1.118648    1.742812
     14          1           0        1.179302    0.337120    1.906308
     15          1           0       -0.844419   -1.728701   -0.272236
     16          1           0       -0.866695   -0.600696   -1.637166
     17          1           0       -2.286985    0.835543   -0.415594
     18          1           0       -2.107115   -0.034781    0.954388
 ---------------------------------------------------------------------
 Rotational constants (GHZ):           4.4518017           2.5993211           2.5642110
   108 basis functions,   198 primitive gaussians,   114 cartesian basis functions
    25 alpha electrons       25 beta electrons
       nuclear repulsion energy       269.0042929828 Hartrees.
 NAtoms=   18 NActive=   18 NUniq=   18 SFac= 1.00D+00 NAtFMM=   60 NAOKFM=F Big=F
 Nuclear repulsion after empirical dispersion term =      268.9926836084 Hartrees.
   1 Symmetry operations used in ECPInt.
 ECPInt:  NShTT=    1830 NPrTT=    7374 LenC2=    1828 LenP2D=    6143.
 LDataN:  DoStor=T MaxTD1= 4 Len=   56
 Initial guess from the checkpoint file:  "39.chk"
 B after Tr=     0.000000    0.000000    0.000000
         Rot=    0.999806    0.008053   -0.014183   -0.011053 Ang=   2.26 deg.
 ExpMin= 1.22D-01 ExpMax= 1.71D+03 ExpMxC= 2.58D+02 IAcc=3 IRadAn=         5 AccDes= 0.00D+00
 Harris functional with IExCor= 4639 and IRadAn=       5 diagonalized for initial guess.
 HarFok:  IExCor= 4639 AccDes= 0.00D+00 IRadAn=         5 IDoV= 1 UseB2=F ITyADJ=14
 ICtDFT=  3500011 ScaDFX=  1.000000  1.000000  1.000000  1.000000
 FoFCou: FMM=F IPFlag=           0 FMFlag=      100000 FMFlg1=           0
         NFxFlg=           0 DoJE=T BraDBF=F KetDBF=T FulRan=T
         wScrn=  0.000000 ICntrl=       500 IOpCl=  0 I1Cent=   200000004 NGrid=           0
         NMat0=    1 NMatS0=      1 NMatT0=    0 NMatD0=    1 NMtDS0=    0 NMtDT0=    0
 Petite list used in FoFCou.
     Minimum is close to point  4 DX=  1.13D-01 DF= -2.59D-05 DXR=  8.60D-02 DFR=  7.44D-03 which will be used.
     Accept linear search using points  2 and  3.
     Accept linear search using points  1 and  2.
     Minimum is close to point  2 DX= -9.82D-02 DF= -2.88D-06 DXR=  8.91D-02 DFR=  1.05D-02 which will be used.
     Accept linear search using points  1 and  2.
     Accept linear search using points  1 and  2.
     Minimum is close to point  2 DX= -2.02D-04 DF= -4.15D-12 DXR=  2.02D-04 DFR=  4.11D-08 which will be used.
 SCF Done:  E(RwB97XD) =  -268.844049017     a.u. after    7 cycles
            Convg  =    0.2037D-08                    32 Fock formations.
              S**2 =  0.0000                  -V/T =  2.0104
   1 Symmetry operations used in ECPInt.
 ECPInt:  NShTT=    1830 NPrTT=    7374 LenC2=    1828 LenP2D=    6143.
 LDataN:  DoStor=T MaxTD1= 5 Len=  102
 Calling FoFJK, ICntrl=      2127 FMM=F ISym2X=0 I1Cent= 0 IOpClX= 0 NMat=1 NMatS=1 NMatT=0.

 GradGradGradGradGradGradGradGradGradGradGradGradGradGradGradGradGradGrad
 Using GEDIIS/GDIIS optimizer.
 FormGI is forming the generalized inverse of G from B-inverse, IUseBI=4.
 Internal  Forces:  Max     0.003701681 RMS     0.000655292
 Step number   2 out of a maximum of   96
 All quantities printed in internal units (Hartrees-Bohrs-Radians)
 Mixed Optimization -- En-DIIS/RFO-DIIS
 Trust test= 8.84D-01 RLast= 3.21D-01 DXMaxT set to 5.05D-01
 ITU=  1  0
 Use linear search instead of GDIIS.
     Eigenvalues ---    0.00265   0.00284   0.00363   0.00874   0.01038
     Eigenvalues ---    0.03779   0.04217   0.04580   0.04698   0.05165
     Eigenvalues ---    0.05368   0.05437   0.05531   0.05536   0.05618
     Eigenvalues ---    0.05799   0.10103   0.13358   0.14811   0.15445
     Eigenvalues ---    0.15683   0.16000   0.16000   0.16000   0.16000
     Eigenvalues ---    0.16000   0.16000   0.16000   0.16000   0.16279
     Eigenvalues ---    0.22276   0.27554   0.28826   0.29237   0.32443
     Eigenvalues ---    0.34292   0.34582   0.34905   0.34973   0.35084
     Eigenvalues ---    0.35143   0.35155   0.37011   0.40456   0.44738
     Eigenvalues ---    0.45178   0.45233   0.45302
 Quartic linear search produced a step of -0.01254.
 Iteration  1 RMS(Cart)=  0.02285426 RMS(Int)=  0.00029316
 Iteration  2 RMS(Cart)=  0.00032167 RMS(Int)=  0.00000979
 Iteration  3 RMS(Cart)=  0.00000006 RMS(Int)=  0.00000979
 Variable       Old X    -DE/DX   Delta X   Delta X   Delta X     New X
                                 (Linear)    (Quad)   (Total)
    R1        2.89748  -0.00167  -0.00006  -0.00514  -0.00520   2.89228
    R2        2.08616  -0.00000  -0.00040   0.00288   0.00248   2.08864
    R3        2.08832   0.00016  -0.00040   0.00336   0.00295   2.09127
    R4        2.08367  -0.00009  -0.00037   0.00239   0.00203   2.08570
    R5        2.90865  -0.00104  -0.00006  -0.00310  -0.00316   2.90548
    R6        2.77264  -0.00146  -0.00015  -0.00285  -0.00300   2.76964
    R7        2.93177  -0.00203  -0.00005  -0.00686  -0.00691   2.92486
    R8        2.08828  -0.00006  -0.00043   0.00292   0.00249   2.09077
    R9        2.08855   0.00021  -0.00038   0.00337   0.00298   2.09153
   R10        2.08816   0.00006  -0.00037   0.00285   0.00247   2.09064
   R11        1.93061  -0.00014  -0.00016   0.00082   0.00067   1.93128
   R12        1.92835   0.00012  -0.00015   0.00131   0.00116   1.92952
   R13        2.74509  -0.00370  -0.00010  -0.00873  -0.00884   2.73626
   R14        2.09261   0.00023  -0.00029   0.00273   0.00244   2.09506
   R15        2.08700   0.00023  -0.00028   0.00266   0.00238   2.08938
   R16        1.92625   0.00004  -0.00011   0.00089   0.00078   1.92703
   R17        1.92870   0.00100  -0.00011   0.00302   0.00290   1.93160
    A1        1.93689   0.00001  -0.00010   0.00031   0.00021   1.93710
    A2        1.93216   0.00045  -0.00009   0.00361   0.00352   1.93568
    A3        1.92688   0.00023  -0.00004   0.00210   0.00205   1.92893
    A4        1.88367  -0.00032   0.00015  -0.00373  -0.00358   1.88009
    A5        1.90241  -0.00016   0.00004  -0.00160  -0.00155   1.90086
    A6        1.88029  -0.00024   0.00006  -0.00093  -0.00088   1.87942
    A7        1.91497  -0.00004  -0.00002   0.00444   0.00441   1.91938
    A8        1.88581  -0.00038  -0.00006  -0.00491  -0.00499   1.88082
    A9        1.92862   0.00048   0.00005   0.00237   0.00238   1.93100
   A10        1.96127   0.00064   0.00006   0.00470   0.00477   1.96605
   A11        1.90108   0.00004   0.00005   0.00252   0.00256   1.90365
   A12        1.87186  -0.00075  -0.00007  -0.00939  -0.00947   1.86239
   A13        1.94609   0.00074  -0.00020   0.00654   0.00633   1.95243
   A14        1.92998   0.00022  -0.00002   0.00119   0.00117   1.93115
   A15        1.93021   0.00011  -0.00004   0.00073   0.00069   1.93090
   A16        1.88385  -0.00046   0.00010  -0.00305  -0.00297   1.88088
   A17        1.88553  -0.00039   0.00009  -0.00251  -0.00242   1.88311
   A18        1.88620  -0.00028   0.00009  -0.00336  -0.00327   1.88293
   A19        1.92635  -0.00032  -0.00005  -0.00267  -0.00272   1.92363
   A20        1.93745  -0.00046  -0.00015  -0.00280  -0.00296   1.93449
   A21        1.86756   0.00022   0.00018  -0.00197  -0.00180   1.86576
   A22        2.03716  -0.00115  -0.00032  -0.00239  -0.00274   2.03442
   A23        1.87655   0.00069   0.00020  -0.00088  -0.00070   1.87585
   A24        1.90145   0.00032   0.00010   0.00474   0.00482   1.90627
   A25        1.89087  -0.00032  -0.00027  -0.00612  -0.00640   1.88447
   A26        1.89304   0.00088   0.00000   0.00977   0.00977   1.90280
   A27        1.85678  -0.00040   0.00034  -0.00584  -0.00547   1.85130
   A28        1.93723  -0.00087  -0.00021  -0.00326  -0.00348   1.93375
   A29        1.89766  -0.00040  -0.00005  -0.00152  -0.00157   1.89609
   A30        1.85628   0.00072   0.00018   0.00433   0.00451   1.86079
    D1        1.09969  -0.00020   0.00048  -0.03120  -0.03072   1.06897
    D2       -3.03980   0.00033   0.00049  -0.02579  -0.02530  -3.06510
    D3       -0.99684  -0.00053   0.00040  -0.03866  -0.03827  -1.03511
    D4       -0.99159  -0.00010   0.00042  -0.02910  -0.02867  -1.02026
    D5        1.15211   0.00043   0.00044  -0.02370  -0.02326   1.12885
    D6       -3.08812  -0.00043   0.00034  -0.03657  -0.03623  -3.12434
    D7       -3.07216  -0.00024   0.00043  -0.03159  -0.03116  -3.10332
    D8       -0.92847   0.00029   0.00045  -0.02619  -0.02574  -0.95421
    D9        1.11450  -0.00057   0.00036  -0.03906  -0.03871   1.07579
   D10       -1.04400  -0.00018  -0.00003   0.01233   0.01230  -1.03170
   D11       -3.14011  -0.00024  -0.00001   0.01105   0.01105  -3.12907
   D12        1.05440  -0.00010  -0.00008   0.01400   0.01393   1.06833
   D13        3.14080  -0.00010   0.00002   0.01241   0.01243  -3.12996
   D14        1.04468  -0.00016   0.00005   0.01113   0.01118   1.05586
   D15       -1.04399  -0.00002  -0.00002   0.01409   0.01406  -1.02993
   D16        1.06921   0.00041   0.00005   0.01955   0.01959   1.08881
   D17       -1.02690   0.00035   0.00008   0.01827   0.01834  -1.00856
   D18       -3.11558   0.00048   0.00000   0.02122   0.02122  -3.09435
   D19       -3.06368   0.00028  -0.00047   0.02650   0.02605  -3.03763
   D20       -0.99593   0.00006  -0.00037   0.02058   0.02024  -0.97569
   D21       -0.94849   0.00039  -0.00050   0.03169   0.03119  -0.91730
   D22        1.11926   0.00016  -0.00041   0.02578   0.02538   1.14464
   D23        1.14018   0.00033  -0.00046   0.03147   0.03099   1.17117
   D24       -3.07525   0.00011  -0.00036   0.02556   0.02517  -3.05008
   D25       -1.02120  -0.00020  -0.00109  -0.02551  -0.02659  -1.04779
   D26        3.13462   0.00046  -0.00067  -0.01515  -0.01582   3.11880
   D27        1.12915   0.00040  -0.00124  -0.01025  -0.01148   1.11768
   D28       -3.12604  -0.00048  -0.00112  -0.03406  -0.03519   3.12196
   D29        1.02978   0.00018  -0.00071  -0.02371  -0.02442   1.00536
   D30       -0.97568   0.00013  -0.00127  -0.01880  -0.02007  -0.99576
   D31        1.03036  -0.00083  -0.00117  -0.03559  -0.03676   0.99360
   D32       -1.09701  -0.00017  -0.00076  -0.02523  -0.02599  -1.12300
   D33       -3.10247  -0.00022  -0.00132  -0.02033  -0.02165  -3.12412
   D34        1.18599   0.00049  -0.00041   0.03588   0.03546   1.22145
   D35       -0.85002   0.00035  -0.00048   0.03340   0.03292  -0.81710
   D36       -2.97733   0.00035  -0.00058   0.02820   0.02764  -2.94969
   D37        1.26984   0.00021  -0.00065   0.02573   0.02510   1.29493
   D38       -0.96869   0.00017  -0.00032   0.02323   0.02290  -0.94579
   D39       -3.00471   0.00003  -0.00038   0.02076   0.02036  -2.98435
         Item               Value     Threshold  Converged?
 Maximum Force            0.003702     0.000015     NO 
 RMS     Force            0.000655     0.000010     NO 
 Maximum Displacement     0.080278     0.000060     NO 
 RMS     Displacement     0.022854     0.000040     NO 
 GradGradGradGradGradGradGradGradGradGradGradGradGradGradGradGradGradGrad

                    Distance matrix (angstroms):
                    1          2          3          4          5
     1  C    0.000000
     2  C    1.530528   0.000000
     3  C    2.512777   1.537516   0.000000
     4  N    2.420597   1.465629   2.499470   0.000000
     5  C    2.531403   1.547769   2.512892   2.418249   0.000000
     6  N    3.058518   2.548843   3.850901   2.917272   1.447965
     7  H    1.105261   2.185380   2.780035   3.393952   2.783415
     8  H    1.106653   2.185407   2.756680   2.722433   3.502384
     9  H    1.103703   2.178289   3.479663   2.634221   2.794648
    10  H    2.778410   2.203438   1.106389   3.461381   2.798227
    11  H    3.482322   2.188376   1.106791   2.780824   2.742098
    12  H    2.776662   2.187843   1.106317   2.769102   3.486735
    13  H    3.324056   2.056143   2.662793   1.021989   2.671248
    14  H    2.597357   2.062841   2.768603   1.021056   3.331042
    15  H    3.472117   2.157653   2.694893   2.665135   1.108657
    16  H    2.800125   2.178260   2.716501   3.381500   1.105651
    17  H    2.829376   2.860536   4.219120   3.387440   2.045710
    18  H    3.223481   2.665414   4.081465   2.485671   2.021734
                    6          7          8          9         10
     6  N    0.000000
     7  H    3.392349   0.000000
     8  H    4.084044   1.786306   0.000000
     9  H    2.757650   1.797356   1.784612   0.000000
    10  H    4.170639   2.587604   3.108656   3.805370   0.000000
    11  H    4.111094   3.792209   3.780816   4.336453   1.787849
    12  H    4.709510   3.157182   2.559436   3.779054   1.788914
    13  H    3.279438   4.197907   3.630172   3.609585   3.693420
    14  H    3.844141   3.641779   2.461032   2.870861   3.767451
    15  H    2.077589   3.780569   4.319882   3.797072   3.094380
    16  H    2.088706   2.597805   3.803505   3.197804   2.540138
    17  H    1.019739   3.009135   3.876938   2.308989   4.400675
    18  H    1.022156   3.839874   4.094034   2.774978   4.630004
                   11         12         13         14         15
    11  H    0.000000
    12  H    1.789121   0.000000
    13  H    2.515554   2.993717   0.000000
    14  H    3.169444   2.617087   1.641257   0.000000
    15  H    2.452989   3.703918   2.475473   3.622759   0.000000
    16  H    3.034554   3.751981   3.665215   4.192875   1.769262
    17  H    4.697197   4.998029   3.973044   4.171084   2.937027
    18  H    4.296020   4.794385   2.833455   3.373978   2.444231
                   16         17         18
    16  H    0.000000
    17  H    2.354972   0.000000
    18  H    2.930659   1.637307   0.000000
 Framework group  C1[X(C4H12N2)]
 Deg. of freedom    48
                         Standard orientation:                         
 ---------------------------------------------------------------------
 Center     Atomic      Atomic             Coordinates (Angstroms)
 Number     Number       Type             X           Y           Z
 ---------------------------------------------------------------------
      1          6           0        0.455746    1.487013   -0.366820
      2          6           0        0.412110    0.005400    0.014544
      3          6           0        1.636843   -0.722098   -0.564013
      4          7           0        0.344445   -0.078272    1.476218
      5          6           0       -0.875047   -0.660217   -0.529302
      6          7           0       -2.132725   -0.113852   -0.064185
      7          1           0        0.428754    1.614226   -1.464404
      8          1           0        1.382975    1.963289    0.004782
      9          1           0       -0.399075    2.026052    0.076890
     10          1           0        1.681605   -0.640815   -1.666505
     11          1           0        1.609829   -1.797937   -0.305505
     12          1           0        2.572355   -0.297463   -0.153598
     13          1           0        0.413099   -1.052349    1.777749
     14          1           0        1.125065    0.420947    1.905135
     15          1           0       -0.841518   -1.731364   -0.245329
     16          1           0       -0.858327   -0.635898   -1.634559
     17          1           0       -2.291073    0.814357   -0.455622
     18          1           0       -2.083647    0.001231    0.950285
 ---------------------------------------------------------------------
 Rotational constants (GHZ):           4.4651372           2.6154139           2.5746606
   108 basis functions,   198 primitive gaussians,   114 cartesian basis functions
    25 alpha electrons       25 beta electrons
       nuclear repulsion energy       269.4273555181 Hartrees.
 NAtoms=   18 NActive=   18 NUniq=   18 SFac= 1.00D+00 NAtFMM=   60 NAOKFM=F Big=F
 Nuclear repulsion after empirical dispersion term =      269.4157609341 Hartrees.
   1 Symmetry operations used in ECPInt.
 ECPInt:  NShTT=    1830 NPrTT=    7374 LenC2=    1828 LenP2D=    6145.
 LDataN:  DoStor=T MaxTD1= 4 Len=   56
 Initial guess from the checkpoint file:  "39.chk"
 B after Tr=    -0.000000   -0.000000   -0.000000
         Rot=    0.999821    0.017679    0.006438    0.002077 Ang=   2.17 deg.
 ExpMin= 1.22D-01 ExpMax= 1.71D+03 ExpMxC= 2.58D+02 IAcc=3 IRadAn=         5 AccDes= 0.00D+00
 Harris functional with IExCor= 4639 and IRadAn=       5 diagonalized for initial guess.
 HarFok:  IExCor= 4639 AccDes= 0.00D+00 IRadAn=         5 IDoV= 1 UseB2=F ITyADJ=14
 ICtDFT=  3500011 ScaDFX=  1.000000  1.000000  1.000000  1.000000
 FoFCou: FMM=F IPFlag=           0 FMFlag=      100000 FMFlg1=           0
         NFxFlg=           0 DoJE=T BraDBF=F KetDBF=T FulRan=T
         wScrn=  0.000000 ICntrl=       500 IOpCl=  0 I1Cent=   200000004 NGrid=           0
         NMat0=    1 NMatS0=      1 NMatT0=    0 NMatD0=    1 NMtDS0=    0 NMtDT0=    0
 Petite list used in FoFCou.
     Accept linear search using points  1 and  2.
     Minimum is close to point  2 DX= -3.94D-05 DF= -1.14D-13 DXR=  3.94D-05 DFR=  1.28D-09 which will be used.
 SCF Done:  E(RwB97XD) =  -268.844206443     a.u. after    5 cycles
            Convg  =    0.1381D-08                    29 Fock formations.
              S**2 =  0.0000                  -V/T =  2.0104
   1 Symmetry operations used in ECPInt.
 ECPInt:  NShTT=    1830 NPrTT=    7374 LenC2=    1828 LenP2D=    6145.
 LDataN:  DoStor=T MaxTD1= 5 Len=  102
 Calling FoFJK, ICntrl=      2127 FMM=F ISym2X=0 I1Cent= 0 IOpClX= 0 NMat=1 NMatS=1 NMatT=0.

 GradGradGradGradGradGradGradGradGradGradGradGradGradGradGradGradGradGrad
 Using GEDIIS/GDIIS optimizer.
 FormGI is forming the generalized inverse of G from B-inverse, IUseBI=4.
 Internal  Forces:  Max     0.000945502 RMS     0.000302251
 Step number   3 out of a maximum of   96
 All quantities printed in internal units (Hartrees-Bohrs-Radians)
 Mixed Optimization -- En-DIIS/RFO-DIIS
 Swapping is turned off.
 Trust test= 9.85D-01 RLast= 1.63D-01 DXMaxT set to 5.05D-01
 ITU=  1  1  0
     Eigenvalues ---    0.00273   0.00305   0.00343   0.00683   0.00967
     Eigenvalues ---    0.03939   0.04267   0.04583   0.04645   0.05221
     Eigenvalues ---    0.05345   0.05390   0.05523   0.05536   0.05587
     Eigenvalues ---    0.06155   0.10095   0.13477   0.15023   0.15452
     Eigenvalues ---    0.15533   0.16000   0.16000   0.16000   0.16000
     Eigenvalues ---    0.16000   0.16000   0.16000   0.16079   0.16736
     Eigenvalues ---    0.22125   0.28325   0.28612   0.29508   0.34086
     Eigenvalues ---    0.34528   0.34903   0.34948   0.35034   0.35143
     Eigenvalues ---    0.35152   0.36163   0.38233   0.39550   0.45115
     Eigenvalues ---    0.45215   0.45251   0.45354
 En-DIIS/RFO-DIIS/Sim-DIIS IScMMF=       -3 using points:     3    2
 RFO step:  Lambda=-9.61508585D-05.
 DidBck=F Rises=F RFO-DIIS coefs:    1.23271   -0.23271
 Iteration  1 RMS(Cart)=  0.02035803 RMS(Int)=  0.00025442
 Iteration  2 RMS(Cart)=  0.00028600 RMS(Int)=  0.00000242
 Iteration  3 RMS(Cart)=  0.00000005 RMS(Int)=  0.00000242
 Variable       Old X    -DE/DX   Delta X   Delta X   Delta X     New X
                                 (Linear)    (Quad)   (Total)
    R1        2.89228  -0.00034  -0.00121  -0.00163  -0.00284   2.88944
    R2        2.08864  -0.00080   0.00058  -0.00250  -0.00192   2.08672
    R3        2.09127  -0.00075   0.00069  -0.00233  -0.00164   2.08963
    R4        2.08570  -0.00077   0.00047  -0.00241  -0.00194   2.08376
    R5        2.90548  -0.00082  -0.00074  -0.00318  -0.00391   2.90157
    R6        2.76964   0.00061  -0.00070   0.00129   0.00059   2.77023
    R7        2.92486   0.00070  -0.00161   0.00195   0.00034   2.92520
    R8        2.09077  -0.00095   0.00058  -0.00294  -0.00236   2.08841
    R9        2.09153  -0.00073   0.00069  -0.00227  -0.00157   2.08996
   R10        2.09064  -0.00067   0.00058  -0.00211  -0.00153   2.08910
   R11        1.93128  -0.00020   0.00016  -0.00054  -0.00039   1.93089
   R12        1.92952  -0.00026   0.00027  -0.00064  -0.00037   1.92914
   R13        2.73626  -0.00041  -0.00206  -0.00185  -0.00391   2.73235
   R14        2.09506  -0.00023   0.00057  -0.00076  -0.00019   2.09487
   R15        2.08938  -0.00050   0.00055  -0.00154  -0.00099   2.08839
   R16        1.92703  -0.00027   0.00018  -0.00065  -0.00047   1.92656
   R17        1.93160  -0.00035   0.00068  -0.00067   0.00000   1.93160
    A1        1.93710   0.00010   0.00005   0.00052   0.00056   1.93766
    A2        1.93568   0.00001   0.00082   0.00031   0.00113   1.93681
    A3        1.92893   0.00007   0.00048   0.00053   0.00100   1.92993
    A4        1.88009  -0.00006  -0.00083  -0.00048  -0.00131   1.87877
    A5        1.90086  -0.00010  -0.00036  -0.00086  -0.00122   1.89963
    A6        1.87942  -0.00003  -0.00020  -0.00008  -0.00028   1.87913
    A7        1.91938  -0.00002   0.00103  -0.00094   0.00008   1.91947
    A8        1.88082   0.00013  -0.00116   0.00064  -0.00053   1.88029
    A9        1.93100  -0.00012   0.00055   0.00017   0.00072   1.93171
   A10        1.96605  -0.00025   0.00111  -0.00218  -0.00107   1.96498
   A11        1.90365   0.00010   0.00060   0.00076   0.00135   1.90500
   A12        1.86239   0.00016  -0.00220   0.00163  -0.00057   1.86182
   A13        1.95243  -0.00019   0.00147  -0.00113   0.00034   1.95277
   A14        1.93115   0.00009   0.00027   0.00067   0.00094   1.93209
   A15        1.93090   0.00013   0.00016   0.00101   0.00117   1.93207
   A16        1.88088   0.00002  -0.00069  -0.00038  -0.00107   1.87981
   A17        1.88311   0.00002  -0.00056  -0.00005  -0.00061   1.88249
   A18        1.88293  -0.00007  -0.00076  -0.00014  -0.00090   1.88203
   A19        1.92363   0.00013  -0.00063   0.00068   0.00005   1.92368
   A20        1.93449   0.00002  -0.00069  -0.00014  -0.00083   1.93366
   A21        1.86576  -0.00006  -0.00042  -0.00015  -0.00057   1.86519
   A22        2.03442  -0.00024  -0.00064  -0.00140  -0.00205   2.03237
   A23        1.87585  -0.00008  -0.00016   0.00083   0.00066   1.87652
   A24        1.90627   0.00024   0.00112   0.00057   0.00168   1.90795
   A25        1.88447   0.00040  -0.00149   0.00403   0.00254   1.88701
   A26        1.90280  -0.00019   0.00227  -0.00243  -0.00016   1.90265
   A27        1.85130  -0.00013  -0.00127  -0.00155  -0.00281   1.84849
   A28        1.93375   0.00037  -0.00081   0.00219   0.00139   1.93514
   A29        1.89609  -0.00050  -0.00037  -0.00292  -0.00328   1.89281
   A30        1.86079   0.00015   0.00105   0.00222   0.00327   1.86406
    D1        1.06897   0.00007  -0.00715  -0.00741  -0.01456   1.05441
    D2       -3.06510  -0.00017  -0.00589  -0.01027  -0.01616  -3.08127
    D3       -1.03511   0.00004  -0.00891  -0.00786  -0.01676  -1.05188
    D4       -1.02026   0.00007  -0.00667  -0.00736  -0.01403  -1.03429
    D5        1.12885  -0.00017  -0.00541  -0.01022  -0.01563   1.11322
    D6       -3.12434   0.00004  -0.00843  -0.00780  -0.01623  -3.14057
    D7       -3.10332   0.00006  -0.00725  -0.00781  -0.01505  -3.11837
    D8       -0.95421  -0.00019  -0.00599  -0.01067  -0.01666  -0.97086
    D9        1.07579   0.00002  -0.00901  -0.00825  -0.01726   1.05853
   D10       -1.03170  -0.00002   0.00286  -0.01013  -0.00726  -1.03896
   D11       -3.12907   0.00003   0.00257  -0.00934  -0.00677  -3.13584
   D12        1.06833  -0.00003   0.00324  -0.01026  -0.00701   1.06132
   D13       -3.12996   0.00000   0.00289  -0.00883  -0.00594  -3.13590
   D14        1.05586   0.00005   0.00260  -0.00805  -0.00545   1.05040
   D15       -1.02993  -0.00001   0.00327  -0.00896  -0.00569  -1.03563
   D16        1.08881  -0.00011   0.00456  -0.01002  -0.00546   1.08335
   D17       -1.00856  -0.00007   0.00427  -0.00924  -0.00497  -1.01353
   D18       -3.09435  -0.00012   0.00494  -0.01015  -0.00521  -3.09956
   D19       -3.03763   0.00015   0.00606   0.01646   0.02252  -3.01511
   D20       -0.97569   0.00017   0.00471   0.01661   0.02133  -0.95436
   D21       -0.91730   0.00005   0.00726   0.01434   0.02159  -0.89571
   D22        1.14464   0.00007   0.00591   0.01449   0.02040   1.16503
   D23        1.17117   0.00013   0.00721   0.01506   0.02226   1.19343
   D24       -3.05008   0.00015   0.00586   0.01521   0.02107  -3.02901
   D25       -1.04779   0.00018  -0.00619   0.03333   0.02714  -1.02065
   D26        3.11880  -0.00012  -0.00368   0.02837   0.02469  -3.13970
   D27        1.11768  -0.00005  -0.00267   0.02946   0.02679   1.14446
   D28        3.12196   0.00022  -0.00819   0.03389   0.02571  -3.13552
   D29        1.00536  -0.00008  -0.00568   0.02894   0.02325   1.02862
   D30       -0.99576  -0.00001  -0.00467   0.03003   0.02535  -0.97040
   D31        0.99360   0.00037  -0.00856   0.03511   0.02656   1.02016
   D32       -1.12300   0.00007  -0.00605   0.03016   0.02411  -1.09889
   D33       -3.12412   0.00014  -0.00504   0.03125   0.02621  -3.09791
   D34        1.22145   0.00023   0.00825   0.02044   0.02869   1.25014
   D35       -0.81710   0.00014   0.00766   0.01824   0.02590  -0.79121
   D36       -2.94969   0.00028   0.00643   0.02371   0.03014  -2.91955
   D37        1.29493   0.00019   0.00584   0.02151   0.02735   1.32229
   D38       -0.94579   0.00025   0.00533   0.02277   0.02809  -0.91769
   D39       -2.98435   0.00016   0.00474   0.02057   0.02530  -2.95904
         Item               Value     Threshold  Converged?
 Maximum Force            0.000946     0.000015     NO 
 RMS     Force            0.000302     0.000010     NO 
 Maximum Displacement     0.091440     0.000060     NO 
 RMS     Displacement     0.020329     0.000040     NO 
 GradGradGradGradGradGradGradGradGradGradGradGradGradGradGradGradGradGrad

                    Distance matrix (angstroms):
                    1          2          3          4          5
     1  C    0.000000
     2  C    1.529026   0.000000
     3  C    2.509923   1.535446   0.000000
     4  N    2.419154   1.465942   2.497099   0.000000
     5  C    2.530948   1.547950   2.512567   2.418129   0.000000
     6  N    3.041198   2.545654   3.847252   2.927596   1.445896
     7  H    1.104243   2.183693   2.770746   3.392617   2.790816
     8  H    1.105783   2.184244   2.761291   2.713831   3.501720
     9  H    1.102678   2.176921   3.476492   2.640422   2.786549
    10  H    2.778815   2.200898   1.105140   3.458571   2.795163
    11  H    3.479245   2.186610   1.105958   2.776123   2.744719
    12  H    2.771371   2.186257   1.105506   2.769465   3.486219
    13  H    3.321313   2.056301   2.651854   1.021785   2.681910
    14  H    2.585964   2.062407   2.774755   1.020859   3.329608
    15  H    3.471657   2.158240   2.707111   2.653333   1.108555
    16  H    2.814194   2.179278   2.706484   3.381466   1.105127
    17  H    2.828520   2.870348   4.215164   3.424701   2.044628
    18  H    3.174397   2.649002   4.074503   2.488613   2.017642
                    6          7          8          9         10
     6  N    0.000000
     7  H    3.380175   0.000000
     8  H    4.064976   1.783924   0.000000
     9  H    2.730552   1.794907   1.782897   0.000000
    10  H    4.158384   2.581480   3.121530   3.800864   0.000000
    11  H    4.117763   3.785973   3.781703   4.333323   1.785467
    12  H    4.705651   3.139640   2.562038   3.777999   1.786848
    13  H    3.313890   4.195542   3.616527   3.617730   3.682921
    14  H    3.843888   3.628868   2.441370   2.865963   3.771769
    15  H    2.077595   3.791870   4.319554   3.785208   3.108098
    16  H    2.086407   2.622985   3.818071   3.205425   2.527537
    17  H    1.019492   2.998357   3.876520   2.309121   4.379412
    18  H    1.022157   3.798124   4.040520   2.709139   4.613647
                   11         12         13         14         15
    11  H    0.000000
    12  H    1.787206   0.000000
    13  H    2.502237   2.980833   0.000000
    14  H    3.176261   2.627745   1.640585   0.000000
    15  H    2.469958   3.714078   2.475085   3.617257   0.000000
    16  H    3.020899   3.743303   3.666227   4.192801   1.766888
    17  H    4.700588   4.997926   4.024569   4.196516   2.935085
    18  H    4.309249   4.784373   2.879870   3.359767   2.452990
                   16         17         18
    16  H    0.000000
    17  H    2.344143   0.000000
    18  H    2.925544   1.639100   0.000000
 Framework group  C1[X(C4H12N2)]
 Deg. of freedom    48
                         Standard orientation:                         
 ---------------------------------------------------------------------
 Center     Atomic      Atomic             Coordinates (Angstroms)
 Number     Number       Type             X           Y           Z
 ---------------------------------------------------------------------
      1          6           0        0.435810    1.480539   -0.387346
      2          6           0        0.411593    0.005118    0.013239
      3          6           0        1.635257   -0.716730   -0.569151
      4          7           0        0.363732   -0.059399    1.476978
      5          6           0       -0.876204   -0.680648   -0.503920
      6          7           0       -2.130172   -0.117698   -0.055295
      7          1           0        0.410028    1.593275   -1.485516
      8          1           0        1.354557    1.975031   -0.021101
      9          1           0       -0.426663    2.013913    0.045726
     10          1           0        1.662945   -0.656027   -1.672275
     11          1           0        1.626566   -1.787185   -0.291316
     12          1           0        2.571185   -0.273987   -0.181648
     13          1           0        0.467204   -1.026076    1.791418
     14          1           0        1.133613    0.469924    1.888382
     15          1           0       -0.840653   -1.741547   -0.184350
     16          1           0       -0.863473   -0.696491   -1.608860
     17          1           0       -2.303227    0.783622   -0.499184
     18          1           0       -2.065730    0.055555    0.950009
 ---------------------------------------------------------------------
 Rotational constants (GHZ):           4.4695720           2.6193232           2.5787782
   108 basis functions,   198 primitive gaussians,   114 cartesian basis functions
    25 alpha electrons       25 beta electrons
       nuclear repulsion energy       269.5990330934 Hartrees.
 NAtoms=   18 NActive=   18 NUniq=   18 SFac= 1.00D+00 NAtFMM=   60 NAOKFM=F Big=F
 Nuclear repulsion after empirical dispersion term =      269.5874391090 Hartrees.
   1 Symmetry operations used in ECPInt.
 ECPInt:  NShTT=    1830 NPrTT=    7374 LenC2=    1828 LenP2D=    6150.
 LDataN:  DoStor=T MaxTD1= 4 Len=   56
 Initial guess from the checkpoint file:  "39.chk"
 B after Tr=     0.000000   -0.000000    0.000000
         Rot=    0.999953    0.008248   -0.003813   -0.003274 Ang=   1.11 deg.
 ExpMin= 1.22D-01 ExpMax= 1.71D+03 ExpMxC= 2.58D+02 IAcc=3 IRadAn=         5 AccDes= 0.00D+00
 Harris functional with IExCor= 4639 and IRadAn=       5 diagonalized for initial guess.
 HarFok:  IExCor= 4639 AccDes= 0.00D+00 IRadAn=         5 IDoV= 1 UseB2=F ITyADJ=14
 ICtDFT=  3500011 ScaDFX=  1.000000  1.000000  1.000000  1.000000
 FoFCou: FMM=F IPFlag=           0 FMFlag=      100000 FMFlg1=           0
         NFxFlg=           0 DoJE=T BraDBF=F KetDBF=T FulRan=T
         wScrn=  0.000000 ICntrl=       500 IOpCl=  0 I1Cent=   200000004 NGrid=           0
         NMat0=    1 NMatS0=      1 NMatT0=    0 NMatD0=    1 NMtDS0=    0 NMtDT0=    0
 Petite list used in FoFCou.
     Minimum is close to point  2 DX=  8.36D-05 DF= -5.12D-13 DXR=  8.36D-05 DFR=  7.17D-09 which will be used.
 SCF Done:  E(RwB97XD) =  -268.844238485     a.u. after    5 cycles
            Convg  =    0.1422D-08                    31 Fock formations.
              S**2 =  0.0000                  -V/T =  2.0103
   1 Symmetry operations used in ECPInt.
 ECPInt:  NShTT=    1830 NPrTT=    7374 LenC2=    1828 LenP2D=    6150.
 LDataN:  DoStor=T MaxTD1= 5 Len=  102
 Calling FoFJK, ICntrl=      2127 FMM=F ISym2X=0 I1Cent= 0 IOpClX= 0 NMat=1 NMatS=1 NMatT=0.

 GradGradGradGradGradGradGradGradGradGradGradGradGradGradGradGradGradGrad
 Using GEDIIS/GDIIS optimizer.
 FormGI is forming the generalized inverse of G from B-inverse, IUseBI=4.
 Internal  Forces:  Max     0.001144863 RMS     0.000199236
 Step number   4 out of a maximum of   96
 All quantities printed in internal units (Hartrees-Bohrs-Radians)
 Mixed Optimization -- En-DIIS/RFO-DIIS
 Swapping is turned off.
 Trust test= 6.56D-01 RLast= 1.26D-01 DXMaxT set to 5.05D-01
 ITU=  1  1  1  0
     Eigenvalues ---    0.00252   0.00294   0.00465   0.00640   0.00952
     Eigenvalues ---    0.03958   0.04313   0.04559   0.04732   0.05210
     Eigenvalues ---    0.05357   0.05387   0.05517   0.05525   0.05574
     Eigenvalues ---    0.06179   0.10166   0.13451   0.15046   0.15396
     Eigenvalues ---    0.15661   0.16000   0.16000   0.16000   0.16000
     Eigenvalues ---    0.16000   0.16000   0.16007   0.16141   0.16861
     Eigenvalues ---    0.22151   0.28523   0.28800   0.29832   0.33878
     Eigenvalues ---    0.34497   0.34826   0.34915   0.34998   0.35140
     Eigenvalues ---    0.35146   0.35230   0.37229   0.43535   0.45034
     Eigenvalues ---    0.45194   0.45240   0.45533
 En-DIIS/RFO-DIIS/Sim-DIIS IScMMF=       -3 using points:     4    3    2
 RFO step:  Lambda=-4.99244293D-05.
 DidBck=T Rises=F RFO-DIIS coefs:    0.69697    0.66946   -0.36642
 Iteration  1 RMS(Cart)=  0.01082903 RMS(Int)=  0.00005820
 Iteration  2 RMS(Cart)=  0.00007734 RMS(Int)=  0.00000398
 Iteration  3 RMS(Cart)=  0.00000000 RMS(Int)=  0.00000398
 Variable       Old X    -DE/DX   Delta X   Delta X   Delta X     New X
                                 (Linear)    (Quad)   (Total)
    R1        2.88944   0.00037  -0.00105   0.00120   0.00015   2.88960
    R2        2.08672  -0.00011   0.00149  -0.00150  -0.00001   2.08671
    R3        2.08963  -0.00019   0.00158  -0.00165  -0.00007   2.08955
    R4        2.08376  -0.00014   0.00133  -0.00143  -0.00010   2.08366
    R5        2.90157   0.00023   0.00003  -0.00032  -0.00029   2.90128
    R6        2.77023   0.00068  -0.00128   0.00249   0.00121   2.77144
    R7        2.92520   0.00056  -0.00264   0.00375   0.00112   2.92632
    R8        2.08841  -0.00014   0.00163  -0.00173  -0.00010   2.08831
    R9        2.08996  -0.00015   0.00157  -0.00160  -0.00003   2.08993
   R10        2.08910  -0.00013   0.00137  -0.00137   0.00000   2.08910
   R11        1.93089  -0.00011   0.00036  -0.00036   0.00000   1.93090
   R12        1.92914  -0.00010   0.00054  -0.00053   0.00001   1.92915
   R13        2.73235   0.00114  -0.00205   0.00289   0.00084   2.73318
   R14        2.09487  -0.00010   0.00095  -0.00077   0.00018   2.09505
   R15        2.08839  -0.00011   0.00117  -0.00116   0.00001   2.08840
   R16        1.92656  -0.00019   0.00043  -0.00058  -0.00015   1.92641
   R17        1.93160  -0.00008   0.00106  -0.00101   0.00005   1.93165
    A1        1.93766   0.00001  -0.00009   0.00036   0.00027   1.93793
    A2        1.93681  -0.00019   0.00095  -0.00119  -0.00025   1.93656
    A3        1.92993   0.00009   0.00045   0.00010   0.00054   1.93048
    A4        1.87877   0.00009  -0.00091   0.00071  -0.00020   1.87857
    A5        1.89963  -0.00005  -0.00020  -0.00023  -0.00043   1.89920
    A6        1.87913   0.00005  -0.00023   0.00028   0.00004   1.87917
    A7        1.91947  -0.00006   0.00159  -0.00182  -0.00024   1.91923
    A8        1.88029   0.00009  -0.00167   0.00213   0.00046   1.88075
    A9        1.93171  -0.00001   0.00065  -0.00062   0.00002   1.93173
   A10        1.96498  -0.00002   0.00207  -0.00245  -0.00037   1.96461
   A11        1.90500   0.00003   0.00053  -0.00040   0.00012   1.90512
   A12        1.86182  -0.00003  -0.00330   0.00331   0.00001   1.86183
   A13        1.95277  -0.00019   0.00222  -0.00254  -0.00032   1.95244
   A14        1.93209  -0.00003   0.00014  -0.00005   0.00009   1.93217
   A15        1.93207   0.00003  -0.00010   0.00055   0.00044   1.93252
   A16        1.87981   0.00009  -0.00076   0.00056  -0.00021   1.87960
   A17        1.88249   0.00009  -0.00070   0.00076   0.00006   1.88255
   A18        1.88203   0.00003  -0.00093   0.00086  -0.00007   1.88196
   A19        1.92368   0.00021  -0.00101   0.00211   0.00109   1.92477
   A20        1.93366   0.00012  -0.00083   0.00161   0.00078   1.93444
   A21        1.86519  -0.00003  -0.00049   0.00083   0.00034   1.86553
   A22        2.03237   0.00011  -0.00038   0.00064   0.00025   2.03262
   A23        1.87652  -0.00027  -0.00046  -0.00076  -0.00123   1.87529
   A24        1.90795  -0.00008   0.00126  -0.00146  -0.00021   1.90774
   A25        1.88701   0.00017  -0.00311   0.00478   0.00166   1.88868
   A26        1.90265   0.00001   0.00363  -0.00343   0.00019   1.90284
   A27        1.84849   0.00007  -0.00115   0.00038  -0.00077   1.84772
   A28        1.93514   0.00036  -0.00169   0.00391   0.00222   1.93735
   A29        1.89281   0.00018   0.00042   0.00017   0.00059   1.89339
   A30        1.86406  -0.00002   0.00066   0.00091   0.00157   1.86562
    D1        1.05441   0.00004  -0.00684   0.00832   0.00148   1.05589
    D2       -3.08127   0.00003  -0.00437   0.00555   0.00118  -3.08009
    D3       -1.05188   0.00004  -0.00894   0.01041   0.00147  -1.05041
    D4       -1.03429   0.00005  -0.00626   0.00797   0.00172  -1.03257
    D5        1.11322   0.00004  -0.00379   0.00520   0.00142   1.11464
    D6       -3.14057   0.00005  -0.00836   0.01007   0.00171  -3.13887
    D7       -3.11837   0.00004  -0.00685   0.00833   0.00148  -3.11689
    D8       -0.97086   0.00004  -0.00438   0.00556   0.00118  -0.96969
    D9        1.05853   0.00005  -0.00895   0.01043   0.00147   1.05999
   D10       -1.03896   0.00002   0.00671  -0.00734  -0.00063  -1.03959
   D11       -3.13584   0.00006   0.00610  -0.00631  -0.00021  -3.13605
   D12        1.06132   0.00002   0.00723  -0.00770  -0.00047   1.06085
   D13       -3.13590  -0.00004   0.00636  -0.00717  -0.00081  -3.13671
   D14        1.05040   0.00000   0.00575  -0.00614  -0.00039   1.05001
   D15       -1.03563  -0.00003   0.00688  -0.00753  -0.00065  -1.03628
   D16        1.08335  -0.00001   0.00883  -0.00952  -0.00068   1.08266
   D17       -1.01353   0.00003   0.00823  -0.00849  -0.00026  -1.01380
   D18       -3.09956  -0.00001   0.00936  -0.00988  -0.00052  -3.10009
   D19       -3.01511  -0.00005   0.00272   0.00255   0.00528  -3.00983
   D20       -0.95436   0.00012   0.00095   0.00590   0.00687  -0.94750
   D21       -0.89571  -0.00008   0.00488   0.00018   0.00506  -0.89065
   D22        1.16503   0.00009   0.00312   0.00353   0.00665   1.17169
   D23        1.19343  -0.00007   0.00461   0.00041   0.00501   1.19844
   D24       -3.02901   0.00010   0.00284   0.00377   0.00660  -3.02241
   D25       -1.02065  -0.00017  -0.01797  -0.00199  -0.01996  -1.04061
   D26       -3.13970  -0.00025  -0.01328  -0.00806  -0.02134   3.12214
   D27        1.14446  -0.00014  -0.01232  -0.00737  -0.01969   1.12478
   D28       -3.13552  -0.00011  -0.02068   0.00093  -0.01976   3.12791
   D29        1.02862  -0.00019  -0.01599  -0.00514  -0.02114   1.00748
   D30       -0.97040  -0.00008  -0.01504  -0.00445  -0.01948  -0.98989
   D31        1.02016  -0.00008  -0.02152   0.00213  -0.01939   1.00077
   D32       -1.09889  -0.00016  -0.01683  -0.00395  -0.02078  -1.11967
   D33       -3.09791  -0.00006  -0.01587  -0.00325  -0.01912  -3.11703
   D34        1.25014   0.00024   0.00430   0.00604   0.01034   1.26048
   D35       -0.79121  -0.00005   0.00421   0.00261   0.00682  -0.78438
   D36       -2.91955   0.00009   0.00099   0.00920   0.01020  -2.90935
   D37        1.32229  -0.00020   0.00091   0.00577   0.00668   1.32897
   D38       -0.91769   0.00027  -0.00012   0.01040   0.01028  -0.90742
   D39       -2.95904  -0.00003  -0.00021   0.00697   0.00676  -2.95228
         Item               Value     Threshold  Converged?
 Maximum Force            0.001145     0.000015     NO 
 RMS     Force            0.000199     0.000010     NO 
 Maximum Displacement     0.039986     0.000060     NO 
 RMS     Displacement     0.010833     0.000040     NO 
 GradGradGradGradGradGradGradGradGradGradGradGradGradGradGradGradGradGrad

                    Distance matrix (angstroms):
                    1          2          3          4          5
     1  C    0.000000
     2  C    1.529108   0.000000
     3  C    2.509658   1.535294   0.000000
     4  N    2.420139   1.466581   2.497191   0.000000
     5  C    2.531516   1.548541   2.513036   2.419126   0.000000
     6  N    3.052701   2.546727   3.848103   2.918737   1.446339
     7  H    1.104240   2.183958   2.771389   3.393634   2.790828
     8  H    1.105744   2.184106   2.759978   2.715225   3.502178
     9  H    1.102623   2.177344   3.476438   2.641300   2.788143
    10  H    2.778457   2.200490   1.105084   3.458629   2.794911
    11  H    3.479087   2.186528   1.105944   2.775898   2.745275
    12  H    2.771194   2.186445   1.105506   2.770013   3.486935
    13  H    3.322292   2.057617   2.650852   1.021787   2.686140
    14  H    2.584748   2.063504   2.778426   1.020864   3.330563
    15  H    3.471548   2.157896   2.696403   2.663608   1.108653
    16  H    2.805128   2.179645   2.715904   3.382643   1.105132
    17  H    2.847954   2.877560   4.226642   3.418044   2.046452
    18  H    3.188504   2.648150   4.069686   2.475258   2.018457
                    6          7          8          9         10
     6  N    0.000000
     7  H    3.396583   0.000000
     8  H    4.074328   1.783758   0.000000
     9  H    2.744469   1.794583   1.782848   0.000000
    10  H    4.164141   2.582095   3.120011   3.800854   0.000000
    11  H    4.113223   3.786563   3.780586   4.333528   1.785276
    12  H    4.706612   3.140435   2.560693   3.777642   1.786841
    13  H    3.303794   4.196893   3.616281   3.619684   3.682332
    14  H    3.835356   3.628641   2.441095   2.862058   3.774839
    15  H    2.079268   3.786334   4.319093   3.791557   3.091450
    16  H    2.086934   2.611793   3.810944   3.193180   2.536478
    17  H    1.019411   3.026875   3.894291   2.325690   4.397867
    18  H    1.022184   3.815963   4.051722   2.731053   4.614215
                   11         12         13         14         15
    11  H    0.000000
    12  H    1.787150   0.000000
    13  H    2.501091   2.978697   0.000000
    14  H    3.180667   2.632544   1.640798   0.000000
    15  H    2.458290   3.706314   2.489737   3.626804   0.000000
    16  H    3.035888   3.750497   3.675063   4.193604   1.766457
    17  H    4.705956   5.009957   4.017180   4.190143   2.936543
    18  H    4.297066   4.779667   2.861478   3.346719   2.457891
                   16         17         18
    16  H    0.000000
    17  H    2.343089   0.000000
    18  H    2.925845   1.640009   0.000000
 Framework group  C1[X(C4H12N2)]
 Deg. of freedom    48
                         Standard orientation:                         
 ---------------------------------------------------------------------
 Center     Atomic      Atomic             Coordinates (Angstroms)
 Number     Number       Type             X           Y           Z
 ---------------------------------------------------------------------
      1          6           0        0.449204    1.480303   -0.387821
      2          6           0        0.411759    0.005087    0.012811
      3          6           0        1.634775   -0.724933   -0.560275
      4          7           0        0.352753   -0.059512    1.476781
      5          6           0       -0.877283   -0.672147   -0.514164
      6          7           0       -2.131163   -0.116515   -0.054866
      7          1           0        0.431009    1.593336   -1.486110
      8          1           0        1.369432    1.967826   -0.016106
      9          1           0       -0.411767    2.020507    0.039598
     10          1           0        1.670522   -0.664866   -1.663147
     11          1           0        1.617003   -1.795238   -0.282349
     12          1           0        2.570985   -0.288462   -0.166388
     13          1           0        0.452122   -1.026058    1.792951
     14          1           0        1.119293    0.469513    1.894766
     15          1           0       -0.839643   -1.738370   -0.212727
[...]
 7104,-0.3268837,0.1097064,0.1403292,0.0965403,-0.6896449,0.5384846,0.0
 617716,-0.0392759,0.1012418,0.3063851,-0.0340408,-0.0138686,-0.0572271
 ,0.1836681,-0.9972676,0.0004954,0.0110586,0.1043682,-0.3442637,0.07601
 49,0.019553,0.07527,-0.2821495,0.0736443,0.0030066,-0.0072663,0.001076
 4,0.0445912,0.0274977,0.0020443,-0.0322212,-0.1308571,-0.0952669,0.108
 3096,-0.0527209,0.0575504,0.0035899,-0.0002903,-0.0764748,0.0314374,0.
 040469,-0.0295433,-0.1224069,0.0414136,-0.0796981,-0.0014922,0.0075262
 ,0.0519303,0.0337779,0.0457169,0.0489512,-0.0157677,-0.0051635,-0.0188
 289,0.061323,0.0027229,0.0417539,0.0310927,-0.1513108,0.0451846,0.0270
 479,0.0280399,-0.0263647,-0.1313319,-0.0532105,0.0123836,-0.0881277,0.
 0307201,-0.1190843,0.0303779,-0.0362647,0.0825921,0.0158339,0.0433607,
 -0.0753966,0.0402753,0.0359427,0.2439526,-0.0348336,-0.1017933,0.00093
 35,0.0041521,-0.0889523,-0.0386276,-0.0073503,0.156902,0.0431812,0.130
 5285,-0.1346912,0.0643238,0.1861203,-0.0375793,-0.0187511,-0.0304506,0
 .1612958,-0.0220652,-0.0277459,-0.006766,-0.014858,-0.1802585,-0.05299
 66,-0.0162865,-0.104287,0.023195,0.0017671,-0.0141701,0.0172901,-0.003
 8952,0.0539532,-0.0084508,0.007476,0.0487082,-0.1576804,0.2979188,0.01
 30011,0.0855417,-0.1068643,0.0130108,-0.0725444,0.0778865,-0.0456766,0
 .1264198,0.3347678,-0.0379208,-0.0757722,-0.121141,0.1435377,0.0694408
 ,-0.0099866,0.0341453,0.1039276\Polar=58.3617828,1.1461585,56.7821907,
 0.0095275,0.5494937,55.2023107\Quadrupole=-2.8592124,1.1438004,1.71541
 2,1.8198073,1.3228581,1.2330615\PG=C01 [X(C4H12N2)]\NImag=0\\0.5881673
 1,0.00926107,0.50210349,-0.00168649,-0.03388542,0.58723179,-0.08175997
 ,0.00329171,-0.00020931,0.50449630,0.00879566,-0.18581646,-0.03146476,
 -0.00347322,0.55181146,0.00343333,-0.04134248,-0.09185704,0.00112353,0
 .00683872,0.52254779,-0.00028667,-0.00248104,-0.00164487,-0.14987089,-
 0.04694887,0.02315079,0.52252425,-0.02774588,-0.02486729,0.00762997,-0
 .04499694,-0.11528935,0.01663120,-0.04674311,0.55354696,-0.00861861,-0
 .00467091,0.00527954,0.01694378,0.01266257,-0.08335918,0.02805075,0.01
 941727,0.57795708,0.00072361,0.00077010,0.00527464,-0.07402811,0.01424
 549,-0.01646799,-0.00040350,-0.00249639,0.03421430,0.36682694,0.001632
 75,-0.00274489,-0.04166202,0.01405306,-0.09983931,-0.00165886,-0.00115
 749,0.00047695,0.02262210,-0.16888241,0.61371269,-0.00035747,-0.005010
 51,-0.02774209,0.03136297,0.01824582,-0.21507967,0.00526096,0.00419333
 ,-0.03466198,0.13247096,0.06106062,0.50792615,-0.00351980,0.01065124,0
 .00162211,-0.13084098,0.03402362,-0.02681761,-0.03137970,0.00586856,-0
 .00384052,-0.00488594,0.00153117,-0.00851722,0.47169162,0.03004795,-0.
 01956668,0.00894845,0.03653860,-0.10454457,0.01386695,-0.01708458,0.00
 788356,-0.00641057,0.00321856,-0.00239307,0.00411080,0.03770531,0.5787
 3863,0.01010390,-0.00414716,0.00455132,-0.01837267,0.00937272,-0.08595
 102,0.00747372,-0.00466560,0.00551930,-0.03201602,0.02307536,-0.028457
 67,-0.02075570,0.02754512,0.63476644,0.00091707,-0.00205247,-0.0009155
 1,-0.04061367,-0.01674112,0.01066075,-0.00510027,0.00524964,-0.0043762
 8,0.00006631,-0.00075673,0.00056114,-0.19366919,-0.05272065,0.03077503
 ,0.31931885,0.00029675,-0.00116132,0.00037029,0.00222985,0.00791556,-0
 .00380870,0.00233761,-0.00040014,0.00083588,0.00045270,0.00194877,0.00
 122674,-0.10423270,-0.11972240,0.01585060,0.17512628,0.51541943,0.0003
 2534,0.00137322,-0.00017196,-0.00117567,-0.00477799,0.00363397,-0.0014
 6233,0.00033388,0.00004386,-0.00358897,-0.00017770,0.00011980,0.049122
 83,0.00606389,-0.11855602,-0.00463590,0.05386934,0.66375153,-0.0490294
 1,-0.00076281,-0.00259127,-0.00210903,-0.00014293,0.00216363,-0.000118
 69,-0.00022899,-0.00049716,0.00014230,0.00115762,0.00050563,0.00029789
 ,-0.00000383,0.00119900,-0.00025177,0.00015285,-0.00032909,0.04568920,
 -0.00069846,-0.04919472,0.00262617,-0.00052004,0.00374336,-0.02954124,
 0.00012042,0.00079622,-0.00048954,0.00097609,-0.00666508,-0.00287331,-
 0.00035201,0.00148961,-0.00088697,0.00002646,0.00005771,0.00014484,-0.
 00047023,0.05083225,-0.00258293,-0.00074943,-0.31699708,0.00037438,0.0
 0342132,-0.01035852,0.00015636,0.00070564,0.00014794,0.00028080,-0.003
 90162,-0.00032148,-0.00089219,0.00095222,0.00015728,0.00070964,-0.0002
 4276,0.00019824,0.00236638,0.00153754,0.33923194,-0.24105685,0.0958109
 2,-0.06928567,-0.00231845,-0.00063067,-0.00121985,0.00088536,-0.000979
 84,0.00033048,0.00052641,-0.00044184,0.00039237,0.00049395,-0.00017702
 ,0.00076856,-0.00007564,0.00086208,-0.00019915,0.00168063,-0.00135853,
 0.00119929,0.25564562,0.09454491,-0.09421756,0.03408247,0.02799863,-0.
 01364733,0.01105140,0.00147067,0.00120597,0.00038996,-0.00060730,0.001
 39851,0.00181212,-0.00246247,-0.00619135,-0.00331314,-0.00014033,0.000
 93236,-0.00010490,-0.00129683,-0.00033073,-0.00050226,-0.10467877,0.10
 285170,-0.06934220,0.03475369,-0.07385738,0.01035825,-0.00473756,0.002
 12078,0.00022846,0.00060383,-0.00001752,0.00081405,-0.00025641,0.00144
 228,0.00012405,-0.00165156,-0.00075412,0.00009333,-0.00030601,0.000194
 11,-0.02738621,0.01317669,-0.00658564,0.07519556,-0.03550257,0.0735892
 7,-0.20712345,-0.11500139,0.06970700,0.00250762,0.00073709,-0.00064866
 ,0.00039409,-0.00023277,-0.00054331,0.00043247,0.00073908,-0.00032576,
 -0.00089465,0.00015431,-0.00049045,-0.00056295,0.00109016,-0.00040031,
 0.00274274,0.00276662,-0.00162828,-0.01730448,-0.01504660,0.00970193,0
 .22090476,-0.11342619,-0.12879082,0.04987675,-0.02471289,-0.01596832,0
 .01210158,0.00200722,-0.00570058,-0.00313826,0.00041204,0.00255949,0.0
 0114301,-0.00214698,-0.00034735,0.00070970,-0.00007195,0.00195699,-0.0
 0037843,0.00199470,0.00026558,-0.00083964,0.01091166,0.00838300,-0.006
 00314,0.12370669,0.13883017,0.07040279,0.05193969,-0.08048355,-0.00981
 567,-0.00577732,0.00287702,0.00029829,-0.00179233,-0.00075037,-0.00064
 647,-0.00003457,0.00093647,0.00064231,0.00075793,-0.00011370,0.0001566
 7,-0.00029874,0.00016680,0.02410699,0.01690852,-0.00669323,-0.00832894
 ,-0.00708731,0.00352652,-0.07588013,-0.05392151,0.07976107,0.00066250,
 0.00071579,0.00012941,0.00287781,0.00271383,0.02327161,-0.04984394,-0.
 00057542,0.00724015,-0.00447737,-0.00377620,0.00485830,0.00030625,0.00
 007267,0.00090719,0.00038981,0.00015035,-0.00058008,0.00009062,-0.0004
 3113,-0.00024048,-0.00004204,-0.00004944,-0.00014869,-0.00003263,0.000
 29002,-0.00009728,0.04892910,0.00037128,0.00034973,0.00064065,0.003114
 52,0.00001039,0.01634623,-0.00049291,-0.04967920,0.00827909,-0.0044363
 0,-0.00161355,0.00353098,0.00059392,0.00018742,-0.00013753,0.00011133,
 -0.00016949,-0.00007928,-0.00048850,-0.00062765,-0.00021040,0.00000653
 ,-0.00006816,0.00005111,0.00013483,0.00022680,-0.00018867,0.00240829,0
 .04765090,-0.00047284,-0.00065016,0.00022789,-0.00262693,-0.00188952,-
 0.00909040,0.00894989,0.00942227,-0.31372769,0.00386041,0.00257313,-0.
 00134051,-0.00101124,-0.00000833,-0.00041013,0.00047269,0.00001187,0.0
 0052311,0.00001648,0.00026942,0.00058694,0.00011458,0.00000561,-0.0000
 6295,0.00005785,0.00000296,0.00026064,-0.01021823,-0.01083892,0.336071
 50,-0.00403917,-0.00192343,0.00190607,0.00186032,-0.02427258,-0.009880
 42,-0.04955828,0.01853544,0.00698046,0.00091619,0.00105007,-0.00207305
 ,0.00076553,-0.00189714,-0.00039844,0.00042980,0.00053237,0.00005978,-
 0.00009473,0.00022877,0.00001345,0.00014704,-0.00019163,0.00019619,0.0
 0013406,-0.00160956,-0.00030627,-0.00098404,0.00046754,-0.00000604,0.0
 5110576,-0.00414445,-0.00121042,0.00238132,0.00235508,-0.01682772,-0.0
 0790481,0.01761460,-0.27886245,-0.08567859,0.00085575,0.00191686,-0.00
 021588,0.00194074,-0.00002935,0.00005084,-0.00038469,0.00054183,0.0003
 9896,0.00009372,0.00028327,-0.00004416,0.00004170,0.00043846,0.0000350
 1,-0.00000129,-0.00124269,-0.00051558,-0.00047364,0.00374142,0.0018410
 9,-0.01629588,0.29985528,0.00124082,0.00096935,-0.00034995,-0.00061077
 ,0.01009276,0.00156156,0.00579819,-0.08619704,-0.08109803,-0.00095042,
 0.00073953,0.00178570,-0.00025392,-0.00033641,0.00006119,-0.00016142,0
 .00021779,-0.00006377,0.00010786,0.00020635,0.00033892,0.00014230,-0.0
 0015267,-0.00009276,0.00019012,0.00038595,0.00061639,0.00245648,-0.029
 64465,-0.00756450,-0.00849728,0.09260933,0.08123864,0.00073572,0.00144
 633,0.00004730,-0.02294656,0.01182701,-0.01032447,-0.24088230,0.091551
 25,-0.07543648,0.00321619,0.00033005,-0.00077764,-0.00146569,-0.004757
 89,0.00281582,-0.00224402,0.00050055,-0.00025901,-0.00001929,-0.000023
 46,0.00008744,0.00041808,-0.00098287,-0.00000937,0.00034144,0.00002276
 ,0.00021003,0.00288140,-0.00187901,0.00154153,-0.00016529,-0.00077671,
 0.00015566,0.26010559,-0.00093618,0.00138924,-0.00041291,-0.01703148,0
 .00654290,-0.00643497,0.09230514,-0.09080297,0.03546634,0.00074908,0.0
 0056792,-0.00191832,-0.00122593,-0.00244438,0.00123829,-0.00172205,0.0
 0074225,0.00009741,0.00001450,-0.00006821,-0.00005621,0.00005004,-0.00
 040095,0.00023109,0.00022839,0.00019033,0.00002412,-0.00063599,-0.0006
 2592,-0.00051996,0.02438974,-0.00922261,0.01117151,-0.09669900,0.09396
 940,-0.00037737,-0.00041704,-0.00009349,0.01000263,-0.00407669,0.00159
 801,-0.07631610,0.03488196,-0.07766147,-0.00016737,-0.00117705,0.00173
 140,0.00099851,0.00109326,-0.00094995,0.00080856,0.00000268,0.00063628
 ,-0.00012566,0.00010375,-0.00004078,-0.00018600,-0.00018524,0.00019718
 ,0.00010548,-0.00016456,-0.00005968,-0.02700922,0.01279178,-0.00716821
 ,0.01106468,-0.00406763,0.00382555,0.08083594,-0.03925289,0.07769679,-
 0.00011767,-0.00003949,-0.00043589,-0.00306507,0.00082335,0.00691915,0
 .00017913,0.00163173,-0.00087861,-0.02728406,-0.03587809,-0.03781928,0
 .00080367,-0.00206304,-0.00075354,-0.00116564,0.00089184,0.00008359,0.
 00087827,-0.00012839,-0.00023655,0.00017948,-0.00025206,0.00000979,0.0
 0019830,0.00036949,0.00008808,0.00019224,-0.00001423,-0.00058445,0.000
 17595,-0.00053361,0.00048203,-0.00039190,0.00017851,0.00022998,0.02945
 246,-0.00010770,0.00136916,-0.00073041,-0.00294915,0.00052893,0.004034
 20,0.00012987,0.00180323,0.00191980,0.00519090,-0.36613660,-0.13767946
 ,-0.00004394,0.00135003,0.00034087,-0.00043848,0.00004801,-0.00018971,
 0.00005521,0.00005458,-0.00011871,-0.00012841,0.00018019,0.00024561,0.
 00013775,0.00019705,0.00022238,-0.00021191,-0.00007168,0.00025842,0.00
 034630,-0.00001389,-0.00014320,0.00009490,-0.00014575,-0.00019353,0.00
 566411,0.37917975,-0.00005916,0.00186168,-0.00760227,-0.00219962,-0.03
 871986,-0.01548396,-0.00004208,-0.00136125,0.00194628,-0.01934267,-0.1
 1743526,-0.10766809,0.00014753,-0.00170210,0.00096216,0.00024638,0.000
 16742,-0.00010692,0.00015084,-0.00213379,-0.00065885,0.00022247,0.0001
 6577,0.00016476,-0.00018835,0.00023920,0.00012886,-0.00054119,0.000095
 67,0.00064371,0.00062914,0.00121812,-0.00033869,0.00014288,0.00017805,
 -0.00006413,0.01911895,0.14063805,0.12108174,0.00099821,-0.00040075,0.
 00053431,-0.00274776,-0.00434182,0.00686726,0.00190684,-0.00061955,0.0
 0105279,-0.25967390,0.18739436,-0.12486576,0.00027943,-0.00069429,-0.0
 0142544,0.00010421,0.00023505,-0.00082798,0.00001644,-0.00006311,0.000
 25730,0.00011733,-0.00019880,-0.00029080,-0.00050845,-0.00014250,-0.00
 038237,-0.00030936,0.00004305,-0.00002256,-0.00006751,-0.00004348,-0.0
 0000301,-0.00019374,0.00037934,0.00001846,0.00005969,-0.00741840,0.002
 12992,0.25901490,-0.00141200,0.00139142,-0.00111840,0.00100182,-0.0012
 0669,0.00251208,0.00063306,-0.00059863,-0.00104207,0.14669890,-0.14199
 640,0.05240477,-0.00114270,0.00029005,-0.00045694,-0.00038918,0.000133
 49,-0.00058078,-0.00004526,-0.00035798,0.00028983,0.00076187,0.0001271
 1,-0.00031097,-0.00046147,-0.00018482,-0.00009731,-0.00015396,0.000335
 36,-0.00041923,0.00005859,-0.00018108,0.00016004,-0.00057647,0.0000497
 0,0.00053216,0.02917733,-0.01770155,0.01499809,-0.17463628,0.15900594,
 -0.00112424,0.00089986,0.00137211,-0.03278909,0.02155273,-0.01474518,-
 0.00094094,0.00003719,0.00101709,-0.09969047,0.05349402,-0.09956875,0.
 00255684,-0.00044030,-0.00776153,0.00044922,-0.00004277,0.00079737,0.0
 0048191,0.00019449,0.00047120,0.00080195,-0.00118040,-0.00048538,0.000
 09598,-0.00004575,-0.00002645,0.00010778,-0.00043867,0.00035274,0.0001
 2117,-0.00008065,-0.00003033,0.00107808,0.00020538,-0.00009293,0.01403
 540,-0.00821856,0.00681297,0.11698628,-0.06659676,0.11223425,-0.004884
 25,0.00148065,-0.00239940,-0.00313491,0.02584130,0.01016639,0.00093438
 ,0.00172230,0.00035268,0.00122517,-0.00097194,0.00143964,-0.04601252,0
 .01240906,0.00415943,-0.00936368,-0.03256876,-0.01352480,-0.00001480,-
 0.00030850,-0.00001665,-0.00006360,0.00181419,0.00039378,0.00012848,0.
 00004422,-0.00014732,-0.00003366,-0.00001917,0.00002994,-0.00077506,-0
 .00055525,-0.00026853,0.00029722,-0.00030139,-0.00011074,-0.00017628,-
 0.00020916,-0.00069816,0.00018607,-0.00013553,0.00019330,0.06433836,0.
 00315270,0.00022413,0.00200370,0.00184983,-0.01752016,-0.00825154,-0.0
 0127395,0.00045000,0.00021018,-0.00089780,0.00157807,-0.00055822,0.009
 91871,-0.26279085,-0.08614454,-0.01007592,-0.01313238,-0.00490764,-0.0
 0005434,0.00020024,-0.00002248,0.00022462,-0.00102653,-0.00022685,-0.0
 0022982,0.00020939,-0.00003236,0.00002873,0.00001976,0.00013867,0.0005
 0178,0.00086452,-0.00001802,0.00006003,0.00036358,0.00022372,0.0009845
 1,-0.00021302,0.00117609,-0.00014510,0.00025436,0.00013133,-0.00328934
 ,0.28842196,-0.00127149,0.00030312,-0.00043642,-0.00344877,0.01069750,
 0.00274725,0.00067758,0.00004453,-0.00002188,0.00035707,0.00095002,0.0
 0137339,0.00299115,-0.08880108,-0.08913678,0.00110049,0.01024713,0.006
 85735,-0.00011588,0.00022142,0.00035281,0.00000693,0.00043319,0.000538
 20,0.00011630,0.00001854,-0.00003431,-0.00003486,-0.00012246,0.0000237
 6,0.00035408,-0.00004393,0.00018160,0.00011638,0.00014975,-0.00007729,
 -0.00032667,-0.00022409,-0.00009837,0.00020782,-0.00012056,0.00019573,
 -0.00275947,0.09230111,0.08541899,0.00086421,-0.00087426,-0.00028481,0
 .00212171,-0.00017216,-0.02487289,0.00036772,0.00002425,-0.00075881,-0
 .00452417,0.00424360,-0.00270750,-0.04986948,-0.00031356,-0.00383119,-
 0.00420808,-0.00358577,0.03468678,-0.00002475,0.00034562,0.00039585,0.
 00006665,-0.00023520,0.00012349,-0.00005320,0.00014217,0.00001797,-0.0
 0094764,-0.00001977,0.00028349,-0.00002491,-0.00003115,0.00005150,0.00
 031660,0.00001371,0.00025362,-0.00000988,-0.00001472,0.00027371,-0.000
 38622,-0.00020321,-0.00179174,-0.00009932,0.00021032,0.00099125,0.0603
 1982,-0.00056811,0.00063547,0.00105177,0.00032380,-0.00152595,0.015188
 70,-0.00075540,0.00011388,-0.00015848,0.00225944,-0.00127929,0.0010953
 4,0.00011364,-0.05172510,0.01186130,-0.00305092,-0.00206276,0.01853491
 ,0.00029717,-0.00036569,-0.00032366,-0.00010257,0.00018463,-0.00023725
 ,-0.00002666,-0.00005008,0.00002946,-0.00009562,0.00034818,-0.00016946
 ,0.00008219,-0.00000547,-0.00015257,-0.00008114,-0.00018435,-0.0000717
 9,0.00042035,0.00002604,0.00037879,0.00020546,0.00049421,0.00095714,0.
 00000825,0.00430669,-0.02850610,0.00352904,0.05193753,0.00063019,-0.00
 062816,0.00039948,0.00267837,-0.00124579,-0.01049920,0.00050550,-0.000
 09501,0.00003979,-0.00280281,0.00205072,-0.00001486,0.00031748,0.01790
 371,-0.31011432,0.00198350,0.00144067,-0.00767109,-0.00018476,0.000515
 39,0.00046716,-0.00004524,-0.00000743,0.00028168,-0.00002185,-0.000118
 58,-0.00001428,-0.00033019,-0.00013610,0.00065724,-0.00007689,0.000106
 85,-0.00004256,-0.00010565,-0.00002324,0.00038565,0.00037077,-0.000012
 20,0.00030887,-0.00031577,-0.00010131,-0.00058648,-0.00040264,0.001377
 16,-0.00862043,-0.00394738,-0.02242242,0.33306553,-0.00084219,-0.00023
 438,0.00039578,-0.00025139,-0.00223687,-0.00111571,-0.00009734,0.00031
 134,0.00026660,-0.00016951,0.00060160,0.00025011,-0.00935190,-0.030654
 03,-0.01856191,-0.03009416,-0.03561030,0.00144856,-0.00006412,0.000057
 84,0.00007056,0.00057610,0.00024560,-0.00001078,-0.00115648,0.00171160
 ,-0.00065623,0.00000982,-0.00007575,-0.00001451,0.00013603,0.00027677,
 0.00002186,-0.00004046,0.00015458,0.00010502,0.00018400,0.00010755,0.0
 0010427,-0.00003498,-0.00006938,-0.00007128,-0.00301244,-0.00090784,0.
 00162917,0.00133763,0.00058333,0.00023964,0.04531473,0.00064401,-0.000
 01315,-0.00006527,0.00104454,0.00073906,0.00021877,0.00022597,-0.00022
 652,-0.00011520,0.00045069,-0.00006646,0.00006793,0.00442036,-0.017252
 69,-0.00906768,-0.07398283,-0.31604805,-0.17771439,-0.00013957,0.00001
 501,-0.00001915,-0.00000098,0.00019633,0.00002627,0.00121987,-0.000176
 19,0.00011826,-0.00002997,-0.00000139,0.00002414,0.00003610,0.00009398
 ,0.00007183,0.00002599,0.00009727,0.00000191,-0.00002538,-0.00005995,0
 .00012818,-0.00000018,0.00001202,-0.00000313,-0.00503720,-0.00151126,0
 .00210875,0.00025434,0.00048353,0.00037029,0.06634603,0.32471910,-0.00
 038827,-0.00065473,0.00092628,0.00067983,-0.00030836,-0.00081922,0.000
 04998,0.00002136,0.00020474,-0.00091033,0.00073307,-0.00005939,0.00180
 374,0.01210186,0.00804763,-0.01963129,-0.15542212,-0.15910631,0.000188
 32,0.00006800,-0.00036886,0.00026108,0.00014146,-0.00028257,-0.0000353
 2,0.00049954,-0.00008392,0.00002055,-0.00002074,-0.00005218,-0.0000444
 4,0.00000593,-0.00002290,0.00007529,-0.00000494,-0.00002280,0.00034749
 ,0.00017610,-0.00012359,-0.00025962,-0.00017140,0.00007008,0.00336357,
 0.00277698,0.00072541,-0.00012887,0.00099600,0.00060077,0.01850137,0.1
 7521909,0.16638551,-0.00040920,0.00034222,-0.00016340,-0.00017699,-0.0
 0004711,0.00359115,0.00034980,-0.00027563,-0.00048222,0.00137097,-0.00
 086864,0.00034159,-0.00274850,-0.00978045,0.03840270,-0.03387698,-0.00
 886092,-0.05874359,0.00018849,-0.00016797,-0.00031436,0.00012443,0.000
 06830,-0.00005086,-0.00014767,0.00049751,0.00033753,0.00033112,0.00017
 436,-0.00037006,0.00003831,0.00006179,0.00009854,0.00003700,0.00008899
 ,-0.00013041,-0.00009270,-0.00020473,-0.00009487,0.00123877,0.00089386
 ,-0.00050016,0.00046083,-0.00005713,-0.00059107,-0.00524670,-0.0031422
 7,0.00150774,-0.00244334,0.00454821,-0.00389307,0.04100235,0.00029189,
 0.00012068,-0.00027234,-0.00011773,0.00089422,0.00015278,0.00009278,0.
 00015035,-0.00009957,0.00104047,-0.00142461,-0.00063576,0.00483944,-0.
 00293150,0.01877477,-0.01798640,-0.07699986,0.10809434,-0.00013246,-0.
 00012779,0.00012395,-0.00017080,-0.00001565,0.00010900,0.00008522,-0.0
 0035793,-0.00025466,0.00005358,-0.00001291,-0.00005198,-0.00003867,-0.
 00013993,0.00002010,-0.00008233,-0.00001746,-0.00002480,-0.00120693,-0
 .00039453,0.00010715,0.00044702,0.00013348,-0.00042513,0.00007625,-0.0
 0069852,0.00034317,-0.00331325,-0.00133146,0.00102546,-0.00060770,0.00
 899937,-0.03615711,0.01672963,0.07415404,0.00014468,0.00005540,-0.0003
 9718,-0.00227522,0.00011372,0.00015701,-0.00019418,0.00018882,-0.00085
 750,-0.00068872,-0.00099510,-0.00040069,0.00176185,0.00600612,-0.01186
 007,-0.01829700,0.07588067,-0.39124636,-0.00005702,-0.00004774,0.00007
 202,-0.00017072,-0.00004607,0.00008351,0.00018775,-0.00036736,-0.00001
 427,0.00020876,0.00008193,0.00006905,-0.00004220,-0.00009624,-0.000006
 08,-0.00019374,-0.00013849,0.00015987,-0.00065024,-0.00032555,0.000095
 52,0.00033918,0.00011877,-0.00002652,0.00022899,-0.00017729,0.00001100
 ,0.00124553,0.00194835,0.00135705,-0.00260252,0.00862941,-0.01601869,0
 .02105482,-0.09082936,0.41882234\\0.00000031,-0.00000035,0.00000088,0.
 00000158,-0.00000020,-0.00000312,-0.00000037,-0.00000030,0.00000032,-0
 .00000057,0.00000076,0.00000273,-0.00000240,0.00000053,0.00000017,0.00
 000161,-0.00000140,0.00000035,-0.00000022,-0.00000107,0.00000076,0.000
 00012,0.,0.00000110,0.00000022,0.00000005,0.00000144,-0.00000043,-0.00
 000100,-0.00000102,-0.00000028,0.00000001,-0.00000159,-0.00000011,0.00
 000022,-0.00000076,0.00000032,0.00000169,-0.00000066,0.00000081,0.0000
 0150,0.00000013,0.00000009,-0.00000013,-0.00000102,-0.00000031,-0.0000
 0153,-0.00000032,-0.00000028,0.00000011,0.00000097,-0.00000011,0.00000
 111,-0.00000036\\\@


 A FOOL CAN ASK MORE QUESTIONS THAN
 A WISE MAN CAN ANSWER.
 File lengths (MBytes):  RWF=     30 Int=      0 D2E=      0 Chk=      2 Scr=      1
 Normal termination of Gaussian 16 at Mon Feb  6 10:20:19 2023.
real 304.91
user 1159.89
sys 10.54
