 Entering Gaussian System, Link 0=g16
 Input=gaussian_test.inp
 Output=gaussian_test.log
 Initial command:
 /sw/restricted/lms/sw/Gaussian/g16_B01/g16/l1.exe "/scratch/user/peterchao1/peterchao1/8625380_1689034736000000027372302/Gau-12453.inp" -scrdir="/scratch/user/peterchao1/peterchao1/8625380_1689034736000000027372302/"
 Entering Link 1 = /sw/restricted/lms/sw/Gaussian/g16_B01/g16/l1.exe PID=     12463.
  
 Copyright (c) 1988-2017, Gaussian, Inc.  All Rights Reserved.
  
 This is part of the Gaussian(R) 16 program.  It is based on
 the Gaussian(R) 09 system (copyright 2009, Gaussian, Inc.),
 the Gaussian(R) 03 system (copyright 2003, Gaussian, Inc.),
 the Gaussian(R) 98 system (copyright 1998, Gaussian, Inc.),
 the Gaussian(R) 94 system (copyright 1995, Gaussian, Inc.),
 the Gaussian 92(TM) system (copyright 1992, Gaussian, Inc.),
 the Gaussian 90(TM) system (copyright 1990, Gaussian, Inc.),
 the Gaussian 88(TM) system (copyright 1988, Gaussian, Inc.),
 the Gaussian 86(TM) system (copyright 1986, Carnegie Mellon
 University), and the Gaussian 82(TM) system (copyright 1983,
 Carnegie Mellon University). Gaussian is a federally registered
 trademark of Gaussian, Inc.
  
 This software contains proprietary and confidential information,
 including trade secrets, belonging to Gaussian, Inc.
  
 This software is provided under written license and may be
 used, copied, transmitted, or stored only in accord with that
 written license.
  
 The following legend is applicable only to US Government
 contracts under FAR:
  
                    RESTRICTED RIGHTS LEGEND
  
 Use, reproduction and disclosure by the US Government is
 subject to restrictions as set forth in subparagraphs (a)
 and (c) of the Commercial Computer Software - Restricted
 Rights clause in FAR 52.227-19.
  
 Gaussian, Inc.
 340 Quinnipiac St., Bldg. 40, Wallingford CT 06492
  
  
 ---------------------------------------------------------------
 Warning -- This program may not be used in any manner that
 competes with the business of Gaussian, Inc. or will provide
 assistance to any competitor of Gaussian, Inc.  The licensee
 of this program is prohibited from giving any competitor of
 Gaussian, Inc. access to this program.  By using this program,
 the user acknowledges that Gaussian, Inc. is engaged in the
 business of creating and licensing software in the field of
 computational chemistry and represents and warrants to the
 licensee that it is not a competitor of Gaussian, Inc. and that
 it will not use this program in any manner prohibited above.
 ---------------------------------------------------------------
  

 Cite this work as:
 Gaussian 16, Revision B.01,
 M. J. Frisch, G. W. Trucks, H. B. Schlegel, G. E. Scuseria, 
 M. A. Robb, J. R. Cheeseman, G. Scalmani, V. Barone, 
 G. A. Petersson, H. Nakatsuji, X. Li, M. Caricato, A. V. Marenich, 
 J. Bloino, B. G. Janesko, R. Gomperts, B. Mennucci, H. P. Hratchian, 
 J. V. Ortiz, A. F. Izmaylov, J. L. Sonnenberg, D. Williams-Young, 
 F. Ding, F. Lipparini, F. Egidi, J. Goings, B. Peng, A. Petrone, 
 T. Henderson, D. Ranasinghe, V. G. Zakrzewski, J. Gao, N. Rega, 
 G. Zheng, W. Liang, M. Hada, M. Ehara, K. Toyota, R. Fukuda, 
 J. Hasegawa, M. Ishida, T. Nakajima, Y. Honda, O. Kitao, H. Nakai, 
 T. Vreven, K. Throssell, J. A. Montgomery, Jr., J. E. Peralta, 
 F. Ogliaro, M. J. Bearpark, J. J. Heyd, E. N. Brothers, K. N. Kudin, 
 V. N. Staroverov, T. A. Keith, R. Kobayashi, J. Normand, 
 K. Raghavachari, A. P. Rendell, J. C. Burant, S. S. Iyengar, 
 J. Tomasi, M. Cossi, J. M. Millam, M. Klene, C. Adamo, R. Cammi, 
 J. W. Ochterski, R. L. Martin, K. Morokuma, O. Farkas, 
 J. B. Foresman, and D. J. Fox, Gaussian, Inc., Wallingford CT, 2016.
 
 ******************************************
 Gaussian 16:  ES64L-G16RevB.01 20-Dec-2017
                10-Jul-2023 
 ******************************************
 %nprocshared=4
 Will use up to    4 processors via shared memory.
 %mem=8000mb
 %chk=37.chk
 %mem=8000mb
 ----------------------------------------------------------------------
 #T wB97XD/def2svpp opt=tight freq int(grid=ultrafine) scf=(verytight,q
 c)
 ----------------------------------------------------------------------
 -------
 comment
 -------
 Symbolic Z-matrix:
 Charge =  1 Multiplicity = 2
 C                    -0.29567   1.71918  -0.04722 
 C                    -0.14677   0.226     0.18975 
 C                    -0.38703  -0.1493    1.65163 
 C                    -1.07016  -0.58427  -0.75414 
 O                    -2.42092  -0.29238  -0.53525 
 N                     1.27486  -0.21473  -0.15181 
 O                     2.06572   0.61682  -0.52879 
 O                     1.51883  -1.39593  -0.02306 
 H                    -1.34876   1.99009   0.12931 
 H                    -0.03584   1.98805  -1.08253 
 H                     0.34689   2.3008    0.63211 
 H                    -1.40466   0.15988   1.94173 
 H                     0.32272   0.37549   2.31294 
 H                    -0.2756   -1.23436   1.80711 
 H                    -0.84874  -1.66027  -0.63633 
 H                    -0.8462   -0.3031   -1.79691 
 H                    -2.7452   -0.81128   0.21186 
 

 GradGradGradGradGradGradGradGradGradGradGradGradGradGradGradGradGradGrad
 Initialization pass.
                           ----------------------------
                           !    Initial Parameters    !
                           ! (Angstroms and Degrees)  !
 --------------------------                            --------------------------
 ! Name  Definition              Value          Derivative Info.                !
 --------------------------------------------------------------------------------
 ! R1    R(1,2)                  1.5192         estimate D2E/DX2                !
 ! R2    R(1,9)                  1.1016         estimate D2E/DX2                !
 ! R3    R(1,10)                 1.1008         estimate D2E/DX2                !
 ! R4    R(1,11)                 1.1012         estimate D2E/DX2                !
 ! R5    R(2,3)                  1.5283         estimate D2E/DX2                !
 ! R6    R(2,4)                  1.5492         estimate D2E/DX2                !
 ! R7    R(2,6)                  1.5271         estimate D2E/DX2                !
 ! R8    R(3,12)                 1.1024         estimate D2E/DX2                !
 ! R9    R(3,13)                 1.1029         estimate D2E/DX2                !
 ! R10   R(3,14)                 1.1018         estimate D2E/DX2                !
 ! R11   R(4,5)                  1.3992         estimate D2E/DX2                !
 ! R12   R(4,15)                 1.1048         estimate D2E/DX2                !
 ! R13   R(4,16)                 1.103          estimate D2E/DX2                !
 ! R14   R(5,17)                 0.9657         estimate D2E/DX2                !
 ! R15   R(6,7)                  1.2079         estimate D2E/DX2                !
 ! R16   R(6,8)                  1.213          estimate D2E/DX2                !
 ! A1    A(2,1,9)              108.0836         estimate D2E/DX2                !
 ! A2    A(2,1,10)             111.3242         estimate D2E/DX2                !
 ! A3    A(2,1,11)             111.4514         estimate D2E/DX2                !
 ! A4    A(9,1,10)             108.4392         estimate D2E/DX2                !
 ! A5    A(9,1,11)             109.2122         estimate D2E/DX2                !
 ! A6    A(10,1,11)            108.2691         estimate D2E/DX2                !
 ! A7    A(1,2,3)              112.0341         estimate D2E/DX2                !
 ! A8    A(1,2,4)              111.1378         estimate D2E/DX2                !
 ! A9    A(1,2,6)              109.8784         estimate D2E/DX2                !
 ! A10   A(3,2,4)              111.1406         estimate D2E/DX2                !
 ! A11   A(3,2,6)              106.8239         estimate D2E/DX2                !
 ! A12   A(4,2,6)              105.5247         estimate D2E/DX2                !
 ! A13   A(2,3,12)             109.1449         estimate D2E/DX2                !
 ! A14   A(2,3,13)             110.8261         estimate D2E/DX2                !
 ! A15   A(2,3,14)             111.1564         estimate D2E/DX2                !
 ! A16   A(12,3,13)            107.625          estimate D2E/DX2                !
 ! A17   A(12,3,14)            109.4155         estimate D2E/DX2                !
 ! A18   A(13,3,14)            108.5965         estimate D2E/DX2                !
 ! A19   A(2,4,5)              111.7765         estimate D2E/DX2                !
 ! A20   A(2,4,15)             108.9625         estimate D2E/DX2                !
 ! A21   A(2,4,16)             108.7632         estimate D2E/DX2                !
 ! A22   A(5,4,15)             112.3311         estimate D2E/DX2                !
 ! A23   A(5,4,16)             106.9024         estimate D2E/DX2                !
 ! A24   A(15,4,16)            107.9614         estimate D2E/DX2                !
 ! A25   A(4,5,17)             109.4581         estimate D2E/DX2                !
 ! A26   A(2,6,7)              118.7275         estimate D2E/DX2                !
 ! A27   A(2,6,8)              116.3943         estimate D2E/DX2                !
 ! A28   A(7,6,8)              124.8778         estimate D2E/DX2                !
 ! D1    D(9,1,2,3)            -65.9132         estimate D2E/DX2                !
 ! D2    D(9,1,2,4)             59.0897         estimate D2E/DX2                !
 ! D3    D(9,1,2,6)            175.5089         estimate D2E/DX2                !
 ! D4    D(10,1,2,3)           175.0969         estimate D2E/DX2                !
 ! D5    D(10,1,2,4)           -59.9003         estimate D2E/DX2                !
 ! D6    D(10,1,2,6)            56.5189         estimate D2E/DX2                !
 ! D7    D(11,1,2,3)            54.1024         estimate D2E/DX2                !
 ! D8    D(11,1,2,4)           179.1053         estimate D2E/DX2                !
 ! D9    D(11,1,2,6)           -64.4755         estimate D2E/DX2                !
 ! D10   D(1,2,3,12)            59.2209         estimate D2E/DX2                !
 ! D11   D(1,2,3,13)           -59.1367         estimate D2E/DX2                !
 ! D12   D(1,2,3,14)           179.9953         estimate D2E/DX2                !
 ! D13   D(4,2,3,12)           -65.7804         estimate D2E/DX2                !
 ! D14   D(4,2,3,13)           175.862          estimate D2E/DX2                !
 ! D15   D(4,2,3,14)            54.994          estimate D2E/DX2                !
 ! D16   D(6,2,3,12)           179.5918         estimate D2E/DX2                !
 ! D17   D(6,2,3,13)            61.2342         estimate D2E/DX2                !
 ! D18   D(6,2,3,14)           -59.6338         estimate D2E/DX2                !
 ! D19   D(1,2,4,5)            -61.8193         estimate D2E/DX2                !
 ! D20   D(1,2,4,15)           173.4375         estimate D2E/DX2                !
 ! D21   D(1,2,4,16)            55.9797         estimate D2E/DX2                !
 ! D22   D(3,2,4,5)             63.6838         estimate D2E/DX2                !
 ! D23   D(3,2,4,15)           -61.0595         estimate D2E/DX2                !
 ! D24   D(3,2,4,16)          -178.5173         estimate D2E/DX2                !
 ! D25   D(6,2,4,5)            179.1185         estimate D2E/DX2                !
 ! D26   D(6,2,4,15)            54.3753         estimate D2E/DX2                !
 ! D27   D(6,2,4,16)           -63.0825         estimate D2E/DX2                !
 ! D28   D(1,2,6,7)              0.8153         estimate D2E/DX2                !
 ! D29   D(1,2,6,8)           -178.9552         estimate D2E/DX2                !
 ! D30   D(3,2,6,7)           -120.9267         estimate D2E/DX2                !
 ! D31   D(3,2,6,8)             59.3028         estimate D2E/DX2                !
 ! D32   D(4,2,6,7)            120.7108         estimate D2E/DX2                !
 ! D33   D(4,2,6,8)            -59.0597         estimate D2E/DX2                !
 ! D34   D(2,4,5,17)           -82.5351         estimate D2E/DX2                !
 ! D35   D(15,4,5,17)           40.3113         estimate D2E/DX2                !
 ! D36   D(16,4,5,17)          158.5566         estimate D2E/DX2                !
 --------------------------------------------------------------------------------
 Number of steps in this run=     90 maximum allowed number of steps=    102.
 GradGradGradGradGradGradGradGradGradGradGradGradGradGradGradGradGradGrad

                    Distance matrix (angstroms):
                    1          2          3          4          5
     1  C    0.000000
     2  C    1.519185   0.000000
     3  C    2.526984   1.528290   0.000000
     4  C    2.530902   1.549225   2.538425   0.000000
     5  O    2.966691   2.442556   2.989924   1.399165   0.000000
     6  N    2.493497   1.527073   2.453279   2.449178   3.716429
     7  O    2.650140   2.358841   3.370030   3.365575   4.577834
     8  O    3.605122   2.334558   2.826831   2.810002   4.123317
     9  H    1.101613   2.135516   2.796310   2.735946   2.607838
    10  H    1.100765   2.176196   3.488157   2.791857   3.344917
    11  H    1.101200   2.178115   2.753367   3.500475   3.968384
    12  H    2.759926   2.157798   1.102417   2.816623   2.715283
    13  H    2.785364   2.179614   1.102937   3.502603   4.010709
    14  H    3.487453   2.182907   1.101794   2.759330   3.313055
    15  H    3.474714   2.175585   2.780466   1.104842   2.086399
    16  H    2.730228   2.171625   3.482374   1.102986   2.017827
    17  H    3.531371   2.797905   2.841155   1.946909   0.965706
                    6          7          8          9         10
     6  N    0.000000
     7  O    1.207904   0.000000
     8  O    1.212984   2.146161   0.000000
     9  H    3.438551   3.738660   4.439748   0.000000
    10  H    2.726978   2.569715   3.871792   1.786710   0.000000
    11  H    2.793486   2.671672   3.933001   1.795709   1.784462
    12  H    3.420980   4.284360   3.850679   2.576361   3.789728
    13  H    2.707393   3.342411   3.166313   3.188885   3.775999
    14  H    2.698324   3.790121   2.568188   3.789948   4.334906
    15  H    2.614199   3.700103   2.459952   3.763150   3.764321
    16  H    2.685713   3.306607   3.151851   3.036708   2.533058
    17  H    4.080324   5.072765   4.310329   3.131217   4.105159
                   11         12         13         14         15
    11  H    0.000000
    12  H    3.060483   0.000000
    13  H    2.555893   1.779918   0.000000
    14  H    3.776965   1.799112   1.790387   0.000000
    15  H    4.327647   3.204432   3.770259   2.545636   0.000000
    16  H    3.755516   3.808366   4.326399   3.765864   1.785733
    17  H    4.407117   2.394301   3.903217   2.970308   2.244271
                   16         17
    16  H    0.000000
    17  H    2.810620   0.000000
 Framework group  C1[X(C4H9NO3)]
 Deg. of freedom    45
                         Standard orientation:                         
 ---------------------------------------------------------------------
 Center     Atomic      Atomic             Coordinates (Angstroms)
 Number     Number       Type             X           Y           Z
 ---------------------------------------------------------------------
      1          6           0       -0.295665    1.719184   -0.047215
      2          6           0       -0.146770    0.225999    0.189750
      3          6           0       -0.387025   -0.149296    1.651633
      4          6           0       -1.070156   -0.584267   -0.754138
      5          8           0       -2.420916   -0.292379   -0.535250
      6          7           0        1.274864   -0.214730   -0.151814
      7          8           0        2.065717    0.616820   -0.528785
      8          8           0        1.518828   -1.395930   -0.023061
      9          1           0       -1.348756    1.990087    0.129312
     10          1           0       -0.035837    1.988048   -1.082534
     11          1           0        0.346892    2.300800    0.632112
     12          1           0       -1.404657    0.159883    1.941732
     13          1           0        0.322717    0.375493    2.312944
     14          1           0       -0.275601   -1.234360    1.807105
     15          1           0       -0.848743   -1.660266   -0.636330
     16          1           0       -0.846200   -0.303101   -1.796907
     17          1           0       -2.745200   -0.811279    0.211858
 ---------------------------------------------------------------------
 Rotational constants (GHZ):           3.0582154           1.5872324           1.4460749
   130 basis functions,   236 primitive gaussians,   138 cartesian basis functions
    32 alpha electrons       31 beta electrons
       nuclear repulsion energy       419.8752060386 Hartrees.
 NAtoms=   17 NActive=   17 NUniq=   17 SFac= 1.00D+00 NAtFMM=   60 NAOKFM=F Big=F
 Nuclear repulsion after empirical dispersion term =      419.8647133529 Hartrees.
   1 Symmetry operations used in ECPInt.
 ECPInt:  NShTT=    2211 NPrTT=    8909 LenC2=    2195 LenP2D=    7070.
 LDataN:  DoStor=T MaxTD1= 4 Len=   56
 ExpMin= 1.22D-01 ExpMax= 2.27D+03 ExpMxC= 3.41D+02 IAcc=3 IRadAn=         5 AccDes= 0.00D+00
 Harris functional with IExCor= 4639 and IRadAn=       5 diagonalized for initial guess.
 HarFok:  IExCor= 4639 AccDes= 0.00D+00 IRadAn=         5 IDoV= 1 UseB2=F ITyADJ=14
 ICtDFT=  3500011 ScaDFX=  1.000000  1.000000  1.000000  1.000000
 FoFCou: FMM=F IPFlag=           0 FMFlag=      100000 FMFlg1=           0
         NFxFlg=           0 DoJE=T BraDBF=F KetDBF=T FulRan=T
         wScrn=  0.000000 ICntrl=       500 IOpCl=  0 I1Cent=   200000004 NGrid=           0
         NMat0=    1 NMatS0=      1 NMatT0=    0 NMatD0=    1 NMtDS0=    0 NMtDT0=    0
 Petite list used in FoFCou.
 Initial guess <Sx>= 0.0000 <Sy>= 0.0000 <Sz>= 0.5000 <S**2>= 0.7500 S= 0.5000
     Minimum is close to point  4 DX= -1.25D-02 DF= -1.61D-04 DXR=  2.13D-02 DFR=  4.58D-04 which will be used.
     Accept linear search using points  2 and  3.
     Accept linear search using points  1 and  2.
     Minimum is close to point  3 DX= -2.18D-03 DF= -3.37D-08 DXR=  5.48D-03 DFR=  3.00D-05 which will be used.
     Accept linear search using points  2 and  3.
     Accept linear search using points  1 and  2.
     Accept linear search using points  3 and  4.
     Minimum is close to point  3 DX= -1.56D-02 DF= -2.15D-06 DXR=  4.05D-02 DFR=  1.64D-03 which will be used.
     Accept linear search using points  2 and  3.
     Accept linear search using points  1 and  2.
     Minimum is close to point  3 DX= -1.70D-02 DF= -2.11D-06 DXR=  4.43D-02 DFR=  1.96D-03 which will be used.
     Accept linear search using points  1 and  2.
     Minimum is close to point  3 DX= -2.35D-02 DF= -2.70D-06 DXR=  6.24D-02 DFR=  3.91D-03 which will be used.
     Accept linear search using points  1 and  2.
     Accept linear search using points  1 and  2.
     Accept linear search using points  1 and  2.
     Minimum is close to point  2 DX= -5.45D-02 DF= -2.09D-06 DXR=  5.76D-02 DFR=  3.62D-03 which will be used.
     Accept linear search using points  1 and  2.
     Accept linear search using points  1 and  2.
     Minimum is close to point  2 DX= -3.49D-03 DF= -1.53D-12 DXR=  3.50D-03 DFR=  1.21D-05 which will be used.
 SCF Done:  E(UwB97XD) =  -437.298564505     a.u. after   28 cycles
            Convg  =    0.1810D-07                   161 Fock formations.
              S**2 =  0.7670                  -V/T =  2.0076
 <Sx>= 0.0000 <Sy>= 0.0000 <Sz>= 0.5000 <S**2>= 0.7670 S= 0.5085
 <L.S>=  0.00000000000    
 Annihilation of the first spin contaminant:
 S**2 before annihilation     0.7670,   after     0.7501

 **********************************************************************

            Population analysis using the SCF Density.

 **********************************************************************

 Orbital symmetries:
 Alpha Orbitals:
       Occupied  (A) (A) (A) (A) (A) (A) (A) (A) (A) (A) (A) (A)
                 (A) (A) (A) (A) (A) (A) (A) (A) (A) (A) (A) (A)
                 (A) (A) (A) (A) (A) (A) (A) (A)
       Virtual   (A) (A) (A) (A) (A) (A) (A) (A) (A) (A) (A) (A)
                 (A) (A) (A) (A) (A) (A) (A) (A) (A) (A) (A) (A)
                 (A) (A) (A) (A) (A) (A) (A) (A) (A) (A) (A) (A)
                 (A) (A) (A) (A) (A) (A) (A) (A) (A) (A) (A) (A)
                 (A) (A) (A) (A) (A) (A) (A) (A) (A) (A) (A) (A)
                 (A) (A) (A) (A) (A) (A) (A) (A) (A) (A) (A) (A)
                 (A) (A) (A) (A) (A) (A) (A) (A) (A) (A) (A) (A)
                 (A) (A) (A) (A) (A) (A) (A) (A) (A) (A) (A) (A)
                 (A) (A)
 Beta  Orbitals:
       Occupied  (A) (A) (A) (A) (A) (A) (A) (A) (A) (A) (A) (A)
                 (A) (A) (A) (A) (A) (A) (A) (A) (A) (A) (A) (A)
                 (A) (A) (A) (A) (A) (A) (A)
       Virtual   (A) (A) (A) (A) (A) (A) (A) (A) (A) (A) (A) (A)
                 (A) (A) (A) (A) (A) (A) (A) (A) (A) (A) (A) (A)
                 (A) (A) (A) (A) (A) (A) (A) (A) (A) (A) (A) (A)
                 (A) (A) (A) (A) (A) (A) (A) (A) (A) (A) (A) (A)
                 (A) (A) (A) (A) (A) (A) (A) (A) (A) (A) (A) (A)
                 (A) (A) (A) (A) (A) (A) (A) (A) (A) (A) (A) (A)
                 (A) (A) (A) (A) (A) (A) (A) (A) (A) (A) (A) (A)
                 (A) (A) (A) (A) (A) (A) (A) (A) (A) (A) (A) (A)
                 (A) (A) (A)
 The electronic state is 2-A.
 Alpha  occ. eigenvalues --  -19.56796 -19.55842 -19.51962 -14.91110 -10.60564
 Alpha  occ. eigenvalues --  -10.59360 -10.49654 -10.48365  -1.58080  -1.40685
 Alpha  occ. eigenvalues --   -1.40282  -1.18120  -1.02574  -1.00933  -0.99262
 Alpha  occ. eigenvalues --   -0.90081  -0.88114  -0.85093  -0.84163  -0.83234
 Alpha  occ. eigenvalues --   -0.78313  -0.76059  -0.72445  -0.70284  -0.69121
 Alpha  occ. eigenvalues --   -0.67387  -0.66000  -0.64960  -0.64182  -0.63676
 Alpha  occ. eigenvalues --   -0.62598  -0.60484
 Alpha virt. eigenvalues --   -0.21902  -0.07795  -0.04067  -0.01680   0.00292
 Alpha virt. eigenvalues --    0.01509   0.02503   0.03460   0.04906   0.05704
 Alpha virt. eigenvalues --    0.07086   0.08260   0.10062   0.10390   0.11524
 Alpha virt. eigenvalues --    0.16845   0.24807   0.28032   0.29771   0.31024
 Alpha virt. eigenvalues --    0.36201   0.38431   0.40077   0.41896   0.45191
 Alpha virt. eigenvalues --    0.47605   0.49296   0.50934   0.52701   0.55024
 Alpha virt. eigenvalues --    0.55632   0.57128   0.59255   0.60121   0.61331
 Alpha virt. eigenvalues --    0.62345   0.63413   0.63985   0.64852   0.70292
 Alpha virt. eigenvalues --    0.71443   0.74645   0.78109   0.80586   0.82924
 Alpha virt. eigenvalues --    0.87104   0.87713   0.92217   0.93761   0.94629
 Alpha virt. eigenvalues --    0.96570   1.01155   1.03976   1.13271   1.15235
 Alpha virt. eigenvalues --    1.23420   1.26067   1.33491   1.40992   1.48891
 Alpha virt. eigenvalues --    1.56044   1.58630   1.62016   1.64856   1.66920
 Alpha virt. eigenvalues --    1.69452   1.81958   1.87092   1.88976   1.92940
 Alpha virt. eigenvalues --    1.95659   1.98121   2.00706   2.04082   2.05809
 Alpha virt. eigenvalues --    2.11031   2.19179   2.26194   2.30911   2.34004
 Alpha virt. eigenvalues --    2.40160   2.42859   2.44794   2.49631   2.50505
 Alpha virt. eigenvalues --    2.51041   2.53275   2.62225   2.63999   2.80320
 Alpha virt. eigenvalues --    2.82022   2.91883   2.99743   3.15711   3.19666
 Alpha virt. eigenvalues --    3.27855   3.58962   3.63074
  Beta  occ. eigenvalues --  -19.55726 -19.54971 -19.52034 -14.91094 -10.60338
  Beta  occ. eigenvalues --  -10.59253 -10.49658 -10.48358  -1.57148  -1.39188
  Beta  occ. eigenvalues --   -1.38547  -1.17149  -1.01602  -1.00103  -0.99068
  Beta  occ. eigenvalues --   -0.89043  -0.87108  -0.84367  -0.82517  -0.82293
  Beta  occ. eigenvalues --   -0.77703  -0.74647  -0.71588  -0.69248  -0.67271
  Beta  occ. eigenvalues --   -0.66142  -0.65480  -0.63895  -0.62581  -0.60257
  Beta  occ. eigenvalues --   -0.57413
  Beta virt. eigenvalues --   -0.40459  -0.21490  -0.07424  -0.03413  -0.01454
  Beta virt. eigenvalues --    0.00511   0.01668   0.02651   0.03661   0.05275
  Beta virt. eigenvalues --    0.05947   0.07519   0.08516   0.10505   0.10673
  Beta virt. eigenvalues --    0.11772   0.17492   0.25573   0.28388   0.29966
  Beta virt. eigenvalues --    0.31205   0.36437   0.38829   0.40391   0.42600
  Beta virt. eigenvalues --    0.45498   0.47832   0.49821   0.51456   0.53005
  Beta virt. eigenvalues --    0.55370   0.55902   0.57472   0.59402   0.60208
  Beta virt. eigenvalues --    0.61541   0.62439   0.64004   0.64195   0.64957
  Beta virt. eigenvalues --    0.70561   0.71613   0.75019   0.78942   0.81132
  Beta virt. eigenvalues --    0.83182   0.87620   0.88203   0.92698   0.93681
  Beta virt. eigenvalues --    0.95910   0.98435   1.01477   1.04594   1.13773
  Beta virt. eigenvalues --    1.15668   1.23766   1.26644   1.34297   1.41697
  Beta virt. eigenvalues --    1.49384   1.56314   1.59020   1.62768   1.65247
  Beta virt. eigenvalues --    1.67579   1.69666   1.82180   1.87350   1.89374
  Beta virt. eigenvalues --    1.93324   1.95979   1.98489   2.00968   2.04178
  Beta virt. eigenvalues --    2.05983   2.11458   2.19829   2.26818   2.31526
  Beta virt. eigenvalues --    2.34871   2.42211   2.45264   2.46650   2.49770
  Beta virt. eigenvalues --    2.51595   2.51860   2.53975   2.63565   2.65264
  Beta virt. eigenvalues --    2.82318   2.83830   2.92342   3.00896   3.16078
  Beta virt. eigenvalues --    3.20721   3.28771   3.59854   3.63670
          Condensed to atoms (all electrons):
          Atomic-Atomic Spin Densities.
 Mulliken charges and spin densities:
               1          2
     1  C   -0.262448   0.006351
     2  C   -0.287478   0.128025
     3  C   -0.302781   0.002252
     4  C    0.037163   0.049226
     5  O   -0.273874   0.359357
     6  N    0.257831  -0.000356
     7  O   -0.012887   0.436401
     8  O   -0.129870  -0.031707
     9  H    0.187056  -0.002480
    10  H    0.185168   0.001840
    11  H    0.197755   0.007520
    12  H    0.184291   0.008233
    13  H    0.207713   0.013658
    14  H    0.196617   0.001133
    15  H    0.223349   0.028016
    16  H    0.203714   0.003805
    17  H    0.388682  -0.011274
 Sum of Mulliken charges =   1.00000   1.00000
 Mulliken charges and spin densities with hydrogens summed into heavy atoms:
               1          2
     1  C    0.307531   0.013231
     2  C   -0.287478   0.128025
     3  C    0.285840   0.025275
     4  C    0.464225   0.081048
     5  O    0.114808   0.348083
     6  N    0.257831  -0.000356
     7  O   -0.012887   0.436401
     8  O   -0.129870  -0.031707
 Electronic spatial extent (au):  <R**2>=            918.1838
 Charge=              1.0000 electrons
 Dipole moment (field-independent basis, Debye):
    X=             -3.6939    Y=             -0.3302    Z=              1.1117  Tot=              3.8716
                          Isotropic Fermi Contact Couplings
        Atom                 a.u.       MegaHertz       Gauss      10(-4) cm-1
     1  C(13)             -0.00220      -2.47823      -0.88429      -0.82665
     2  C(13)             -0.02065     -23.21067      -8.28214      -7.74224
     3  C(13)             -0.00516      -5.80384      -2.07096      -1.93595
     4  C(13)             -0.00913     -10.26271      -3.66199      -3.42327
     5  O(17)              0.13157     -79.75904     -28.46001     -26.60475
     6  N(14)             -0.01742      -5.62889      -2.00853      -1.87759
     7  O(17)              0.14543     -88.15634     -31.45637     -29.40579
     8  O(17)             -0.02604      15.78673       5.63310       5.26589
     9  H(1)              -0.00038      -1.70398      -0.60802      -0.56839
    10  H(1)               0.00134       6.00838       2.14394       2.00418
    11  H(1)               0.00274      12.26344       4.37590       4.09064
    12  H(1)               0.00264      11.78073       4.20366       3.92963
    13  H(1)               0.00646      28.86021      10.29804       9.62673
    14  H(1)               0.00049       2.19535       0.78336       0.73229
    15  H(1)               0.01361      60.85187      21.71346      20.29800
    16  H(1)               0.00172       7.68183       2.74107       2.56238
    17  H(1)              -0.00497     -22.22502      -7.93044      -7.41347
 --------------------------------------------------------
       Center         ----  Spin Dipole Couplings  ----
                      3XX-RR        3YY-RR        3ZZ-RR
 --------------------------------------------------------
     1   Atom       -0.004529      0.011369     -0.006840
     2   Atom        0.188625     -0.074698     -0.113927
     3   Atom        0.005099     -0.006733      0.001634
     4   Atom       -0.029136      0.029956     -0.000820
     5   Atom       -0.419615      0.317732      0.101883
     6   Atom        0.084590     -0.035250     -0.049340
     7   Atom        0.445594     -0.060527     -0.385066
     8   Atom        0.118015      0.194661     -0.312676
     9   Atom        0.000685      0.005689     -0.006373
    10   Atom        0.001147      0.002218     -0.003365
    11   Atom        0.000524      0.003331     -0.003855
    12   Atom       -0.001234     -0.004890      0.006124
    13   Atom       -0.001422     -0.004395      0.005816
    14   Atom       -0.001803     -0.000508      0.002311
    15   Atom       -0.004566      0.014280     -0.009715
    16   Atom       -0.002251     -0.007505      0.009757
    17   Atom       -0.028080     -0.004341      0.032421
 --------------------------------------------------------
                        XY            XZ            YZ
 --------------------------------------------------------
     1   Atom       -0.007721     -0.005347      0.014402
     2   Atom        0.168546      0.112875      0.038837
     3   Atom        0.010172      0.003870      0.002118
     4   Atom        0.065456      0.055386      0.104092
     5   Atom        0.567152      0.493461      0.925032
     6   Atom       -0.022131     -0.044296     -0.000824
     7   Atom       -1.042463     -0.532594      0.564695
     8   Atom       -0.129535     -0.073858     -0.007773
     9   Atom       -0.000424      0.000589      0.002599
    10   Atom       -0.001596      0.001227     -0.006687
    11   Atom       -0.001554     -0.001299      0.004638
    12   Atom       -0.000218     -0.001018      0.001608
    13   Atom        0.001919      0.001967      0.001413
    14   Atom       -0.000097      0.001274     -0.004780
    15   Atom       -0.009082      0.002674     -0.005896
    16   Atom        0.003926     -0.005983     -0.004469
    17   Atom        0.028535     -0.024343     -0.035830
 --------------------------------------------------------


 ---------------------------------------------------------------------------------
              Anisotropic Spin Dipole Couplings in Principal Axis System
 ---------------------------------------------------------------------------------

       Atom             a.u.   MegaHertz   Gauss  10(-4) cm-1        Axes

              Baa    -0.0149    -1.998    -0.713    -0.667  0.1217 -0.4496  0.8849
     1 C(13)  Bbb    -0.0076    -1.025    -0.366    -0.342  0.9373  0.3454  0.0466
              Bcc     0.0225     3.024     1.079     1.009 -0.3266  0.8238  0.4634
 
              Baa    -0.1670   -22.412    -7.997    -7.476 -0.4930  0.6633  0.5630
     2 C(13)  Bbb    -0.1374   -18.439    -6.579    -6.151  0.0522 -0.6234  0.7801
              Bcc     0.3044    40.851    14.577    13.626  0.8684  0.4140  0.2727
 
              Baa    -0.0126    -1.689    -0.603    -0.563 -0.4997  0.8661  0.0070
     3 C(13)  Bbb    -0.0001    -0.016    -0.006    -0.005 -0.3173 -0.1906  0.9290
              Bcc     0.0127     1.705     0.608     0.569  0.8060  0.4620  0.3701
 
              Baa    -0.0907   -12.169    -4.342    -4.059  0.0314 -0.6627  0.7483
     4 C(13)  Bbb    -0.0682    -9.153    -3.266    -3.053  0.9093 -0.2918 -0.2966
              Bcc     0.1589    21.321     7.608     7.112  0.4149  0.6897  0.5934
 
              Baa    -0.7300    52.826    18.850    17.621  0.6824 -0.6553  0.3239
     5 O(17)  Bbb    -0.7142    51.682    18.442    17.239 -0.6281 -0.2988  0.7185
              Bcc     1.4443  -104.508   -37.291   -34.860  0.3740  0.6937  0.6155
 
              Baa    -0.0646    -2.491    -0.889    -0.831  0.3101  0.2595  0.9146
     6 N(14)  Bbb    -0.0366    -1.410    -0.503    -0.470  0.0670  0.9537 -0.2933
              Bcc     0.1011     3.901     1.392     1.301  0.9484 -0.1522 -0.2783
 
              Baa    -0.9282    67.161    23.965    22.402  0.4600  0.8014 -0.3822
     7 O(17)  Bbb    -0.6397    46.291    16.518    15.441  0.5188  0.1068  0.8482
              Bcc     1.5679  -113.452   -40.482   -37.843  0.7206 -0.5885 -0.3667
 
              Baa    -0.3267    23.641     8.436     7.886  0.1804  0.0594  0.9818
     8 O(17)  Bbb     0.0329    -2.377    -0.848    -0.793  0.7723  0.6096 -0.1788
              Bcc     0.2939   -21.264    -7.587    -7.093 -0.6092  0.7904  0.0640
 
              Baa    -0.0070    -3.717    -1.326    -1.240 -0.0863 -0.2032  0.9753
     9 H(1)   Bbb     0.0007     0.387     0.138     0.129  0.9948  0.0351  0.0953
              Bcc     0.0062     3.330     1.188     1.111 -0.0536  0.9785  0.1991
 
              Baa    -0.0078    -4.173    -1.489    -1.392 -0.0157  0.5526  0.8333
    10 H(1)   Bbb     0.0005     0.265     0.094     0.088  0.9509  0.2659 -0.1584
              Bcc     0.0073     3.909     1.395     1.304 -0.3091  0.7899 -0.5296
 
              Baa    -0.0062    -3.290    -1.174    -1.097  0.0756 -0.4276  0.9008
    11 H(1)   Bbb    -0.0001    -0.061    -0.022    -0.020  0.9429  0.3245  0.0749
              Bcc     0.0063     3.351     1.196     1.118 -0.3243  0.8437  0.4277
 
              Baa    -0.0051    -2.733    -0.975    -0.911  0.0189  0.9900 -0.1399
    12 H(1)   Bbb    -0.0014    -0.732    -0.261    -0.244  0.9909  0.0001  0.1345
              Bcc     0.0065     3.465     1.236     1.156 -0.1332  0.1411  0.9810
 
              Baa    -0.0054    -2.855    -1.019    -0.952 -0.4220  0.9057 -0.0403
    13 H(1)   Bbb    -0.0013    -0.683    -0.244    -0.228  0.8650  0.3889 -0.3171
              Bcc     0.0066     3.538     1.263     1.180  0.2716  0.1687  0.9475
 
              Baa    -0.0043    -2.284    -0.815    -0.762 -0.2782  0.7512  0.5985
    14 H(1)   Bbb    -0.0018    -0.936    -0.334    -0.312  0.9507  0.3043  0.0599
              Bcc     0.0060     3.219     1.149     1.074  0.1371 -0.5857  0.7988
 
              Baa    -0.0112    -5.963    -2.128    -1.989 -0.1647  0.1664  0.9722
    15 H(1)   Bbb    -0.0082    -4.378    -1.562    -1.460  0.9154  0.3928  0.0878
              Bcc     0.0194    10.342     3.690     3.450 -0.3672  0.9045 -0.2170
 
              Baa    -0.0097    -5.172    -1.846    -1.725 -0.4131  0.9071  0.0814
    16 H(1)   Bbb    -0.0040    -2.156    -0.769    -0.719  0.8212  0.3324  0.4638
              Bcc     0.0137     7.329     2.615     2.445 -0.3936 -0.2584  0.8822
 
              Baa    -0.0471   -25.140    -8.971    -8.386  0.8347 -0.5506  0.0075
    17 H(1)   Bbb    -0.0207   -11.020    -3.932    -3.676  0.4226  0.6494  0.6322
              Bcc     0.0678    36.160    12.903    12.062 -0.3529 -0.5246  0.7747
 

 ---------------------------------------------------------------------------------

   1 Symmetry operations used in ECPInt.
 ECPInt:  NShTT=    2211 NPrTT=    8909 LenC2=    2195 LenP2D=    7070.
 LDataN:  DoStor=T MaxTD1= 5 Len=  102
 Calling FoFJK, ICntrl=      2127 FMM=F ISym2X=0 I1Cent= 0 IOpClX= 1 NMat=1 NMatS=1 NMatT=0.

 GradGradGradGradGradGradGradGradGradGradGradGradGradGradGradGradGradGrad
 FormGI is forming the generalized inverse of G from B-inverse, IUseBI=4.
 Internal  Forces:  Max     0.029699696 RMS     0.007135675
 Step number   1 out of a maximum of   90
 All quantities printed in internal units (Hartrees-Bohrs-Radians)
 Mixed Optimization -- RFO/linear search
 Second derivative matrix not updated -- first step.
 ITU=  0
     Eigenvalues ---    0.00230   0.00230   0.00230   0.00392   0.00512
     Eigenvalues ---    0.01703   0.04152   0.04870   0.05436   0.05534
     Eigenvalues ---    0.05573   0.05770   0.05912   0.05918   0.06016
     Eigenvalues ---    0.11564   0.13941   0.14951   0.15351   0.16000
     Eigenvalues ---    0.16000   0.16000   0.16000   0.16000   0.16000
     Eigenvalues ---    0.16000   0.22058   0.25000   0.25000   0.27717
     Eigenvalues ---    0.29582   0.29695   0.30445   0.33152   0.33354
     Eigenvalues ---    0.33359   0.33416   0.33484   0.33504   0.33550
     Eigenvalues ---    0.33598   0.45759   0.54264   0.98561   1.00950
 Linear search not attempted -- first point.
 Iteration  1 RMS(Cart)=  0.03968037 RMS(Int)=  0.00189492
 Iteration  2 RMS(Cart)=  0.00220005 RMS(Int)=  0.00068505
 Iteration  3 RMS(Cart)=  0.00000637 RMS(Int)=  0.00068502
 Iteration  4 RMS(Cart)=  0.00000001 RMS(Int)=  0.00068502
 Variable       Old X    -DE/DX   Delta X   Delta X   Delta X     New X
                                 (Linear)    (Quad)   (Total)
    R1        2.87084   0.00583   0.00000   0.01821   0.01821   2.88906
    R2        2.08175  -0.00045   0.00000  -0.00128  -0.00128   2.08047
    R3        2.08014   0.00141   0.00000   0.00402   0.00402   2.08416
    R4        2.08097  -0.00045   0.00000  -0.00127  -0.00127   2.07969
    R5        2.88805  -0.00094   0.00000  -0.00302  -0.00302   2.88503
    R6        2.92761   0.02597   0.00000   0.08865   0.08865   3.01626
    R7        2.88575   0.01060   0.00000   0.03389   0.03389   2.91964
    R8        2.08327  -0.00066   0.00000  -0.00187  -0.00187   2.08139
    R9        2.08425   0.00059   0.00000   0.00169   0.00169   2.08594
   R10        2.08209   0.00028   0.00000   0.00080   0.00080   2.08289
   R11        2.64404  -0.02970   0.00000  -0.06274  -0.06274   2.58130
   R12        2.08785   0.00218   0.00000   0.00627   0.00627   2.09412
   R13        2.08434  -0.00076   0.00000  -0.00218  -0.00218   2.08216
   R14        1.82492   0.01294   0.00000   0.02318   0.02318   1.84810
   R15        2.28261   0.00210   0.00000   0.00205   0.00205   2.28466
   R16        2.29221  -0.02204   0.00000  -0.02201  -0.02201   2.27020
    A1        1.88641   0.00156   0.00000   0.00755   0.00746   1.89387
    A2        1.94297   0.00266   0.00000   0.01831   0.01827   1.96124
    A3        1.94519  -0.00203   0.00000  -0.01333  -0.01331   1.93189
    A4        1.89262  -0.00145   0.00000  -0.00438  -0.00453   1.88809
    A5        1.90611  -0.00083   0.00000  -0.01108  -0.01110   1.89501
    A6        1.88965   0.00002   0.00000   0.00253   0.00259   1.89224
    A7        1.95536  -0.00196   0.00000   0.01987   0.01923   1.97460
    A8        1.93972  -0.00117   0.00000  -0.00614  -0.00679   1.93293
    A9        1.91774   0.00569   0.00000   0.03165   0.03059   1.94833
   A10        1.93977   0.00632   0.00000   0.04145   0.04075   1.98051
   A11        1.86443  -0.00055   0.00000  -0.00461  -0.00426   1.86017
   A12        1.84175  -0.00861   0.00000  -0.08822  -0.08767   1.75408
   A13        1.90494   0.00123   0.00000   0.00772   0.00758   1.91252
   A14        1.93428  -0.00134   0.00000  -0.01279  -0.01278   1.92150
   A15        1.94005   0.00142   0.00000   0.01259   0.01249   1.95254
   A16        1.87841  -0.00140   0.00000  -0.01715  -0.01718   1.86124
   A17        1.90966   0.00023   0.00000   0.01153   0.01130   1.92096
   A18        1.89537  -0.00023   0.00000  -0.00262  -0.00257   1.89280
   A19        1.95087  -0.01327   0.00000  -0.06726  -0.06823   1.88263
   A20        1.90175  -0.00095   0.00000  -0.01981  -0.02084   1.88091
   A21        1.89828   0.00289   0.00000   0.01666   0.01677   1.91504
   A22        1.96055   0.00518   0.00000   0.00825   0.00604   1.96659
   A23        1.86580   0.00370   0.00000   0.01427   0.01423   1.88003
   A24        1.88428   0.00308   0.00000   0.05362   0.05344   1.93772
   A25        1.91040   0.00825   0.00000   0.04691   0.04691   1.95732
   A26        2.07219  -0.02424   0.00000  -0.09105  -0.09341   1.97878
   A27        2.03146   0.00799   0.00000   0.03021   0.02785   2.05932
   A28        2.17953   0.01625   0.00000   0.06129   0.05891   2.23843
    D1       -1.15040  -0.00071   0.00000  -0.00368  -0.00314  -1.15354
    D2        1.03131   0.00525   0.00000   0.06122   0.06121   1.09252
    D3        3.06321  -0.00253   0.00000  -0.03130  -0.03173   3.03148
    D4        3.05602  -0.00148   0.00000  -0.01384  -0.01339   3.04263
    D5       -1.04546   0.00447   0.00000   0.05106   0.05096  -0.99449
    D6        0.98644  -0.00330   0.00000  -0.04146  -0.04198   0.94447
    D7        0.94426  -0.00196   0.00000  -0.02055  -0.02002   0.92424
    D8        3.12598   0.00400   0.00000   0.04435   0.04433  -3.11288
    D9       -1.12531  -0.00378   0.00000  -0.04816  -0.04861  -1.17392
   D10        1.03360  -0.00286   0.00000  -0.03983  -0.03932   0.99428
   D11       -1.03213  -0.00110   0.00000  -0.01591  -0.01537  -1.04750
   D12        3.14151  -0.00087   0.00000  -0.01240  -0.01177   3.12974
   D13       -1.14809  -0.00469   0.00000  -0.07845  -0.07893  -1.22702
   D14        3.06937  -0.00292   0.00000  -0.05454  -0.05498   3.01439
   D15        0.95983  -0.00269   0.00000  -0.05103  -0.05139   0.90844
   D16        3.13447   0.00262   0.00000   0.00775   0.00757  -3.14115
   D17        1.06874   0.00438   0.00000   0.03167   0.03151   1.10025
   D18       -1.04081   0.00462   0.00000   0.03517   0.03511  -1.00570
   D19       -1.07895  -0.00040   0.00000  -0.02135  -0.02027  -1.09922
   D20        3.02705   0.00287   0.00000   0.02919   0.02909   3.05614
   D21        0.97703  -0.00191   0.00000  -0.03328  -0.03280   0.94423
   D22        1.11149   0.00091   0.00000   0.03117   0.03216   1.14365
   D23       -1.06569   0.00418   0.00000   0.08171   0.08151  -0.98417
   D24       -3.11571  -0.00060   0.00000   0.01924   0.01963  -3.09608
   D25        3.12621  -0.00145   0.00000  -0.00332  -0.00361   3.12259
   D26        0.94903   0.00182   0.00000   0.04721   0.04574   0.99477
   D27       -1.10100  -0.00296   0.00000  -0.01526  -0.01614  -1.11714
   D28        0.01423   0.00283   0.00000   0.11115   0.11132   0.12555
   D29       -3.12336   0.00071   0.00000  -0.00651  -0.00615  -3.12951
   D30       -2.11057   0.00224   0.00000   0.07158   0.07204  -2.03853
   D31        1.03503   0.00012   0.00000  -0.04608  -0.04543   0.98960
   D32        2.10680  -0.00051   0.00000   0.06970   0.06879   2.17560
   D33       -1.03079  -0.00264   0.00000  -0.04796  -0.04868  -1.07947
   D34       -1.44051   0.00158   0.00000   0.01159   0.01150  -1.42901
   D35        0.70356  -0.00573   0.00000  -0.05849  -0.05862   0.64494
   D36        2.76733   0.00328   0.00000   0.02059   0.02082   2.78815
         Item               Value     Threshold  Converged?
 Maximum Force            0.029700     0.000015     NO 
 RMS     Force            0.007136     0.000010     NO 
 Maximum Displacement     0.114485     0.000060     NO 
 RMS     Displacement     0.040466     0.000040     NO 
 GradGradGradGradGradGradGradGradGradGradGradGradGradGradGradGradGradGrad

                    Distance matrix (angstroms):
                    1          2          3          4          5
     1  C    0.000000
     2  C    1.528824   0.000000
     3  C    2.549950   1.526691   0.000000
     4  C    2.571760   1.596138   2.611485   0.000000
     5  O    2.929649   2.398200   3.004145   1.365965   0.000000
     6  N    2.542789   1.545005   2.462516   2.415292   3.636296
     7  O    2.611672   2.308872   3.300000   3.322225   4.471211
     8  O    3.647140   2.360603   2.834826   2.788574   4.058443
     9  H    1.100936   2.148978   2.830984   2.802798   2.611069
    10  H    1.102892   2.199353   3.515015   2.815923   3.297264
    11  H    1.100526   2.176535   2.761734   3.539190   3.935289
    12  H    2.774038   2.161234   1.101427   2.933466   2.799581
    13  H    2.806709   2.169600   1.103832   3.562206   4.023588
    14  H    3.512843   2.190762   1.102218   2.822903   3.325734
    15  H    3.506323   2.203460   2.811177   1.108162   2.064237
    16  H    2.771081   2.224580   3.546131   1.101831   1.998990
    17  H    3.505215   2.772564   2.865580   1.956900   0.977972
                    6          7          8          9         10
     6  N    0.000000
     7  O    1.208988   0.000000
     8  O    1.201339   2.168716   0.000000
     9  H    3.482137   3.699732   4.479842   0.000000
    10  H    2.779667   2.565549   3.922292   1.784962   0.000000
    11  H    2.857544   2.630661   3.980980   1.787504   1.787310
    12  H    3.435533   4.212207   3.866200   2.609465   3.814296
    13  H    2.717145   3.247764   3.166717   3.226086   3.794196
    14  H    2.696760   3.737505   2.571496   3.823608   4.367077
    15  H    2.566169   3.670612   2.422117   3.811581   3.800567
    16  H    2.657653   3.281270   3.142153   3.103436   2.562136
    17  H    4.035704   4.996021   4.281664   3.121796   4.075060
                   11         12         13         14         15
    11  H    0.000000
    12  H    3.043287   0.000000
    13  H    2.566542   1.768594   0.000000
    14  H    3.791029   1.805814   1.789803   0.000000
    15  H    4.352341   3.275602   3.788570   2.573223   0.000000
    16  H    3.789530   3.913266   4.372400   3.826242   1.821574
    17  H    4.383422   2.474840   3.933614   3.000229   2.249306
                   16         17
    16  H    0.000000
    17  H    2.826785   0.000000
 Framework group  C1[X(C4H9NO3)]
 Deg. of freedom    45
                         Standard orientation:                         
 ---------------------------------------------------------------------
 Center     Atomic      Atomic             Coordinates (Angstroms)
 Number     Number       Type             X           Y           Z
 ---------------------------------------------------------------------
      1          6           0       -0.342459    1.730885   -0.141547
      2          6           0       -0.154365    0.252807    0.200809
      3          6           0       -0.330126   -0.045618    1.687696
      4          6           0       -1.056432   -0.665464   -0.742967
      5          8           0       -2.365008   -0.358030   -0.500121
      6          7           0        1.255911   -0.246253   -0.185326
      7          8           0        1.993513    0.638048   -0.553577
      8          8           0        1.522661   -1.398963    0.022802
      9          1           0       -1.392508    2.002533    0.047302
     10          1           0       -0.115310    1.949151   -1.198492
     11          1           0        0.301769    2.361283    0.489900
     12          1           0       -1.325562    0.291966    2.016765
     13          1           0        0.408103    0.523819    2.278631
     14          1           0       -0.202083   -1.117716    1.909266
     15          1           0       -0.816635   -1.723092   -0.515053
     16          1           0       -0.847464   -0.431529   -1.799205
     17          1           0       -2.710722   -0.816748    0.291390
 ---------------------------------------------------------------------
 Rotational constants (GHZ):           2.9594584           1.6291434           1.4745744
   130 basis functions,   236 primitive gaussians,   138 cartesian basis functions
    32 alpha electrons       31 beta electrons
       nuclear repulsion energy       420.2126391933 Hartrees.
 NAtoms=   17 NActive=   17 NUniq=   17 SFac= 1.00D+00 NAtFMM=   60 NAOKFM=F Big=F
 Nuclear repulsion after empirical dispersion term =      420.2021692666 Hartrees.
   1 Symmetry operations used in ECPInt.
 ECPInt:  NShTT=    2211 NPrTT=    8909 LenC2=    2195 LenP2D=    7071.
 LDataN:  DoStor=T MaxTD1= 4 Len=   56
 Initial guess from the checkpoint file:  "37.chk"
 B after Tr=     0.000000   -0.000000    0.000000
         Rot=    0.999565    0.027500   -0.006790   -0.008271 Ang=   3.38 deg.
 Initial guess <Sx>= 0.0000 <Sy>= 0.0000 <Sz>= 0.5000 <S**2>= 0.7665 S= 0.5082
 ExpMin= 1.22D-01 ExpMax= 2.27D+03 ExpMxC= 3.41D+02 IAcc=3 IRadAn=         5 AccDes= 0.00D+00
 Harris functional with IExCor= 4639 and IRadAn=       5 diagonalized for initial guess.
 HarFok:  IExCor= 4639 AccDes= 0.00D+00 IRadAn=         5 IDoV= 1 UseB2=F ITyADJ=14
 ICtDFT=  3500011 ScaDFX=  1.000000  1.000000  1.000000  1.000000
 FoFCou: FMM=F IPFlag=           0 FMFlag=      100000 FMFlg1=           0
         NFxFlg=           0 DoJE=T BraDBF=F KetDBF=T FulRan=T
         wScrn=  0.000000 ICntrl=       500 IOpCl=  0 I1Cent=   200000004 NGrid=           0
         NMat0=    1 NMatS0=      1 NMatT0=    0 NMatD0=    1 NMtDS0=    0 NMtDT0=    0
 Petite list used in FoFCou.
     Accept linear search using points  3 and  4.
     Minimum is close to point  4 DX= -9.88D-02 DF= -1.59D-05 DXR=  8.97D-02 DFR=  2.62D-03 which will be used.
     Accept linear search using points  1 and  2.
     Accept linear search using points  1 and  2.
     Accept linear search using points  1 and  2.
     Accept linear search using points  1 and  2.
     Minimum is close to point  2 DX= -3.65D-03 DF= -9.52D-09 DXR=  3.66D-03 DFR=  1.34D-05 which will be used.
     Minimum is close to point  2 DX=  2.73D-02 DF= -1.48D-08 DXR=  2.66D-02 DFR=  7.07D-04 which will be used.
 SCF Done:  E(UwB97XD) =  -437.308884152     a.u. after   14 cycles
            Convg  =    0.4969D-06                    83 Fock formations.
              S**2 =  0.7612                  -V/T =  2.0077
 <Sx>= 0.0000 <Sy>= 0.0000 <Sz>= 0.5000 <S**2>= 0.7612 S= 0.5056
 <L.S>=  0.00000000000    
 Annihilation of the first spin contaminant:
 S**2 before annihilation     0.7612,   after     0.7501
   1 Symmetry operations used in ECPInt.
 ECPInt:  NShTT=    2211 NPrTT=    8909 LenC2=    2195 LenP2D=    7071.
 LDataN:  DoStor=T MaxTD1= 5 Len=  102
 Calling FoFJK, ICntrl=      2127 FMM=F ISym2X=0 I1Cent= 0 IOpClX= 1 NMat=1 NMatS=1 NMatT=0.

 GradGradGradGradGradGradGradGradGradGradGradGradGradGradGradGradGradGrad
 Using GEDIIS/GDIIS optimizer.
 FormGI is forming the generalized inverse of G from B-inverse, IUseBI=4.
 Internal  Forces:  Max     0.015182331 RMS     0.003625396
 Step number   2 out of a maximum of   90
 All quantities printed in internal units (Hartrees-Bohrs-Radians)
 Mixed Optimization -- RFO/linear search
 Trust test= 1.16D+00 RLast= 3.52D-01 DXMaxT set to 5.05D-01
 ITU=  1  0
 Use linear search instead of GDIIS.
     Eigenvalues ---    0.00226   0.00230   0.00346   0.00400   0.00512
     Eigenvalues ---    0.01702   0.03862   0.04921   0.05433   0.05448
     Eigenvalues ---    0.05517   0.05789   0.05877   0.06083   0.06663
     Eigenvalues ---    0.09937   0.13490   0.14313   0.15650   0.15907
     Eigenvalues ---    0.16000   0.16000   0.16000   0.16000   0.16000
     Eigenvalues ---    0.16190   0.20036   0.22643   0.25120   0.26905
     Eigenvalues ---    0.29578   0.29965   0.32555   0.33197   0.33356
     Eigenvalues ---    0.33359   0.33436   0.33485   0.33506   0.33551
     Eigenvalues ---    0.33819   0.44301   0.54639   0.96234   1.01920
 Quartic linear search produced a step of  0.32203.
 Iteration  1 RMS(Cart)=  0.08024243 RMS(Int)=  0.02678220
 Iteration  2 RMS(Cart)=  0.02790573 RMS(Int)=  0.01030752
 Iteration  3 RMS(Cart)=  0.00163846 RMS(Int)=  0.01017057
 Iteration  4 RMS(Cart)=  0.00005127 RMS(Int)=  0.01017049
 Iteration  5 RMS(Cart)=  0.00000277 RMS(Int)=  0.01017049
 Iteration  6 RMS(Cart)=  0.00000015 RMS(Int)=  0.01017049
 Variable       Old X    -DE/DX   Delta X   Delta X   Delta X     New X
                                 (Linear)    (Quad)   (Total)
    R1        2.88906  -0.00465   0.00587  -0.01029  -0.00443   2.88463
    R2        2.08047   0.00001  -0.00041  -0.00061  -0.00103   2.07944
    R3        2.08416  -0.00104   0.00129  -0.00192  -0.00063   2.08353
    R4        2.07969   0.00010  -0.00041  -0.00027  -0.00068   2.07901
    R5        2.88503  -0.00603  -0.00097  -0.02775  -0.02872   2.85630
    R6        3.01626   0.01347   0.02855   0.10743   0.13598   3.15224
    R7        2.91964   0.01518   0.01091   0.08314   0.09405   3.01369
    R8        2.08139   0.00043  -0.00060   0.00068   0.00008   2.08148
    R9        2.08594   0.00048   0.00054   0.00272   0.00326   2.08920
   R10        2.08289  -0.00001   0.00026   0.00037   0.00063   2.08352
   R11        2.58130  -0.00980  -0.02020  -0.06133  -0.08153   2.49977
   R12        2.09412   0.00027   0.00202   0.00430   0.00632   2.10044
   R13        2.08216  -0.00090  -0.00070  -0.00460  -0.00530   2.07686
   R14        1.84810   0.00045   0.00746   0.01357   0.02103   1.86913
   R15        2.28466  -0.00774   0.00066  -0.00901  -0.00835   2.27631
   R16        2.27020  -0.01383  -0.00709  -0.03072  -0.03781   2.23240
    A1        1.89387  -0.00065   0.00240  -0.00177   0.00048   1.89435
    A2        1.96124  -0.00012   0.00588   0.00904   0.01490   1.97615
    A3        1.93189  -0.00117  -0.00429  -0.01667  -0.02098   1.91091
    A4        1.88809   0.00083  -0.00146   0.00706   0.00546   1.89355
    A5        1.89501   0.00037  -0.00357  -0.00537  -0.00911   1.88590
    A6        1.89224   0.00081   0.00083   0.00774   0.00868   1.90092
    A7        1.97460   0.00041   0.00619   0.01924   0.02440   1.99900
    A8        1.93293  -0.00074  -0.00219  -0.01268  -0.01459   1.91834
    A9        1.94833   0.00213   0.00985   0.04086   0.04865   1.99698
   A10        1.98051   0.00089   0.01312   0.01782   0.02975   2.01026
   A11        1.86017  -0.00048  -0.00137  -0.00320  -0.00497   1.85520
   A12        1.75408  -0.00239  -0.02823  -0.06945  -0.09666   1.65742
   A13        1.91252   0.00046   0.00244   0.00850   0.01064   1.92316
   A14        1.92150  -0.00173  -0.00412  -0.02221  -0.02630   1.89520
   A15        1.95254   0.00049   0.00402   0.01084   0.01464   1.96718
   A16        1.86124   0.00006  -0.00553  -0.01018  -0.01578   1.84546
   A17        1.92096   0.00033   0.00364   0.01300   0.01616   1.93712
   A18        1.89280   0.00036  -0.00083  -0.00116  -0.00189   1.89091
   A19        1.88263  -0.00201  -0.02197  -0.04757  -0.07089   1.81175
   A20        1.88091  -0.00446  -0.00671  -0.05804  -0.06539   1.81552
   A21        1.91504  -0.00235   0.00540  -0.02110  -0.01522   1.89983
   A22        1.96659   0.00337   0.00195   0.03786   0.03419   2.00078
   A23        1.88003   0.00224   0.00458   0.03256   0.03514   1.91517
   A24        1.93772   0.00292   0.01721   0.05206   0.06734   2.00507
   A25        1.95732   0.00215   0.01511   0.03865   0.05376   2.01108
   A26        1.97878  -0.00372  -0.03008  -0.04371  -0.12293   1.85585
   A27        2.05932  -0.00083   0.00897   0.03199  -0.00703   2.05229
   A28        2.23843   0.00518   0.01897   0.07851   0.04214   2.28057
    D1       -1.15354   0.00053  -0.00101   0.01748   0.01740  -1.13614
    D2        1.09252   0.00146   0.01971   0.04697   0.06665   1.15917
    D3        3.03148  -0.00067  -0.01022  -0.02163  -0.03277   2.99871
    D4        3.04263   0.00001  -0.00431   0.00427   0.00084   3.04347
    D5       -0.99449   0.00093   0.01641   0.03376   0.05008  -0.94441
    D6        0.94447  -0.00120  -0.01352  -0.03484  -0.04933   0.89513
    D7        0.92424  -0.00011  -0.00645  -0.00005  -0.00549   0.91875
    D8       -3.11288   0.00081   0.01427   0.02943   0.04375  -3.06913
    D9       -1.17392  -0.00132  -0.01565  -0.03916  -0.05566  -1.22958
   D10        0.99428  -0.00175  -0.01266  -0.04939  -0.06121   0.93307
   D11       -1.04750  -0.00108  -0.00495  -0.02904  -0.03309  -1.08059
   D12        3.12974  -0.00067  -0.00379  -0.01958  -0.02228   3.10746
   D13       -1.22702  -0.00184  -0.02542  -0.06394  -0.09007  -1.31708
   D14        3.01439  -0.00117  -0.01771  -0.04359  -0.06195   2.95244
   D15        0.90844  -0.00076  -0.01655  -0.03413  -0.05113   0.85731
   D16       -3.14115   0.00085   0.00244   0.01197   0.01396  -3.12719
   D17        1.10025   0.00152   0.01015   0.03231   0.04208   1.14233
   D18       -1.00570   0.00193   0.01131   0.04178   0.05289  -0.95280
   D19       -1.09922   0.00012  -0.00653  -0.02034  -0.02473  -1.12394
   D20        3.05614  -0.00018   0.00937  -0.00461   0.00430   3.06044
   D21        0.94423   0.00037  -0.01056  -0.01997  -0.02921   0.91502
   D22        1.14365   0.00078   0.01036   0.00994   0.02178   1.16543
   D23       -0.98417   0.00048   0.02625   0.02567   0.05080  -0.93337
   D24       -3.09608   0.00104   0.00632   0.01031   0.01729  -3.07879
   D25        3.12259  -0.00075  -0.00116  -0.02525  -0.02662   3.09598
   D26        0.99477  -0.00105   0.01473  -0.00951   0.00241   0.99718
   D27       -1.11714  -0.00049  -0.00520  -0.02487  -0.03110  -1.14824
   D28        0.12555  -0.00119   0.03585  -0.20568  -0.16090  -0.03535
   D29       -3.12951   0.00455  -0.00198   0.36644   0.35710  -2.77241
   D30       -2.03853  -0.00271   0.02320  -0.25306  -0.22095  -2.25947
   D31        0.98960   0.00303  -0.01463   0.31906   0.29706   1.28665
   D32        2.17560  -0.00246   0.02215  -0.24107  -0.21233   1.96326
   D33       -1.07947   0.00328  -0.01568   0.33105   0.30567  -0.77380
   D34       -1.42901   0.00046   0.00370   0.00397   0.00793  -1.42108
   D35        0.64494  -0.00436  -0.01888  -0.07636  -0.09766   0.54728
   D36        2.78815   0.00310   0.00670   0.03688   0.04575   2.83390
         Item               Value     Threshold  Converged?
 Maximum Force            0.015182     0.000015     NO 
 RMS     Force            0.003625     0.000010     NO 
 Maximum Displacement     0.455331     0.000060     NO 
 RMS     Displacement     0.095643     0.000040     NO 
 GradGradGradGradGradGradGradGradGradGradGradGradGradGradGradGradGradGrad

                    Distance matrix (angstroms):
                    1          2          3          4          5
     1  C    0.000000
     2  C    1.526480   0.000000
     3  C    2.555553   1.511491   0.000000
     4  C    2.616711   1.668095   2.685622   0.000000
     5  O    2.895676   2.363365   3.005926   1.322820   0.000000
     6  N    2.624156   1.594775   2.486085   2.405445   3.571265
     7  O    2.575594   2.252710   3.336301   3.144010   4.247612
     8  O    3.664916   2.384069   2.988894   2.568163   3.821190
     9  H    1.100392   2.146882   2.835627   2.866064   2.615559
    10  H    1.102559   2.207521   3.520313   2.832156   3.243952
    11  H    1.100164   2.158925   2.755286   3.583254   3.905435
    12  H    2.768698   2.155684   1.101469   3.054679   2.878348
    13  H    2.809785   2.138254   1.105559   3.620445   4.024805
    14  H    3.520791   2.187930   1.102549   2.882624   3.317364
    15  H    3.513737   2.217305   2.817285   1.111505   2.052105
    16  H    2.790807   2.274896   3.591888   1.099025   1.984776
    17  H    3.477723   2.753594   2.880058   1.960470   0.989102
                    6          7          8          9         10
     6  N    0.000000
     7  O    1.204570   0.000000
     8  O    1.181333   2.168217   0.000000
     9  H    3.553248   3.653250   4.475959   0.000000
    10  H    2.856945   2.460882   3.867845   1.787770   0.000000
    11  H    2.948387   2.702854   4.090232   1.780901   1.792318
    12  H    3.470986   4.228350   3.991121   2.606509   3.815166
    13  H    2.729589   3.340635   3.391188   3.237460   3.790739
    14  H    2.694432   3.772388   2.742533   3.826422   4.376319
    15  H    2.476856   3.474358   2.128016   3.840076   3.803864
    16  H    2.630867   3.012006   2.846482   3.152846   2.557859
    17  H    4.001883   4.842179   4.131422   3.105921   4.034812
                   11         12         13         14         15
    11  H    0.000000
    12  H    3.007290   0.000000
    13  H    2.558908   1.759558   0.000000
    14  H    3.790286   1.816264   1.790252   0.000000
    15  H    4.347567   3.341769   3.771709   2.572223   0.000000
    16  H    3.800799   4.005278   4.392267   3.871267   1.863129
    17  H    4.359669   2.556958   3.956336   3.009301   2.269673
                   16         17
    16  H    0.000000
    17  H    2.847821   0.000000
 Framework group  C1[X(C4H9NO3)]
 Deg. of freedom    45
                         Standard orientation:                         
 ---------------------------------------------------------------------
 Center     Atomic      Atomic             Coordinates (Angstroms)
 Number     Number       Type             X           Y           Z
 ---------------------------------------------------------------------
      1          6           0       -0.405247    1.681832   -0.506893
      2          6           0       -0.166441    0.357413    0.213544
      3          6           0       -0.435917    0.394225    1.700363
      4          6           0       -0.916278   -0.882293   -0.613144
      5          8           0       -2.202913   -0.588198   -0.524083
      6          7           0        1.305433   -0.231462    0.039990
      7          8           0        1.891595    0.530269   -0.686075
      8          8           0        1.457462   -1.388025    0.226529
      9          1           0       -1.477181    1.923525   -0.448541
     10          1           0       -0.109274    1.658712   -1.568731
     11          1           0        0.152873    2.482044    0.001558
     12          1           0       -1.449363    0.780012    1.893572
     13          1           0        0.255280    1.120721    2.165887
     14          1           0       -0.287294   -0.585233    2.184292
     15          1           0       -0.610882   -1.797451   -0.061181
     16          1           0       -0.600194   -0.849738   -1.665232
     17          1           0       -2.637847   -0.851792    0.324254
 ---------------------------------------------------------------------
 Rotational constants (GHZ):           2.7760236           1.7219527           1.5452019
   130 basis functions,   236 primitive gaussians,   138 cartesian basis functions
    32 alpha electrons       31 beta electrons
       nuclear repulsion energy       422.2351509800 Hartrees.
 NAtoms=   17 NActive=   17 NUniq=   17 SFac= 1.00D+00 NAtFMM=   60 NAOKFM=F Big=F
 Nuclear repulsion after empirical dispersion term =      422.2247180502 Hartrees.
   1 Symmetry operations used in ECPInt.
 ECPInt:  NShTT=    2211 NPrTT=    8909 LenC2=    2199 LenP2D=    7078.
 LDataN:  DoStor=T MaxTD1= 4 Len=   56
 Initial guess from the checkpoint file:  "37.chk"
 B after Tr=    -0.000000    0.000000   -0.000000
         Rot=    0.993657    0.109620    0.018497   -0.016961 Ang=  12.91 deg.
 Initial guess <Sx>= 0.0000 <Sy>= 0.0000 <Sz>= 0.5000 <S**2>= 0.7614 S= 0.5057
 ExpMin= 1.22D-01 ExpMax= 2.27D+03 ExpMxC= 3.41D+02 IAcc=3 IRadAn=         5 AccDes= 0.00D+00
 Harris functional with IExCor= 4639 and IRadAn=       5 diagonalized for initial guess.
 HarFok:  IExCor= 4639 AccDes= 0.00D+00 IRadAn=         5 IDoV= 1 UseB2=F ITyADJ=14
 ICtDFT=  3500011 ScaDFX=  1.000000  1.000000  1.000000  1.000000
 FoFCou: FMM=F IPFlag=           0 FMFlag=      100000 FMFlg1=           0
         NFxFlg=           0 DoJE=T BraDBF=F KetDBF=T FulRan=T
         wScrn=  0.000000 ICntrl=       500 IOpCl=  0 I1Cent=   200000004 NGrid=           0
         NMat0=    1 NMatS0=      1 NMatT0=    0 NMatD0=    1 NMtDS0=    0 NMtDT0=    0
 Petite list used in FoFCou.
     Accept linear search using points  3 and  4.
     Accept linear search using points  2 and  3.
     Minimum is close to point  2 DX=  1.45D-02 DF= -2.01D-06 DXR=  1.43D-02 DFR=  2.04D-04 which will be used.
     Accept linear search using points  1 and  2.
     Accept linear search using points  1 and  2.
     Accept linear search using points  1 and  2.
     Accept linear search using points  1 and  2.
     Accept linear search using points  1 and  2.
     Accept linear search using points  1 and  2.
     Accept linear search using points  1 and  2.
     Accept linear search using points  1 and  2.
     Accept linear search using points  2 and  3.
     Accept linear search using points  1 and  2.
     Accept linear search using points  2 and  3.
     Accept linear search using points  1 and  2.
     Accept linear search using points  1 and  2.
     Minimum is close to point  2 DX= -2.73D-03 DF= -3.45D-09 DXR=  2.74D-03 DFR=  7.52D-06 which will be used.
     Minimum is close to point  2 DX=  3.74D-04 DF=  0.00D+00 DXR=  3.74D-04 DFR=  0.00D+00 which will be used.
 SCF Done:  E(UwB97XD) =  -437.296380196     a.u. after   25 cycles
            Convg  =    0.3061D-06                    95 Fock formations.
              S**2 =  0.7640                  -V/T =  2.0075
 <Sx>= 0.0000 <Sy>= 0.0000 <Sz>= 0.5000 <S**2>= 0.7640 S= 0.5070
 <L.S>=  0.00000000000    
 Annihilation of the first spin contaminant:
 S**2 before annihilation     0.7640,   after     0.7501
   1 Symmetry operations used in ECPInt.
 ECPInt:  NShTT=    2211 NPrTT=    8909 LenC2=    2199 LenP2D=    7078.
 LDataN:  DoStor=T MaxTD1= 5 Len=  102
 Calling FoFJK, ICntrl=      2127 FMM=F ISym2X=0 I1Cent= 0 IOpClX= 1 NMat=1 NMatS=1 NMatT=0.

 GradGradGradGradGradGradGradGradGradGradGradGradGradGradGradGradGradGrad
 Using GEDIIS/GDIIS optimizer.
 FormGI is forming the generalized inverse of G from B-inverse, IUseBI=4.
 Internal  Forces:  Max     0.028635183 RMS     0.008766739
 Step number   3 out of a maximum of   90
 All quantities printed in internal units (Hartrees-Bohrs-Radians)
 Mixed Optimization -- RFO/linear search
 Trust test=-1.22D+00 RLast= 7.59D-01 DXMaxT set to 2.52D-01
 ITU= -1  1  0
 Use linear search instead of GDIIS.
     Eigenvalues ---    0.00231   0.00235   0.00392   0.00512   0.01696
     Eigenvalues ---    0.03221   0.03671   0.05286   0.05460   0.05879
     Eigenvalues ---    0.05949   0.06061   0.06412   0.06759   0.07735
     Eigenvalues ---    0.08798   0.13036   0.13631   0.15209   0.16000
     Eigenvalues ---    0.16000   0.16000   0.16000   0.16023   0.16119
     Eigenvalues ---    0.16550   0.17732   0.22536   0.25942   0.27549
     Eigenvalues ---    0.29728   0.30275   0.32244   0.33276   0.33356
     Eigenvalues ---    0.33360   0.33432   0.33485   0.33508   0.33558
     Eigenvalues ---    0.33733   0.46038   0.55016   0.95194   1.01503
 Quartic linear search produced a step of -0.72220.
 Maximum step size (   0.252) exceeded in Quadratic search.
    -- Step size scaled by   0.856
 Iteration  1 RMS(Cart)=  0.06834988 RMS(Int)=  0.01524109
 Iteration  2 RMS(Cart)=  0.01519270 RMS(Int)=  0.00154750
 Iteration  3 RMS(Cart)=  0.00045900 RMS(Int)=  0.00148067
 Iteration  4 RMS(Cart)=  0.00000060 RMS(Int)=  0.00148067
 Variable       Old X    -DE/DX   Delta X   Delta X   Delta X     New X
                                 (Linear)    (Quad)   (Total)
    R1        2.88463  -0.00869   0.00320  -0.03139  -0.02819   2.85644
    R2        2.07944   0.00068   0.00074   0.00021   0.00095   2.08039
    R3        2.08353  -0.00204   0.00045  -0.00637  -0.00591   2.07762
    R4        2.07901   0.00130   0.00049   0.00118   0.00168   2.08069
    R5        2.85630  -0.00224   0.02074  -0.04199  -0.02125   2.83505
    R6        3.15224   0.00191  -0.09820   0.12000   0.02180   3.17404
    R7        3.01369   0.02361  -0.06792   0.12819   0.06027   3.07396
    R8        2.08148   0.00090  -0.00006   0.00261   0.00255   2.08403
    R9        2.08920   0.00024  -0.00236   0.00344   0.00108   2.09028
   R10        2.08352   0.00001  -0.00045   0.00017  -0.00028   2.08323
   R11        2.49977   0.02179   0.05888  -0.04909   0.00980   2.50956
   R12        2.10044  -0.00376  -0.00456   0.00053  -0.00403   2.09641
   R13        2.07686   0.00050   0.00383  -0.00546  -0.00163   2.07523
   R14        1.86913  -0.01127  -0.01519   0.00362  -0.01157   1.85756
   R15        2.27631   0.00472   0.00603  -0.01338  -0.00735   2.26896
   R16        2.23240   0.01477   0.02730  -0.03133  -0.00403   2.22837
    A1        1.89435  -0.00274  -0.00034  -0.01069  -0.01097   1.88338
    A2        1.97615  -0.00118  -0.01076   0.00355  -0.00723   1.96892
    A3        1.91091   0.00141   0.01515  -0.01654  -0.00139   1.90952
    A4        1.89355   0.00193  -0.00394   0.01534   0.01144   1.90498
    A5        1.88590   0.00064   0.00658  -0.00275   0.00392   1.88983
    A6        1.90092   0.00001  -0.00627   0.01101   0.00468   1.90560
    A7        1.99900   0.00373  -0.01762   0.02137   0.00410   2.00310
    A8        1.91834  -0.00240   0.01054  -0.01999  -0.00993   1.90841
    A9        1.99698  -0.00415  -0.03513   0.03690   0.00301   1.99998
   A10        2.01026  -0.00361  -0.02148   0.00176  -0.01913   1.99113
   A11        1.85520  -0.00091   0.00359  -0.00233   0.00177   1.85697
   A12        1.65742   0.00753   0.06981  -0.04613   0.02316   1.68058
   A13        1.92316   0.00155  -0.00768   0.01147   0.00398   1.92714
   A14        1.89520   0.00075   0.01899  -0.02623  -0.00726   1.88794
   A15        1.96718  -0.00088  -0.01058   0.00885  -0.00160   1.96558
   A16        1.84546  -0.00053   0.01140  -0.00820   0.00324   1.84870
   A17        1.93712  -0.00075  -0.01167   0.01271   0.00134   1.93846
   A18        1.89091  -0.00011   0.00137  -0.00103   0.00026   1.89117
   A19        1.81175   0.01097   0.05119  -0.02874   0.02336   1.83510
   A20        1.81552  -0.00237   0.04722  -0.08094  -0.03395   1.78157
   A21        1.89983  -0.00571   0.01099  -0.04899  -0.03872   1.86111
   A22        2.00078  -0.00102  -0.02470   0.04879   0.02785   2.02864
   A23        1.91517  -0.00190  -0.02537   0.03733   0.01364   1.92880
   A24        2.00507   0.00076  -0.04863   0.04915   0.00032   2.00539
   A25        2.01108  -0.00458  -0.03882   0.02903  -0.00980   2.00128
   A26        1.85585   0.02864   0.08878  -0.01803   0.06414   1.91999
   A27        2.05229   0.01639   0.00508   0.02550   0.02398   2.07627
   A28        2.28057  -0.02115  -0.03043   0.04039   0.00333   2.28390
    D1       -1.13614   0.00097  -0.01257   0.03502   0.02198  -1.11416
    D2        1.15917  -0.00304  -0.04813   0.03789  -0.01027   1.14890
    D3        2.99871   0.00259   0.02367  -0.01072   0.01350   3.01221
    D4        3.04347   0.00119  -0.00061   0.02080   0.01973   3.06320
    D5       -0.94441  -0.00282  -0.03617   0.02366  -0.01252  -0.95693
    D6        0.89513   0.00281   0.03563  -0.02494   0.01125   0.90638
    D7        0.91875   0.00096   0.00396   0.01621   0.01964   0.93839
    D8       -3.06913  -0.00305  -0.03160   0.01907  -0.01261  -3.08174
    D9       -1.22958   0.00258   0.04020  -0.02953   0.01116  -1.21843
   D10        0.93307   0.00027   0.04421  -0.06809  -0.02437   0.90870
   D11       -1.08059  -0.00036   0.02390  -0.04969  -0.02630  -1.10690
   D12        3.10746  -0.00017   0.01609  -0.03620  -0.02075   3.08671
   D13       -1.31708   0.00365   0.06504  -0.06124   0.00419  -1.31289
   D14        2.95244   0.00302   0.04474  -0.04284   0.00226   2.95471
   D15        0.85731   0.00321   0.03693  -0.02934   0.00781   0.86512
   D16       -3.12719  -0.00323  -0.01008  -0.00622  -0.01602   3.13997
   D17        1.14233  -0.00386  -0.03039   0.01218  -0.01795   1.12438
   D18       -0.95280  -0.00367  -0.03820   0.02567  -0.01240  -0.96520
   D19       -1.12394   0.00052   0.01786   0.01010   0.02657  -1.09738
   D20        3.06044  -0.00207  -0.00311   0.00286   0.00046   3.06091
   D21        0.91502   0.00134   0.02110   0.01643   0.03608   0.95110
   D22        1.16543   0.00034  -0.01573   0.02321   0.00676   1.17219
   D23       -0.93337  -0.00224  -0.03669   0.01597  -0.01934  -0.95271
   D24       -3.07879   0.00116  -0.01249   0.02953   0.01627  -3.06252
   D25        3.09598   0.00236   0.01922  -0.00364   0.01564   3.11162
   D26        0.99718  -0.00023  -0.00174  -0.01088  -0.01046   0.98672
   D27       -1.14824   0.00318   0.02246   0.00268   0.02516  -1.12309
   D28       -0.03535   0.02055   0.11620   0.13477   0.25020   0.21485
   D29       -2.77241  -0.02134  -0.25790   0.02941  -0.22890  -3.00130
   D30       -2.25947   0.01935   0.15957   0.08220   0.24121  -2.01826
   D31        1.28665  -0.02254  -0.21453  -0.02316  -0.23789   1.04877
   D32        1.96326   0.02061   0.15335   0.09832   0.25244   2.21571
   D33       -0.77380  -0.02128  -0.22076  -0.00704  -0.22666  -1.00045
   D34       -1.42108  -0.00222  -0.00573  -0.00825  -0.01426  -1.43534
   D35        0.54728   0.00108   0.07053  -0.09961  -0.02744   0.51984
   D36        2.83390  -0.00048  -0.03304   0.04644   0.01204   2.84595
         Item               Value     Threshold  Converged?
 Maximum Force            0.028635     0.000015     NO 
 RMS     Force            0.008767     0.000010     NO 
 Maximum Displacement     0.319710     0.000060     NO 
 RMS     Displacement     0.076211     0.000040     NO 
 GradGradGradGradGradGradGradGradGradGradGradGradGradGradGradGradGradGrad

                    Distance matrix (angstroms):
                    1          2          3          4          5
     1  C    0.000000
     2  C    1.511560   0.000000
     3  C    2.536872   1.500245   0.000000
     4  C    2.605355   1.679629   2.669913   0.000000
     5  O    2.897786   2.397952   3.019819   1.328004   0.000000
     6  N    2.641448   1.626668   2.504910   2.462907   3.641708
     7  O    2.691110   2.328983   3.287214   3.355557   4.458711
     8  O    3.708375   2.427799   2.919845   2.768428   4.007949
     9  H    1.100896   2.126085   2.799694   2.835549   2.593536
    10  H    1.099429   2.186804   3.495917   2.812308   3.229286
    11  H    1.101051   2.145501   2.746204   3.577576   3.912889
    12  H    2.747616   2.149719   1.102819   3.036102   2.886680
    13  H    2.800061   2.123507   1.106130   3.609275   4.041892
    14  H    3.499905   2.176744   1.102400   2.858868   3.323094
    15  H    3.480662   2.198074   2.775066   1.109373   2.072847
    16  H    2.760691   2.254573   3.556487   1.098165   1.997900
    17  H    3.479017   2.788324   2.905771   1.954317   0.982978
                    6          7          8          9         10
     6  N    0.000000
     7  O    1.200680   0.000000
     8  O    1.179203   2.164394   0.000000
     9  H    3.569878   3.773597   4.523843   0.000000
    10  H    2.864086   2.665114   3.952776   1.792961   0.000000
    11  H    2.954769   2.705866   4.070976   1.784562   1.793479
    12  H    3.496304   4.210852   3.956616   2.563002   3.788649
    13  H    2.726495   3.194846   3.243779   3.216787   3.777180
    14  H    2.709893   3.711496   2.648262   3.785430   4.347363
    15  H    2.494913   3.603405   2.295867   3.794316   3.766842
    16  H    2.639493   3.255488   3.054700   3.124589   2.517543
    17  H    4.071765   5.007011   4.281935   3.080087   4.018384
                   11         12         13         14         15
    11  H    0.000000
    12  H    2.993502   0.000000
    13  H    2.557062   1.763250   0.000000
    14  H    3.782038   1.818092   1.790764   0.000000
    15  H    4.316201   3.307854   3.727059   2.520204   0.000000
    16  H    3.770284   3.976693   4.355734   3.830344   1.860795
    17  H    4.369929   2.580144   3.983680   3.027301   2.282926
                   16         17
    16  H    0.000000
    17  H    2.849722   0.000000
 Framework group  C1[X(C4H9NO3)]
 Deg. of freedom    45
                         Standard orientation:                         
 ---------------------------------------------------------------------
 Center     Atomic      Atomic             Coordinates (Angstroms)
 Number     Number       Type             X           Y           Z
 ---------------------------------------------------------------------
      1          6           0       -0.447690    1.700369   -0.377652
      2          6           0       -0.174256    0.330947    0.200909
      3          6           0       -0.333954    0.234180    1.689489
      4          6           0       -1.045219   -0.819982   -0.658124
      5          8           0       -2.320953   -0.509003   -0.459655
      6          7           0        1.298874   -0.267261   -0.142723
      7          8           0        1.996312    0.596189   -0.600617
      8          8           0        1.543116   -1.384222    0.145832
      9          1           0       -1.506882    1.939303   -0.196004
     10          1           0       -0.245608    1.755200   -1.456958
     11          1           0        0.169431    2.447988    0.144403
     12          1           0       -1.317536    0.626709    1.997219
     13          1           0        0.417482    0.895091    2.160723
     14          1           0       -0.180505   -0.790258    2.066673
     15          1           0       -0.694195   -1.766958   -0.199074
     16          1           0       -0.777904   -0.691805   -1.715516
     17          1           0       -2.697490   -0.841233    0.385382
 ---------------------------------------------------------------------
 Rotational constants (GHZ):           2.8890654           1.6253468           1.4587736
   130 basis functions,   236 primitive gaussians,   138 cartesian basis functions
    32 alpha electrons       31 beta electrons
       nuclear repulsion energy       418.5521928326 Hartrees.
 NAtoms=   17 NActive=   17 NUniq=   17 SFac= 1.00D+00 NAtFMM=   60 NAOKFM=F Big=F
 Nuclear repulsion after empirical dispersion term =      418.5416915698 Hartrees.
   1 Symmetry operations used in ECPInt.
 ECPInt:  NShTT=    2211 NPrTT=    8909 LenC2=    2195 LenP2D=    7061.
 LDataN:  DoStor=T MaxTD1= 4 Len=   56
 Lowest energy guess from the checkpoint file:  "37.chk"
 B after Tr=    -0.000000    0.000000   -0.000000
         Rot=    0.997436    0.070129    0.000626   -0.014246 Ang=   8.21 deg.
 B after Tr=     0.000000   -0.000000    0.000000
         Rot=    0.999058   -0.039185   -0.018231    0.003937 Ang=  -4.97 deg.
 Initial guess <Sx>= 0.0000 <Sy>= 0.0000 <Sz>= 0.5000 <S**2>= 0.7618 S= 0.5059
     Accept linear search using points  3 and  4.
     Accept linear search using points  2 and  3.
     Accept linear search using points  1 and  2.
     Minimum is close to point  2 DX=  4.10D-03 DF= -1.11D-08 DXR=  5.83D-03 DFR=  3.40D-05 which will be used.
     Accept linear search using points  1 and  2.
     Accept linear search using points  1 and  2.
     Minimum is close to point  3 DX=  9.68D-02 DF= -4.87D-07 DXR=  7.47D-02 DFR=  5.60D-03 which will be used.
     Accept linear search using points  1 and  2.
     Accept linear search using points  1 and  2.
     Minimum is close to point  2 DX= -3.97D-03 DF= -4.04D-09 DXR=  3.99D-03 DFR=  1.59D-05 which will be used.
     Accept linear search using points  2 and  3.
     Minimum is close to point  2 DX=  1.43D-04 DF=  0.00D+00 DXR=  1.43D-04 DFR=  0.00D+00 which will be used.
 SCF Done:  E(UwB97XD) =  -437.312609782     a.u. after   12 cycles
            Convg  =    0.1285D-06                    63 Fock formations.
              S**2 =  0.7585                  -V/T =  2.0076
 <Sx>= 0.0000 <Sy>= 0.0000 <Sz>= 0.5000 <S**2>= 0.7585 S= 0.5042
 <L.S>=  0.00000000000    
 Annihilation of the first spin contaminant:
 S**2 before annihilation     0.7585,   after     0.7500
   1 Symmetry operations used in ECPInt.
 ECPInt:  NShTT=    2211 NPrTT=    8909 LenC2=    2195 LenP2D=    7061.
 LDataN:  DoStor=T MaxTD1= 5 Len=  102
 Calling FoFJK, ICntrl=      2127 FMM=F ISym2X=0 I1Cent= 0 IOpClX= 1 NMat=1 NMatS=1 NMatT=0.

 GradGradGradGradGradGradGradGradGradGradGradGradGradGradGradGradGradGrad
 Using GEDIIS/GDIIS optimizer.
 FormGI is forming the generalized inverse of G from B-inverse, IUseBI=4.
 Internal  Forces:  Max     0.013869114 RMS     0.002846819
 Step number   4 out of a maximum of   90
[...]
   yx         0.209138D+01      0.309911D+00      0.344822D+00
   yy         0.641322D+02      0.950342D+01      0.105740D+02
   zx        -0.770219D+01     -0.114135D+01     -0.126992D+01
   zy        -0.537959D+01     -0.797173D+00     -0.886975D+00
   zz         0.824076D+02      0.122115D+02      0.135872D+02

 ----------------------------------------------------------------------
 1\1\GINC-C162\Freq\UwB97XD\def2SVPP\C4H9N1O3(1+,2)\PETERCHAO1\10-Jul-2
 023\0\\#T Geom=AllCheck Guess=TCheck SCRF=Check GenChk UwB97XD/def2SVP
 P Freq\\comment\\1,2\C,-0.299012474,1.7519773505,-0.0625149711\C,-0.05
 7014489,0.3248217598,0.3077833748\C,-0.3583360205,-0.1280042954,1.6995
 886591\C,-1.1836182936,-0.6821266636,-0.8432162694\O,-2.4215030101,-0.
 3538508671,-0.5794994462\N,1.2832134465,-0.2307483631,-0.1642827239\O,
 2.1104073249,0.6111598818,-0.3903930633\O,1.4102285529,-1.4261112103,-
 0.2090607111\H,-1.3535842708,2.0136157244,0.1160139129\H,-0.019060309,
 1.9794753107,-1.102395245\H,0.3250646552,2.3867368421,0.5952906645\H,-
 1.3467215863,0.228971709,2.0292865511\H,0.394561074,0.3415015208,2.366
 5903699\H,-0.263685201,-1.2189648965,1.8229704038\H,-0.8285318121,-1.6
 848993745,-0.5579170232\H,-0.8360035009,-0.2598134946,-1.7967956397\H,
 -2.8529120864,-0.923034934,0.0889631569\\Version=ES64L-G16RevB.01\Stat
 e=2-A\HF=-437.314735\S2=0.756861\S2-1=0.\S2A=0.750031\RMSD=9.092e-10\R
 MSF=4.024e-07\ZeroPoint=0.1374482\Thermal=0.1470441\Dipole=-2.3402038,
 -0.0896134,0.5796219\DipoleDeriv=-0.0794814,-0.2040876,-0.0475202,0.07
 56468,-0.4186773,-0.0175746,0.0511029,-0.1712849,-0.1718264,0.0744986,
 0.1036094,0.0879037,0.0835337,0.5965984,-0.0295241,0.0337053,0.0123993
 ,0.6992642,-0.0423445,-0.0311339,-0.2540753,0.0534856,-0.1667796,-0.06
 99048,-0.0617576,0.0230851,-0.4524729,1.2991189,0.1359342,0.1432399,0.
 0466387,0.2465226,0.0422686,0.0132785,0.0516364,0.3253301,-1.250956,-0
 .2247501,-0.146312,0.0464366,-0.2302321,-0.0678312,0.3062882,-0.008335
 3,-0.2573947,1.0034456,0.154366,-0.1703996,-0.8462463,1.4723899,0.0335
 524,-0.4620633,0.0215369,0.192206,-0.7195854,-0.2873739,0.1271866,0.13
 156,-0.6847198,0.0035813,0.2400972,0.0600945,-0.1842732,-0.3923721,0.1
 406398,0.0521564,0.2932435,-0.9353996,-0.0060764,0.096645,-0.0669288,-
 0.2228059,0.0319829,0.0205244,0.0256717,-0.0466002,0.1199313,0.0077422
 ,0.0266593,0.0460189,0.1043077,0.1036706,0.0360182,0.0231406,0.0206693
 ,0.1177818,-0.0284267,-0.0028513,0.0037291,0.0404223,0.0489242,0.07217
 56,-0.0240975,0.0552862,0.1278483,-0.0073602,-0.0408128,0.082545,0.092
 3977,0.0390217,0.0309745,0.0379902,0.0521231,0.092175,0.046803,-0.0143
 063,0.0119181,0.118958,0.0745355,-0.0425051,0.0957241,-0.03005,0.11032
 23,0.0440523,0.0605743,-0.0048302,0.1409037,0.1121341,0.0045791,0.0676
 573,0.0054595,0.0451986,-0.0053881,-0.0034834,-0.0426197,0.1166429,0.0
 927166,-0.0150876,0.0149588,0.0066015,0.1347244,0.0256632,-0.0792119,-
 0.0063674,0.0368513,0.0326826,-0.0055364,-0.0264028,-0.1242405,0.02624
 98,-0.0338166,-0.0108671,0.0044888,0.1183322,0.5720082,0.1116534,-0.00
 6822,0.1764526,0.3460659,0.0622397,-0.1529969,-0.0170858,0.3031572\Pol
 ar=84.1437048,6.2781544,64.4120215,0.8927099,1.1301708,54.2575851\Quad
 rupole=0.1929864,-0.9666932,0.7737068,4.7625499,0.0250388,0.5929604\PG
 =C01 [X(C4H9N1O3)]\NImag=0\\0.58852126,-0.00136641,0.47698472,-0.02870
 515,-0.00452627,0.59332611,-0.07123437,0.02919556,0.01289007,0.2777467
 1,0.01209182,-0.19404368,0.04211502,-0.04776885,0.46926317,0.00632608,
 0.04518186,-0.09117157,-0.08507022,-0.10739389,0.40904085,0.00490030,-
 0.00269047,-0.00286612,-0.07713633,0.00189975,0.03561233,0.57782886,-0
 .00465827,-0.00953198,0.03717002,0.00210224,-0.09805656,0.04542613,-0.
 03094375,0.59441845,0.00131787,0.01109199,-0.00231786,0.03563032,0.047
 42276,-0.19073070,-0.02067513,0.00607107,0.47703291,-0.00520355,-0.011
 06902,-0.00693792,0.04818707,0.02633736,0.03641955,-0.00709724,-0.0044
 3457,-0.00811924,0.55897754,-0.00749771,-0.01652995,-0.00670567,0.0259
 1521,-0.00466654,0.00865693,-0.00626385,-0.00418855,-0.00411554,-0.166
 89404,0.52330661,-0.00484425,-0.00584810,-0.00492846,0.02395260,0.0077
 3291,-0.00497673,-0.00777662,-0.00485360,-0.01453633,-0.19480917,-0.19
 530807,0.47656875,-0.00197642,0.00033448,-0.00161848,-0.03926248,-0.00
 286787,-0.00454990,0.00050853,0.00016133,-0.00036903,-0.40637711,0.135
 75866,0.09115858,0.59833334,-0.00269687,-0.00290948,-0.00310068,-0.000
 90196,0.00109420,0.00594981,0.00040427,0.00013267,-0.00080155,0.072086
 13,-0.11737395,0.01497063,-0.00935587,0.29244457,0.00078779,-0.0002745
 5,0.00074384,-0.00315312,0.00039922,0.00131546,-0.00143868,-0.00154599
 ,-0.00156683,0.09240689,0.01061500,-0.10644215,-0.22287977,-0.19530434
 ,0.31426023,-0.00854039,0.01446260,-0.00363216,-0.05659596,0.01014469,
 0.00257676,-0.00613923,-0.00309353,0.01662186,-0.03158846,-0.00226757,
 -0.00210984,0.00462256,-0.00170610,-0.00286260,0.63902837,0.03708892,0
 .00148854,-0.00204442,-0.01477286,-0.07978873,-0.01041708,0.01246650,0
 .01388870,0.00316632,0.02771147,0.02423118,0.00684130,-0.01216349,-0.0
 0563134,0.00260096,0.14927640,1.04205191,0.00090905,-0.00323106,0.0110
 0747,-0.01932517,0.01621890,-0.10417596,0.04216239,-0.01250326,-0.0114
 0633,0.00128764,0.00550850,0.00404687,-0.00781695,-0.00115666,0.000175
 04,-0.11591799,-0.06207562,0.28937914,-0.00037239,0.00166608,0.0029596
 0,-0.06316654,-0.03046515,0.02347787,-0.00194382,0.00585559,-0.0021827
 2,0.00510060,0.00100635,0.00128407,-0.00398828,0.00068797,0.00058812,-
 0.40137466,-0.27192632,0.08484700,0.44203869,0.00454692,-0.00653339,-0
 .00229448,-0.01579498,0.00478267,0.00831560,-0.00277723,-0.00049762,-0
 .00241549,-0.00514082,-0.00753310,-0.00086469,0.00124930,0.00251690,0.
 00016073,-0.24175717,-0.34990630,0.07249364,0.32648718,0.46261260,-0.0
 0222483,-0.00229451,-0.00303947,0.02465558,0.00758491,0.01749392,-0.00
 388540,-0.00025674,-0.00149769,-0.00314511,-0.00135193,-0.00167877,0.0
 0319941,-0.00016075,-0.00035057,0.09178092,0.08307493,-0.09848597,-0.1
 1283749,-0.09180972,0.05641642,-0.00661417,-0.00135060,0.00303191,-0.0
 0332247,0.04076151,0.00666916,-0.00384397,0.00143997,-0.00065683,-0.00
 766112,-0.00072944,0.00042971,-0.00153990,0.00201808,-0.00130073,-0.14
 090573,0.09522976,0.02067311,0.02825239,-0.07405510,-0.00184639,0.1379
 9511,0.00578862,-0.00250084,-0.00443981,0.02746255,-0.04082629,-0.0002
 8358,-0.00590068,-0.00333976,-0.00008940,-0.01432600,-0.00819574,-0.00
 386293,0.00351434,0.00212363,-0.00172882,0.07878333,-0.63102021,-0.023
 18619,-0.03446350,-0.11073669,0.00608296,-0.07006324,0.79137570,0.0021
 8661,0.00170230,-0.00142158,0.01165366,-0.01819897,0.01774189,-0.00095
 107,0.00091069,0.00057156,-0.00273489,-0.00202330,-0.00007743,0.000552
 28,0.00105401,0.00026093,0.01741641,-0.02288400,-0.08564451,-0.0002305
 3,0.01626970,0.02816689,-0.02751276,0.02577323,0.04057508,-0.30727763,
 0.06523431,0.04529031,-0.00230338,0.00041070,0.00063963,0.00012262,-0.
 00047962,0.00011673,-0.00092808,-0.00071755,-0.00024294,0.00015457,-0.
 00116937,-0.00020916,-0.00002710,-0.00232782,0.00009246,-0.00008699,0.
 00120950,0.00002782,0.00039752,0.00044640,-0.00027366,0.32421966,0.061
 11383,-0.05909651,-0.00710949,0.03252031,-0.00966391,-0.00654664,-0.00
 054946,0.00022157,-0.00116455,0.00254789,-0.00083072,-0.00021787,-0.00
 101039,0.00059626,0.00059770,-0.00331234,-0.00674410,0.00363665,-0.000
 34554,0.00189229,-0.00015053,0.00237593,-0.00135911,-0.00112930,-0.068
 20773,0.06750578,0.04520931,-0.00497498,-0.05753587,-0.00703612,-0.004
 34452,0.00029694,-0.00063216,-0.00028062,-0.00106041,0.00067379,-0.000
 36761,0.00018494,0.00002243,0.00022027,-0.00012054,0.00034899,0.001670
 13,0.00073492,0.00008437,-0.00022143,0.00067052,-0.00041337,0.00043781
 ,0.00008595,-0.04789344,0.00883340,0.05345791,-0.06641371,-0.00926907,
 0.07023736,-0.00130318,-0.00313296,-0.00607410,0.00120857,0.00267436,-
 0.00032754,0.00062660,0.00025462,0.00072215,0.00014666,0.00004128,-0.0
 0041436,0.00071597,-0.00081243,-0.00166753,-0.00172421,0.00055261,0.00
 075674,-0.00002116,-0.00043784,-0.00016475,-0.00256437,-0.00714525,0.0
 2666545,0.06376490,-0.01017862,-0.05724449,0.04964489,-0.01055393,-0.0
 0708962,0.03226117,0.00188192,-0.00504945,-0.00131633,0.00021539,-0.00
 008924,0.00179339,0.00038959,0.00004160,-0.00041103,-0.00071105,-0.001
 52944,-0.00087118,0.00039773,0.00056330,0.00023849,-0.00026891,0.00055
 134,0.00017608,0.00052670,0.00147297,-0.00852627,0.01322810,0.06469484
 ,0.06860554,0.05417475,-0.30160866,-0.00109772,0.00025392,-0.00439814,
 0.00012830,0.00092693,0.00096272,0.00005789,-0.00051719,-0.00007405,-0
 .00000104,0.00016100,0.00008000,0.00185562,0.00118661,-0.00022426,-0.0
 0001311,-0.00169545,0.00079089,-0.00020920,-0.00048506,0.00006490,-0.0
 0125524,-0.00060955,0.00006486,-0.07372503,-0.05744226,0.31741044,-0.1
 2602707,-0.08500564,-0.09112242,-0.00161356,0.00355957,0.00307198,0.00
 141959,0.00073577,-0.00044822,0.00101684,-0.00015037,0.00106954,0.0010
 0733,-0.00021891,-0.00008908,0.00005742,-0.00470852,-0.00244506,-0.002
 74203,0.00239569,0.00220883,0.00036990,0.00091059,0.00024013,-0.012457
 95,-0.01713097,-0.01718732,0.00432836,0.00502890,0.00572847,0.13437438
 ,-0.09007944,-0.12785584,-0.09409282,-0.01302804,-0.02584261,-0.015784
 89,0.00038944,0.00252987,-0.00059402,-0.00069702,-0.00271610,-0.000396
 45,0.00026100,0.00037402,0.00017436,-0.00174879,0.00100952,0.00274214,
 0.00104735,0.00060688,-0.00043260,0.00007159,-0.00002260,-0.00037289,0
 .00492888,0.00559970,0.00587222,0.00438585,0.00455723,0.00477934,0.094
 08578,0.14260791,-0.09106703,-0.08847126,-0.13836542,0.00486245,0.0019
 7197,0.00374279,-0.00122069,-0.00097752,-0.00187124,0.00085102,-0.0004
 8845,0.00052014,0.00092623,0.00091007,-0.00010744,-0.00161133,-0.00271
 490,0.00026235,-0.00039490,0.00180563,0.00024228,0.00053950,0.00094967
 ,-0.00010636,0.00389352,0.00378143,0.00323797,-0.01604656,-0.01640815,
 -0.01391404,0.09889944,0.09757593,0.14528667,-0.00018209,-0.00013729,-
 0.00117412,-0.00286541,0.00092524,-0.00066427,-0.27536977,0.08236317,0
 .07717748,-0.00119250,-0.00019568,-0.00026555,0.00026551,-0.00045395,-
 0.00079045,0.00093051,0.00072146,0.00027147,0.00048206,-0.00002480,-0.
 00005271,0.00002151,-0.00041255,-0.00015702,0.00037860,-0.00014366,0.0
 0004906,0.00021768,0.00004744,-0.00001842,0.00010933,-0.00018298,0.000
 39833,0.28989494,-0.00077942,-0.00098928,-0.00097964,-0.00952033,0.003
 51372,0.00021707,0.08387352,-0.08123657,-0.02309738,-0.00009783,-0.000
 39571,-0.00044445,0.00004366,0.00011089,0.00048414,0.00063484,-0.00048
 534,0.00365655,0.00025889,0.00043228,-0.00065648,-0.00024917,0.0009620
 3,-0.00098449,-0.00002944,0.00002598,0.00091272,0.00014704,0.00007033,
 -0.00008904,-0.00001450,-0.00022820,0.00030529,-0.08832991,0.07759204,
 -0.00080057,-0.00068304,0.00041679,0.03030578,-0.01184631,-0.01107145,
 0.07334140,-0.02300830,-0.06741482,0.00183674,-0.00031224,-0.00030170,
 -0.00117606,0.00040806,0.00116234,-0.00332373,0.00276358,-0.00572941,0
 .00265198,0.00072929,0.00035088,0.00075773,-0.00067302,0.00070301,-0.0
 0023954,0.00077169,-0.00023882,-0.00028587,-0.00030773,0.00007968,-0.0
 0005600,-0.00011733,0.00022774,-0.08055780,0.02601205,0.07525844,-0.00
 023539,-0.00068437,-0.00013748,0.00185557,0.00435322,0.00141049,-0.162
 71764,-0.07666565,-0.10293139,0.00046261,0.00165428,-0.00065156,0.0015
 8176,-0.00033004,-0.00060252,0.00018912,-0.00445088,-0.00057896,-0.001
 01755,0.00080435,0.00061817,0.00025741,0.00154078,-0.00028983,0.000106
 40,0.00002151,-0.00002011,0.00010056,0.00032246,-0.00004662,0.00028576
 ,0.00022107,0.00050394,-0.01523058,-0.01189598,-0.01683842,0.17209874,
 -0.00118914,-0.00105940,-0.00158149,0.00751359,0.00222175,0.00401649,-
 0.07670964,-0.08834472,-0.06483388,0.00030508,0.00044472,-0.00035681,0
 .00062084,0.00016646,0.00055038,-0.00038619,0.00060829,-0.00011234,0.0
 0012140,0.00008453,-0.00006387,0.00028512,-0.00040298,0.00008155,0.000
 11787,0.00033411,0.00044268,-0.00020666,-0.00004580,-0.00011408,0.0002
 3403,-0.00064492,0.00159768,0.00716979,0.00409970,0.00663159,0.0828196
 8,0.09261009,0.00044873,-0.00207277,0.00101885,-0.01704767,-0.01005946
 ,-0.02483226,-0.11027698,-0.06944983,-0.13418378,-0.00067753,-0.000792
 20,-0.00272381,0.00057445,0.00036675,0.00082948,-0.00139378,0.00397328
 ,0.00134348,0.00182553,0.00013628,-0.00040154,-0.00029315,-0.00126455,
 -0.00001131,0.00002691,-0.00013709,0.00008188,0.00073411,0.00019221,0.
 00025170,0.00044760,0.00065612,-0.00014417,0.00737870,0.00459140,0.006
 75481,0.11570286,0.07129073,0.14955433,0.00065886,-0.00080527,0.001523
 76,-0.00188610,-0.00457919,-0.00475452,-0.05187878,0.02502449,0.003781
 63,0.00046930,0.00059665,-0.00027817,0.00020298,-0.00004008,0.00026129
 ,-0.00040172,-0.00459950,-0.00083671,0.00046381,0.00100368,0.00060797,
 -0.00073406,0.00194446,0.00017951,0.00021734,-0.00028539,0.00027875,0.
 00073290,-0.00002948,0.00014066,0.00002834,0.00062663,0.00008365,0.002
 19550,0.02635834,-0.00496016,0.00216277,-0.02050419,0.00317419,0.04786
 622,-0.00046521,0.00111908,0.00108284,-0.00082159,-0.00664800,0.001574
 96,0.02341233,-0.32241063,0.02862908,-0.00052186,-0.00016274,-0.000619
 91,0.00035716,0.00009136,0.00003340,0.00099509,-0.00181520,0.00033323,
 -0.00002639,0.00056644,-0.00013497,0.00052073,0.00099141,-0.00105351,-
 0.00000488,0.00010017,-0.00007232,0.00010244,-0.00023007,-0.00004744,-
 0.00002274,0.00015595,-0.00011477,-0.00144488,-0.00347525,0.00027492,0
 .00257310,-0.01010363,0.00244629,-0.02477528,0.34110993,0.00202841,-0.
 00049676,-0.00576450,-0.00471050,0.03322900,-0.00426245,0.00218946,0.0
 2563525,-0.04864232,0.00066124,0.00214979,-0.00020788,0.00007357,-0.00
 028638,0.00011191,-0.00034908,0.00052000,0.00031436,-0.00115411,-0.000
 56687,0.00035640,0.00016793,-0.00106567,-0.00008020,0.00005224,-0.0002
 2577,0.00005499,-0.00028926,0.00162965,-0.00006882,0.00013834,-0.00005
 538,0.00025233,-0.00150031,-0.00941713,0.00056267,0.00211678,-0.018167
 24,0.00306817,0.00118675,-0.03204398,0.05511715,-0.00068317,0.00040436
 ,0.00011916,-0.00034256,-0.00781144,-0.00354130,-0.00063776,-0.0004730
 8,0.00011240,-0.06701021,0.06381018,-0.00725327,-0.01908445,0.03815837
 ,-0.00062189,-0.00034121,-0.00507694,0.00075765,0.00038881,0.00104751,
 -0.00035487,-0.00318420,0.00435085,-0.00037816,-0.00012634,-0.00011022
 ,-0.00013373,0.00016684,0.00013676,-0.00003503,-0.00018471,-0.00043477
 ,-0.00041503,0.00002465,0.00007275,-0.00000971,0.00026635,0.00004147,-
 0.00008410,0.00030210,-0.00007767,-0.00031692,0.08300156,-0.00047790,-
 0.00050496,-0.00052160,-0.00509659,-0.01220106,-0.00194342,0.00119714,
 0.00086008,0.00141901,0.08503257,-0.29065908,0.08231348,0.00084580,0.0
 0693084,-0.00007024,0.00002020,-0.00467915,-0.00061705,0.00028160,0.00
 115170,-0.00011102,0.00312559,0.00172470,0.00086553,0.00003496,0.00012
 242,0.00010185,-0.00003109,-0.00003420,-0.00009358,-0.00011881,-0.0002
 8772,-0.00010420,0.00002435,0.00000722,-0.00003906,-0.00020791,0.00022
 721,0.00032306,-0.00007667,0.00058463,-0.00053145,-0.08640507,0.296547
 79,-0.00019449,-0.00005244,-0.00017870,-0.00348398,-0.00718343,-0.0024
 3430,-0.00156227,-0.00220310,-0.00142748,-0.00804957,0.07506085,-0.076
 82542,0.00485678,-0.00248737,0.01542140,0.00011039,-0.00209310,-0.0003
 9672,-0.00034780,-0.00025371,0.00060657,0.00009919,0.00201134,-0.00079
 673,0.00000460,-0.00023733,-0.00012086,-0.00009239,-0.00015543,0.00007
 756,-0.00022540,-0.00023276,0.00007045,0.00019715,0.00018020,-0.000090
 46,0.00085901,0.00029407,0.00013289,-0.00013535,-0.00037841,-0.0009034
 4,0.01539719,-0.07855057,0.06648645,-0.00014645,0.00033589,-0.00048327
 ,-0.00439728,-0.00194967,-0.01021547,0.00044200,0.00008373,-0.00005932
 ,-0.06423780,-0.01761824,0.06439077,-0.02637308,-0.01695012,0.03342255
 ,0.00154527,-0.00383562,-0.00343281,-0.00132916,0.00056126,0.00095921,
 -0.00010474,0.00140305,0.00064954,0.00010952,-0.00004880,0.00018631,0.
 00011773,-0.00034611,-0.00018341,0.00007349,0.00021168,0.00001214,0.00
 005536,0.00003085,0.00003213,-0.00030612,-0.00016397,-0.00020897,-0.00
 005709,-0.00005378,-0.00001213,0.00716621,0.00160462,-0.00554316,0.089
 96504,-0.00183560,-0.00107795,-0.00297730,-0.00556917,-0.00142526,-0.0
 0737384,0.00074424,0.00027345,-0.00026443,-0.02230682,-0.10050869,0.10
 847020,-0.00083409,0.00793022,-0.01300145,0.00144354,-0.00536160,-0.00
 184583,-0.00119471,0.00103672,0.00079952,0.00083880,0.00202200,0.00008
 522,0.00024470,-0.00002081,0.00012990,-0.00044247,-0.00050588,-0.00047
 853,0.00058506,0.00014487,0.00048749,0.00013678,0.00016595,-0.00000366
 ,-0.00024969,0.00010247,0.00006051,-0.00007346,0.00014964,-0.00036281,
 -0.00718447,-0.00025123,0.02103589,0.03166117,0.09353752,0.00088193,0.
 00156906,0.00097774,-0.00437856,-0.00058405,-0.01402915,-0.00074153,-0
 .00056491,-0.00074266,0.08722660,0.11104303,-0.26623775,0.00114821,-0.
 00062976,0.00028870,0.00029992,-0.00273227,-0.00034251,-0.00023061,0.0
 0041330,0.00003067,0.00000834,0.00125897,0.00011895,0.00008183,-0.0001
 0552,-0.00008802,-0.00023319,-0.00061324,0.00047347,-0.00017272,0.0003
 1017,0.00029674,0.00007865,0.00006153,0.00010569,-0.00006379,-0.000023
 41,-0.00034983,-0.00002725,-0.00010628,-0.00005344,0.00093731,-0.00124
 536,0.00266675,-0.08467018,-0.10835828,0.27375701,0.00082636,0.0007448
 7,0.00062495,-0.00235972,-0.00190871,-0.00133405,0.00033408,0.00030784
 ,0.00101112,-0.02354447,-0.02666150,0.03522394,-0.10822152,-0.07957282
 ,0.10689571,-0.00117478,0.00217988,0.00102039,0.00101926,-0.00030791,-
 0.00046783,0.00063768,-0.00054115,-0.00018550,0.00006562,-0.00028971,-
 0.00020218,-0.00010011,-0.00008689,0.00006832,-0.00004541,-0.00005822,
 -0.00021468,0.00026469,-0.00050329,-0.00067790,0.00014024,-0.00006908,
 -0.00033091,-0.00034235,0.00025344,-0.00028241,0.00027809,0.00024722,-
 0.00188989,-0.00252290,0.00403619,-0.00014495,0.13474524,0.00059451,0.
 00028540,0.00036091,-0.00088114,-0.00062324,-0.00185667,-0.00043402,0.
 00033104,0.00089235,0.01125208,0.00586761,-0.00934902,-0.11730443,-0.1
 8863886,0.19672051,-0.00077794,0.00368327,0.00100959,0.00061147,-0.001
 03920,-0.00035770,0.00004938,-0.00134660,-0.00027185,-0.00021760,-0.00
 015609,0.00016678,0.00009147,-0.00013342,0.00008961,-0.00016493,0.0000
 1202,-0.00010590,-0.00006252,-0.00016981,-0.00060050,0.00017406,-0.000
 29787,-0.00026071,0.00021427,-0.00002309,0.00005574,-0.00044858,0.0004
 6082,-0.00475470,0.00507407,0.00378859,0.00030702,0.10222985,0.1779994
 3,-0.00086500,-0.00079423,-0.00115873,0.00135260,0.00268205,0.00245085
 ,-0.00140723,-0.00049625,-0.00116873,0.00305208,-0.00105190,-0.0023102
 1,0.13589928,0.17988688,-0.22606181,0.00018963,-0.00083571,-0.00085795
 ,-0.00032726,-0.00020232,0.00032859,-0.00014414,0.00056506,-0.00015103
 ,-0.00011209,0.00001279,0.00029364,0.00020477,0.00011576,0.00003175,-0
 .00005811,-0.00003114,0.00036923,-0.00037019,-0.00075233,-0.00077539,0
 .00094943,0.00034793,-0.00038891,-0.00022599,0.00019688,0.00014505,-0.
 00417971,-0.00119538,-0.00228797,0.00515605,0.00359740,0.00312763,-0.1
 3911414,-0.18204547,0.22841396\\-0.00000001,0.00000024,-0.00000024,0.0
 0000005,-0.00000045,0.00000020,-0.00000079,0.00000009,0.,0.00000006,0.
 00000044,-0.00000017,0.00000007,0.00000060,-0.00000040,0.00000047,-0.0
 0000018,0.00000050,0.00000005,-0.00000114,0.00000054,-0.00000038,-0.00
 000040,0.00000033,0.00000064,0.00000023,-0.00000024,0.00000094,-0.0000
 0017,0.00000006,0.00000067,-0.00000022,0.00000006,-0.00000035,0.000000
 33,-0.00000029,-0.00000032,-0.00000027,0.00000019,-0.00000064,0.,0.000
 00011,-0.00000041,0.00000012,0.,0.00000021,0.00000007,-0.00000009,-0.0
 0000026,0.00000071,-0.00000057\\\@


 YOU KNOW YOU'VE SPOKEN TOO LONG WHEN THE AUDIENCE STOPS LOOKING AT
 THEIR WATCHES AND STARTS SHAKING THEM.
 Job cpu time:       0 days  0 hours  8 minutes 41.2 seconds.
 Elapsed time:       0 days  0 hours  2 minutes 11.3 seconds.
 File lengths (MBytes):  RWF=     76 Int=      0 D2E=      0 Chk=      3 Scr=      1
 Normal termination of Gaussian 16 at Mon Jul 10 19:57:23 2023.
real 2307.42
user 8672.55
sys 29.11
