You are running Q-Chem version: 5.3.2

#
# job setting
#
local host:  c243.cluster
current dir: /scratch/user/peterchao1/peterchao1/10001434_1712072040000000113751678
input file:  qchem_test.inp
output file: 
nprocs     : 0
nthreads   : 8
#
# qchem installation setting
#
QC:          /sw/restricted/qchem/sw/5.3.2
QCAUX:       /sw/restricted/qchem/sw/5.3.2/qcaux
QCPROG:      /sw/restricted/qchem/sw/5.3.2/exe/qcprog.exe_s
QCPROG_S:    /sw/restricted/qchem/sw/5.3.2/exe/qcprog.exe_s
PARALLEL:    -DSERIAL
QCMPI:       seq
#
# qchem directory setting
#
qcrun:       qchem7809
QCSCRATCH:   /scratch/user/peterchao1/peterchao1/10001434_1712072040000000113751678
QCLOCALSCR:  
QCTMPDIR:    /scratch/user/peterchao1/peterchao1/10001434_1712072040000000113751678
QCFILEPREF:  /scratch/user/peterchao1/peterchao1/10001434_1712072040000000113751678/qchem7809
QCSAVEDIR:   
workdirs:    /scratch/user/peterchao1/peterchao1/10001434_1712072040000000113751678/qchem7809
workdir0:    /scratch/user/peterchao1/peterchao1/10001434_1712072040000000113751678/qchem7809
partmpdirs =  
#
# parallel setting
#
QCRSH:           ssh
QCMPI:           seq
QCMPIRUN:        
QCMACHINEFILE:   /scratch/user/peterchao1/peterchao1/10001434_1712072040000000113751678/qchem7809/hostfile

#
# env setting
#
exported envs:   QC QCAUX QCSCRATCH QCRUNNAME QCFILEPREF QCPROG QCPROG_S GUIFILE

Running Job 1 of 1 qchem_test.inp
qchem qchem_test.inp_7809.0 /scratch/user/peterchao1/peterchao1/10001434_1712072040000000113751678/qchem7809/ 0
/sw/restricted/qchem/sw/5.3.2/exe/qcprog.exe_s qchem_test.inp_7809.0 /scratch/user/peterchao1/peterchao1/10001434_1712072040000000113751678/qchem7809/
                  Welcome to Q-Chem
     A Quantum Leap Into The Future Of Chemistry


 Q-Chem 5.3, Q-Chem, Inc., Pleasanton, CA (2020)

 License issued to: MRG Daniel Tabor and Mike Hall, Texas A&M University

 Yihan Shao,  Zhengting Gan,  E. Epifanovsky,  A. T. B. Gilbert,  M. Wormit,  
 J. Kussmann,  A. W. Lange,  A. Behn,  Jia Deng,  Xintian Feng,  D. Ghosh,  
 M. Goldey,  P. R. Horn,  L. D. Jacobson,  I. Kaliman,  T. Kus,  A. Landau,  
 Jie Liu,  E. I. Proynov,  R. M. Richard,  R. P. Steele,  E. J. Sundstrom,  
 H. L. Woodcock III,  P. M. Zimmerman,  D. Zuev,  B. Alam,  B. Albrecht,  
 A. Aldossary,  E. Alguire,  S. A. Baeppler,  D. Barton,  Z. Benda,  
 Y. A. Bernard,  E. J. Berquist,  K. B. Bravaya,  H. Burton,  K. Carter-Fenk,  
 D. Casanova,  Chun-Min Chang,  Yunqing Chen,  A. Chien,  K. D. Closser,  
 M. P. Coons,  S. Coriani,  S. Dasgupta,  A. L. Dempwolff,  M. Diedenhofen,  
 Hainam Do,  R. G. Edgar,  Po-Tung Fang,  S. Faraji,  S. Fatehi,  
 Qingguo Feng,  J. Fosso-Tande,  J. Gayvert,  Qinghui Ge,  A. Ghysels,  
 G. Gidofalvi,  J. Gomes,  J. Gonthier,  S. Gulania,  A. Gunina,  D. Hait,  
 M. W. D. Hanson-Heine,  S. Hammes-Schiffer,  P. H. P. Harbach,  
 A. W. Hauser,  M. F. Herbst,  J. E. Herr,  E. G. Hohenstein,  Z. C. Holden,  
 S. Houck,  Kerwin Hui,  B. C. Huynh,  M. Ivanov,  T.-C. Jagau,  Hyunjun Ji,  
 B. Kaduk,  K. Khistyaev,  Jaehoon Kim,  P. Klunzinger,  K. Koh,  
 D. Kosenkov,  L. Koulias,  T. Kowalczyk,  C. M. Krauter,  A. Kunitsa,  
 Ka Un Lao,  A. Laurent,  K. V. Lawler,  Joonho Lee,  D. Lefrancois,  
 S. Lehtola,  D. S. Levine,  Yi-Pei Li,  You-Sheng Lin,  Fenglai Liu,  
 Kuan-Yu Liu,  E. Livshits,  M. Loipersberger,  A. Luenser,  A. Manjanath,  
 P. Manohar,  E. Mansoor,  S. F. Manzer,  Shan-Ping Mao,  Yuezhi Mao,  
 N. Mardirossian,  A. V. Marenich,  T. Markovich,  L. A. Martinez-Martinez,  
 S. A. Maurer,  N. J. Mayhall,  S. C. McKenzie,  J.-M. Mewes,  P. Morgante,  
 A. F. Morrison,  J. W. Mullinax,  K. Nanda,  T. S. Nguyen-Beck,  
 R. Olivares-Amaya,  K. J. Oosterbaan,  J. A. Parkhill,  S. K. Paul,  
 F. Pavosevic,  Zheng Pei,  T. M. Perrine,  F. Plasser,  P. Pokhilko,  
 S. Prager,  A. Prociuk,  E. Ramos,  B. Rana,  D. R. Rehn,  F. Rob,  
 E. Rossomme,  M. Scheurer,  M. Schneider,  N. Sergueev,  S. M. Sharada,  
 S. Sharma,  W. Skomorowski,  D. W. Small,  T. Stauch,  C. J. Stein,  
 T. Stein,  Yu-Chuan Su,  S. P. Veccham,  Zhen Tao,  A. J. W. Thom,  
 A. Tkatchenko,  T. Tsuchimochi,  N. M. Tubman,  L. Vogt,  M. L. Vidal,  
 O. Vydrov,  M. A. Watson,  J. Wenzel,  M. de Wergifosse,  T. A. Wesolowski,  
 A. White,  J. Witte,  A. Yamada,  Jun Yang,  K. Yao,  S. Yeganeh,  
 S. R. Yost,  Zhi-Qiang You,  A. Zech,  Igor Ying Zhang,  Xing Zhang,  
 Yan Zhao,  Ying Zhu,  B. R. Brooks,  G. K. L. Chan,  C. J. Cramer,  
 M. S. Gordon,  W. J. Hehre,  A. Klamt,  M. W. Schmidt,  C. D. Sherrill,  
 D. G. Truhlar,  A. Aspuru-Guzik,  R. Baer,  A. T. Bell,  N. A. Besley,  
 Jeng-Da Chai,  A. E. DePrince, III,  R. A. DiStasio Jr.,  A. Dreuw,  
 B. D. Dunietz,  T. R. Furlani,  Chao-Ping Hsu,  Yousung Jung,  Jing Kong,  
 D. S. Lambrecht,  WanZhen Liang,  C. Ochsenfeld,  V. A. Rassolov,  
 L. V. Slipchenko,  J. E. Subotnik,  T. Van Voorhis,  J. M. Herbert,  
 A. I. Krylov,  P. M. W. Gill,  M. Head-Gordon

 Contributors to earlier versions of Q-Chem not listed above: 
 R. D. Adamson,  B. Austin,  J. Baker,  G. J. O. Beran,  K. Brandhorst,  
 S. T. Brown,  E. F. C. Byrd,  A. K. Chakraborty,  C.-L. Cheng,  
 Siu Hung Chien,  D. M. Chipman,  D. L. Crittenden,  H. Dachsel,  
 R. J. Doerksen,  A. D. Dutoi,  L. Fusti-Molnar,  W. A. Goddard III,  
 A. Golubeva-Zadorozhnaya,  S. R. Gwaltney,  G. Hawkins,  A. Heyden,  
 S. Hirata,  G. Kedziora,  F. J. Keil,  C. Kelley,  Jihan Kim,  R. A. King,  
 R. Z. Khaliullin,  P. P. Korambath,  W. Kurlancheek,  A. M. Lee,  M. S. Lee,  
 S. V. Levchenko,  Ching Yeh Lin,  D. Liotard,  R. C. Lochan,  I. Lotan,  
 P. E. Maslen,  N. Nair,  D. P. O'Neill,  D. Neuhauser,  E. Neuscamman,  
 C. M. Oana,  R. Olson,  B. Peters,  R. Peverati,  P. A. Pieniazek,  
 Y. M. Rhee,  J. Ritchie,  M. A. Rohrdanz,  E. Rosta,  N. J. Russ,  
 H. F. Schaefer III,  N. E. Schultz,  N. Shenvi,  A. C. Simmonett,  A. Sodt,  
 D. Stuck,  K. S. Thanthiriwatte,  V. Vanovschi,  Tao Wang,  A. Warshel,  
 C. F. Williams,  Q. Wu,  X. Xu,  W. Zhang

 Please cite Q-Chem as follows:
 Y. Shao et al., Mol. Phys. 113, 184-215 (2015)
 DOI: 10.1080/00268976.2014.952696

 Q-Chem 5.3.2 for Intel X86 EM64T Linux

 Parts of Q-Chem use Armadillo 9.800.1 (Horizon Scraper).
 http://arma.sourceforge.net/

 Q-Chem begins on Tue Apr  2 10:34:00 2024  

Host: 
0

     Scratch files written to /scratch/user/peterchao1/peterchao1/10001434_1712072040000000113751678/qchem7809//
 Dec820 |scratch|qcdevops|jenkins|workspace|build_RNUM -1
Processing $rem in /sw/restricted/qchem/sw/5.3.2/config/preferences:
Processing $rem in /home/peterchao1/.qchemrc:

 Q-Chem warning in module libgen/rem_setup.C, line 2945:

 Neither GIA nor STOLL is specified by user. Use STOLL as the default


Checking the input file for inconsistencies... 	...done.

--------------------------------------------------------------
User input:
--------------------------------------------------------------
$molecule
0 1
--
0 1
O       -1.929146   -1.174674    2.169191
C       -3.001446   -0.693526    1.384894
C       -2.580171   -0.330487   -0.056956
C       -1.969553   -1.570745   -0.760752
O       -0.850718   -2.090104   -0.082009
C       -3.776176    0.194236   -0.858548
Br       -5.275735   -1.039548   -1.040922
C       -1.493938    0.755080   -0.051403
Br       -1.982454    2.422471    0.834533
H       -1.303211   -0.461038    2.390770
H       -3.481433    0.178958    1.865004
H       -3.742843   -1.506733    1.353579
H       -1.642342   -1.299862   -1.779890
H       -2.756407   -2.342482   -0.858476
H       -1.081416   -2.076303    0.872597
H       -3.470907    0.445188   -1.885476
H       -4.191040    1.096477   -0.388094
H       -1.200858    1.032943   -1.074202
H       -0.606370    0.402397    0.489856
--
0 1
O        1.547616   -2.655858    1.075202
C        2.795535   -2.060297    0.804247
C        2.750440   -0.512780    0.674976
C        2.060873    0.094212    1.926485
O        0.742768   -0.353143    2.102972
C        4.178386    0.042545    0.671233
Br        5.302906   -0.576073   -0.795224
C        1.990550   -0.183345   -0.613059
Br        1.846539    1.717568   -1.012324
H        0.957515   -2.640604    0.297038
H        3.252734   -2.497622   -0.102199
H        3.445921   -2.320803    1.656511
H        2.025242    1.192328    1.839467
H        2.677035   -0.152360    2.815794
H        0.775832   -1.328008    2.005229
H        4.708502   -0.241329    1.592169
H        4.167175    1.138778    0.590203
H        0.962463   -0.567513   -0.560065
H        2.499276   -0.626174   -1.481523
$end

$rem
JOBTYPE           eda
EDA2              2
METHOD            wB97x-D
BASIS             def2-SV(P)
SCF_CONVERGENCE   8
THRESH            14
SYMMETRY          false
DISP_FREE_X       wB97X-D
DISP_FREE_C       none
EDA_BSSE          true
$end
--------------------------------------------------------------
 ----------------------------------------------------------------
             Standard Nuclear Orientation (Angstroms)
    I     Atom           X                Y                Z
 ----------------------------------------------------------------
    1      O       1.9291459492     1.1746738844     2.1691908660
    2      C       3.0014459489     0.6935258738     1.3848938722
    3      C       2.5801709614     0.3304869134    -0.0569561414
    4      C       1.9695530026     1.5707449428    -0.7607521253
    5      O       0.8507180054     2.0901039568    -0.0820091315
    6      C       3.7761759604    -0.1942361000    -0.8585481342
    7      Br      5.2757349936     1.0395478666    -1.0409220869
    8      C       1.4939379344    -0.7550800598    -0.0514031796
    9      Br      1.9824538799    -2.4224710898     0.8345327939
   10      H       1.3032109282     0.4610378955     2.3907698422
   11      H       3.4814329202    -0.1789581479     1.8650038617
   12      H       3.7428429696     1.5067328560     1.3535788998
   13      H       1.6423420111     1.2998619716    -1.7798901357
   14      H       2.7564070232     2.3424819253    -0.8584760980
   15      H       1.0814159908     2.0763029317     0.8725968717
   16      H       3.4709069694    -0.4451880716    -1.8854761438
   17      H       4.1910399310    -1.0964771198    -0.3880941463
   18      H       1.2008579428    -1.0329430318    -1.0742021896
   19      H       0.6063699351    -0.4023970488     0.4898558144
   20      O      -1.5476159978     2.6558579927     1.0752018443
   21      C      -2.7955350085     2.0602970292     0.8042468136
   22      C      -2.7504400450     0.5127800307     0.6749757829
   23      C      -2.0608730786    -0.0942120118     1.9264847809
   24      O      -0.7427680702     0.3531429520     2.1029718096
   25      C      -4.1783860587    -0.0425449339     0.6712327504
   26      Br     -5.3029060215     0.5760731237    -0.7952242538
   27      C      -1.9905500339     0.1833450379    -0.6130592124
   28      Br     -1.8465390751    -1.7175679575    -1.0123242488
   29      H      -0.9575149866     2.6406039939     0.2970378527
   30      H      -3.2527339842     2.4976220589    -0.1021991843
   31      H      -3.4459210148     2.3208030280     1.6565108092
   32      H      -2.0252421045    -1.1923280109     1.8394667592
   33      H      -2.6770350858     0.1523599855     2.8157937767
   34      H      -0.7758320446     1.3280079548     2.0052288289
   35      H      -4.7085020653     0.2413290606     1.5921687483
   36      H      -4.1671750846    -1.1387779325     0.5902027284
   37      H      -0.9624630252     0.5675130114    -0.5600651893
   38      H      -2.4992760100     0.6261740681    -1.4815232110
 ----------------------------------------------------------------
 Molecular Point Group                 C1    NOp =  1
 Largest Abelian Subgroup              C1    NOp =  1
 Nuclear Repulsion Energy =        3561.84994364 hartrees
 There are      126 alpha and      126 beta electrons
 Requested basis set is def2-SV(P)
 There are 172 shells and 364 basis functions

 Total QAlloc Memory Limit   7500 MB
 Mega-Array Size       188 MB
 MEM_STATIC part       192 MB
 A cutoff of  1.0D-14 yielded  11574 shell pairs
 There are     48268 function pairs (     54586 Cartesian)
 Smallest overlap matrix eigenvalue = 1.32E-03

 Scale SEOQF with 1.000000e-02/1.000000e-01/1.000000e-01

 Standard Electronic Orientation quadrupole field applied
 Nucleus-field energy     =     0.0000000175 hartrees

 -----------------------------------------------------------------------
  General SCF calculation program by
  Eric Jon Sundstrom, Paul Horn, Yuezhi Mao, Dmitri Zuev, Alec White,
  David Stuck, Shaama M.S., Shane Yost, Joonho Lee, David Small,
  Daniel Levine, Susi Lehtola, Hugh Burton, Evgeny Epifanovsky,
  Bang C. Huynh
 -----------------------------------------------------------------------
================================================================
                 ALMO-EDA with the EDA2 driver                  
================================================================
 The second-generation ALMO-EDA (for DFT):                      
 P. R. Horn, Y. Mao and M. Head-Gordon, PCCP, 18, 23067 (2016)  
 Decomposition of the frozen energy:                            
 P. R. Horn, Y. Mao and M. Head-Gordon, JCP, 144, 114107 (2016) 
Using eda2 option set 2
Option set summary: Frozen orbital wavefunction, initial wavefunction decomposition, and traditional AO-based POL.
--------------------------------
Printing EDA Options
--------------------------------
eda_child_super_basis      0
fragmo_guess_mode          0
child_mp                   0
child_mp_orders            0
cls_elec                   1
cls_disp                   0
scfmi_mode                 1
scfmi_occs                 0
scfmi_virts                0
frz_relax                  0
frz_relax_method           0
dc_pen_start               0
dc_pen_conv                0
dc_pen_increment           0
dc_pen_steps               0
dc_pen_thresh_factor       0
dc_pen_pre_newton_thresh   0
frz_ortho_decomp           1
frz_ortho_decomp_conv      6
plot_mo_ortho_frz          0
frgm_method                2
scfmi_freeze_ss            0
separate_rehyb             0
plot_diff_den              0
eda_nocv                   0
eda_vct_relax              1
disp_free_x                -110
disp_free_c                0
eda_bsse                   1
eda_pct_a                  0
eda_covp                   0
--------------------------------
Attempting to make child job directory: /scratch/user/peterchao1/peterchao1/10001434_1712072040000000113751678/qchem7809//Frg1/
Attempting to make child job directory: /scratch/user/peterchao1/peterchao1/10001434_1712072040000000113751678/qchem7809//Frg2/
Creating input file /scratch/user/peterchao1/peterchao1/10001434_1712072040000000113751678/qchem7809/Frg1.input
using default PutDataFrgm: nothing
calling putenv with: QCSCRATCH=/scratch/user/peterchao1/peterchao1/10001434_1712072040000000113751678/qchem7809/ 
Spawning Job For Fragment 0
Done Job For Fragment 0
calling putenv with: QCSCRATCH=/scratch/user/peterchao1/peterchao1/10001434_1712072040000000113751678 
calling putenv with: QCTHREADS=8 
Creating input file /scratch/user/peterchao1/peterchao1/10001434_1712072040000000113751678/qchem7809/Frg2.input
using default PutDataFrgm: nothing
calling putenv with: QCSCRATCH=/scratch/user/peterchao1/peterchao1/10001434_1712072040000000113751678/qchem7809/ 
Spawning Job For Fragment 1
Done Job For Fragment 1
calling putenv with: QCSCRATCH=/scratch/user/peterchao1/peterchao1/10001434_1712072040000000113751678 
calling putenv with: QCTHREADS=8 
Doing General SCFMI
 Exchange:     0.2220 Hartree-Fock + 1.0000 wB97X-D + LR-HF
 Correlation:  1.0000 wB97X-D
 Using SG-2 standard quadrature grid
 Dispersion:   Grimme D
performing fock build before subrot guess so that all methods have access
Printing subrot_rss_gen Method Specification:
Occupied Subspace Method is 0
Virtual Subspace Method is 0
Energy of the unrelaxed supersystem initial determinant -10988.821859104251
write pseudocanon occs and virts to disk
write pseudocanon orbital energies to disk
Tolerance of ortho_decomp_scf: 1.00e-06
GDM subspace size: 20
Beginning the Orthogonal Decomposition of the Initial Supersystem Wavefunction
    1  -10988.7241431459      4.29e-02     ortho_decomp Preconditoned Steepest Descent
    2  -10988.7367251875      4.51e-04     ortho_decomp BFGS Step
    3  -10988.7367436715      4.75e-05     ortho_decomp BFGS Step
    4  -10988.7367437382      1.58e-06     ortho_decomp BFGS Step
    5  -10988.7367437383      4.14e-08     ortho_decomp 00000 Convergence criterion met
 Exchange:     0.2220 Hartree-Fock + 1.0000 wB97X-D + LR-HF
 Correlation:  1.0000 wB97X-D
 Using SG-2 standard quadrature grid
 Dispersion:   Grimme D
 Long-range K will be added via erf
 Coulomb attenuation parameter = 0.2 bohr**(-1)
 Exchange:     0.2220 Hartree-Fock + 1.0000 wB97X-D + LR-HF
 Correlation:  1.0000 wB97X-D
 Using SG-2 standard quadrature grid
 Dispersion:   Grimme D
 Long-range K will be added via erf
 Coulomb attenuation parameter = 0.2 bohr**(-1)
 Exchange:     0.2220 Hartree-Fock + 1.0000 wB97X-D + LR-HF
 Correlation:  1.0000 wB97X-D
 Using SG-2 standard quadrature grid
 Dispersion:   Grimme D
 Long-range K will be added via erf
 Coulomb attenuation parameter = 0.2 bohr**(-1)
Doing General SCFMI
 Exchange:     0.2220 Hartree-Fock + 1.0000 wB97X-D + LR-HF
 Correlation:  1.0000 wB97X-D
 Using SG-2 standard quadrature grid
 Dispersion:   Grimme D
performing fock build at end of subrot_r(subrot) constructor so that all methods have access
<S^2> of initial wavefunction before polarization iterations 0.0000000000
Beginning iterations for the determination of the polarized wavefunction
Energy prior to optimization (guess energy) = -10988.821859104251
Begin Timing: Total SCF Calculation
begin iterations for algorithm: DIIS         
the SCF tolerance is set to 1.00e-08
    1  -10988.8218591043      2.64e-04     00000 
    2  -10988.8261842627      8.60e-05     00000 
    3  -10988.8264723955      5.83e-05     00000 
    4  -10988.8265766339      1.79e-05     00000 
    5  -10988.8265891939      4.59e-06     00000 
    6  -10988.8265902725      1.71e-06     00000 
    7  -10988.8265903760      4.24e-07     00000 
    8  -10988.8265903838      1.56e-07     00000 
    9  -10988.8265903848      4.77e-08     00000 
   10  -10988.8265903849      1.21e-08     00000 
   11  -10988.8265903849      6.00e-09     00000 Convergence criterion met
write pseudocanon occs and virts to disk
write pseudocanon orbital energies to disk
Timing for Total SCF: 72.00s (wall), 519.95s (cpu)
<S^2> of polarized wavefunction after polarization iterations 0.0000000000
relaxing scfmi constraint to allow all rotations in the entire AO span
Doing General SCFMI
 Exchange:     0.2220 Hartree-Fock + 1.0000 wB97X-D + LR-HF
 Correlation:  1.0000 wB97X-D
 Using SG-2 standard quadrature grid
 Dispersion:   Grimme D
performing fock build at end of subrot_r(subrot) constructor so that all methods have access
<S^2> of polarized wavefunction before ct-allowed iterations 0.0000000000
Beginning iterations for the determination of the CT-Allowed wavefunction
Energy prior to optimization (guess energy) = -10988.826590384908
Begin Timing: Total SCF Calculation
begin iterations for algorithm: DIIS         
the SCF tolerance is set to 1.00e-08
    1  -10988.8265903849      4.95e-04     00000 
    2  -10988.8440966813      8.13e-05     00000 
    3  -10988.8449751601      4.78e-05     00000 
    4  -10988.8451024784      2.07e-05     00000 
    5  -10988.8451311876      3.62e-06     00000 
    6  -10988.8451321699      1.08e-06     00000 
    7  -10988.8451322758      3.61e-07     00000 
    8  -10988.8451322851      8.41e-08     00000 
    9  -10988.8451322856      3.29e-08     00000 
   10  -10988.8451322857      9.41e-09     00000 Convergence criterion met
write pseudocanon occs and virts to disk
write pseudocanon orbital energies to disk
Timing for Total SCF: 76.00s (wall), 491.71s (cpu)
<S^2> of ct_allowed wavefunction after ct-allowed iterations 0.0000000000
Attempting to make child job directory: /scratch/user/peterchao1/peterchao1/10001434_1712072040000000113751678/qchem7809//FrgBSSE1/
Attempting to make child job directory: /scratch/user/peterchao1/peterchao1/10001434_1712072040000000113751678/qchem7809//FrgBSSE2/
Creating input file /scratch/user/peterchao1/peterchao1/10001434_1712072040000000113751678/qchem7809/FrgBSSE1.input
calling putenv with: QCSCRATCH=/scratch/user/peterchao1/peterchao1/10001434_1712072040000000113751678/qchem7809/ 
Spawning Job For Fragment 0
Done Job For Fragment 0
calling putenv with: QCSCRATCH=/scratch/user/peterchao1/peterchao1/10001434_1712072040000000113751678 
calling putenv with: QCTHREADS=8 
Creating input file /scratch/user/peterchao1/peterchao1/10001434_1712072040000000113751678/qchem7809/FrgBSSE2.input
calling putenv with: QCSCRATCH=/scratch/user/peterchao1/peterchao1/10001434_1712072040000000113751678/qchem7809/ 
Spawning Job For Fragment 1
Done Job For Fragment 1
calling putenv with: QCSCRATCH=/scratch/user/peterchao1/peterchao1/10001434_1712072040000000113751678 
calling putenv with: QCTHREADS=8 
====================================================================
   Evaluating the BSSE with fragment SCF in the supersystem basis
   Fragment contributions (kJ/mol) 
   Frgm 1: 12.5551
   Frgm 2: 13.5191
   BSSE (kJ/mol) = 26.0742
====================================================================

================================
        Results of EDA2         
================================
Basic EDA Quantities
--------------------
Fragment Energies (Ha):
1-5494.4048278621
2-5494.4037430522
--------------------
  E_prp (kJ/mol) = 0.0000
  E_frz (kJ/mol) = -34.8886
  E_pol (kJ/mol) = -12.4221
  E_vct (kJ/mol) = -22.6081 (CP-corrected)
  E_int (kJ/mol) = -69.9188 (CP-corrected)
--------------------


Decomposition of frozen interaction energy
--------------------
  --------------------
  Orthogonal Frozen Decomposition:
  --------------------
     E_elec   (ELEC)   (kJ/mol) = -145.4143
     E_pauli  (PAULI)  (kJ/mol) = 138.5664
     E_disp   (DISP)   (kJ/mol) = -28.0407
  --------------------
  Classical Frozen Decomposition:
  --------------------
     E_cls_elec  (CLS ELEC)  (kJ/mol) = -79.6737
     E_mod_pauli (MOD PAULI) (kJ/mol) = 72.8259 (FRZ - CLS ELEC - DISP)
     E_disp      (DISP)      (kJ/mol) = -28.0407
  --------------------
--------------------

Simplified EDA Summary (kJ/mol)
--------------------
 PREPARATION      0.0000
 FROZEN           -34.8886 (ELEC + PAULI + DISP)
[ELEC + PAULI = -6.8479, DISP = -28.0407]
 POLARIZATION    -12.4221
 CHARGE TRANSFER -22.6081     (counterpoise-corrected)
 TOTAL           -69.9188     (PRP + FRZ + POL + CT)
--------------------
 
 --------------------------------------------------------------
 
                    Orbital Energies (a.u.)
 --------------------------------------------------------------
 
 Alpha MOs
 -- Occupied --
********-483.0605-483.0599-483.0572 -62.6436 -62.6423 -62.6419 -62.6391
-56.4514 -56.4501 -56.4497 -56.4478 -56.4477 -56.4468 -56.4466 -56.4465
-56.4461 -56.4460 -56.4433 -56.4432 -19.2790 -19.2782 -19.2696 -19.2674
-10.3653 -10.3644 -10.3623 -10.3606 -10.3603 -10.3579 -10.3570 -10.3548
-10.3470 -10.3448  -8.8133  -8.8119  -8.8116  -8.8087  -6.6388  -6.6372
 -6.6370  -6.6340  -6.6258  -6.6253  -6.6244  -6.6240  -6.6240  -6.6237
 -6.6212  -6.6209  -2.7424  -2.7408  -2.7406  -2.7389  -2.7384  -2.7376
 -2.7373  -2.7370  -2.7369  -2.7367  -2.7341  -2.7338  -2.7281  -2.7280
 -2.7268  -2.7268  -2.7264  -2.7263  -2.7236  -2.7236  -1.1547  -1.1447
 -1.1273  -1.1199  -0.9673  -0.9635  -0.9089  -0.9064  -0.8742  -0.8672
 -0.7973  -0.7899  -0.7810  -0.7728  -0.7620  -0.7607  -0.6787  -0.6696
 -0.6441  -0.6412  -0.6167  -0.5986  -0.5910  -0.5855  -0.5726  -0.5618
 -0.5564  -0.5507  -0.5319  -0.5290  -0.5257  -0.5058  -0.5042  -0.5002
 -0.4958  -0.4934  -0.4775  -0.4725  -0.4668  -0.4555  -0.4516  -0.4483
 -0.4315  -0.4187  -0.3988  -0.3866  -0.3777  -0.3751  -0.3708  -0.3678
 -0.3664  -0.3653  -0.3628  -0.3604  -0.3596  -0.3555
 -- Virtual --
  0.0654   0.0686   0.0708   0.0736   0.1238   0.1295   0.1342   0.1509
  0.1577   0.1592   0.1696   0.1791   0.1840   0.1894   0.1994   0.2012
  0.2044   0.2110   0.2223   0.2319   0.2376   0.2394   0.2447   0.2532
  0.2588   0.2632   0.2723   0.2807   0.2868   0.2923   0.3022   0.3036
  0.3125   0.3154   0.3208   0.3310   0.4180   0.4248   0.4308   0.4494
  0.4555   0.4683   0.4880   0.4887   0.4937   0.5095   0.5109   0.5308
  0.5343   0.5422   0.5555   0.5603   0.5610   0.5672   0.5730   0.5775
  0.5799   0.5914   0.5930   0.6052   0.6109   0.6121   0.6238   0.6284
  0.6350   0.6390   0.6414   0.6478   0.6493   0.6564   0.6624   0.6676
  0.6693   0.6741   0.6849   0.6880   0.6941   0.6953   0.7050   0.7077
  0.7103   0.7162   0.7243   0.7295   0.7337   0.7373   0.7452   0.7516
  0.7550   0.7594   0.7660   0.7699   0.7704   0.7747   0.7831   0.7872
  0.7946   0.8036   0.8088   0.8126   0.8162   0.8197   0.8322   0.8334
  0.8418   0.8552   0.8598   0.8711   0.8882   0.9121   0.9331   0.9344
  0.9626   0.9670   0.9804   1.0046   1.0155   1.0409   1.0524   1.0668
  1.0748   1.0834   1.1140   1.1219   1.1292   1.1310   1.1432   1.1528
  1.1721   1.2150   1.2221   1.2379   1.2429   1.2555   1.2665   1.2897
  1.3302   1.3499   1.3688   1.3746   1.4040   1.4100   1.4594   1.4862
  1.5029   1.5360   1.5507   1.5594   1.6199   1.6400   1.6636   1.7041
  1.7657   1.7812   1.7897   1.7950   1.8167   1.8495   1.8633   1.8673
  1.8786   1.8958   1.9254   1.9311   2.0325   2.0385   2.0426   2.0506
  2.0619   2.0735   2.0874   2.0932   2.1147   2.1301   2.1391   2.1544
  2.1681   2.1739   2.1819   2.2005   2.2044   2.2127   2.2344   2.2389
  2.2457   2.2554   2.2642   2.2731   2.5203   2.5254   2.5356   2.5542
  2.6531   2.6587   2.6644   2.6683   2.7016   2.7164   2.7392   2.7435
  2.7560   2.7732   2.8696   2.8767   2.9281   2.9306   3.0014   3.0147
  3.0577   3.0598   3.0765   3.0940   3.1138   3.1351   3.4371   3.4493
  3.4655   3.4856   3.5414   3.5446   3.5513   3.5542   3.5569   3.5616
  3.5641   3.5670   3.6215   3.6356   3.6396   3.6446   3.6465   3.6508
  3.6573   3.6776   3.8791   3.8834   3.8847   3.8982
 --------------------------------------------------------------
 
          Ground-State Mulliken Net Atomic Charges

     Atom                 Charge (a.u.)
  ----------------------------------------
      1 O                    -0.522597
      2 C                     0.055780
      3 C                    -0.315190
      4 C                     0.098330
      5 O                    -0.539054
      6 C                    -0.193941
      7 Br                   -0.112224
      8 C                    -0.292358
      9 Br                   -0.112342
     10 H                     0.362878
     11 H                     0.128541
     12 H                     0.132727
     13 H                     0.107148
     14 H                     0.126282
     15 H                     0.348687
     16 H                     0.161486
     17 H                     0.178934
     18 H                     0.164115
     19 H                     0.216743
     20 O                    -0.522902
     21 C                     0.063705
     22 C                    -0.334062
     23 C                     0.097590
     24 O                    -0.519710
     25 C                    -0.195652
     26 Br                   -0.108245
     27 C                    -0.238753
     28 Br                   -0.108043
     29 H                     0.363385
     30 H                     0.127703
     31 H                     0.118208
     32 H                     0.129909
     33 H                     0.100918
     34 H                     0.342039
     35 H                     0.162997
     36 H                     0.178609
     37 H                     0.177008
     38 H                     0.171351
  ----------------------------------------
  Sum of atomic charges =     0.000000

 -----------------------------------------------------------------
                    Cartesian Multipole Moments
 -----------------------------------------------------------------
    Charge (ESU x 10^10)
                 0.0000
    Dipole Moment (Debye)
         X      -1.0086      Y       0.2036      Z       0.0129
       Tot       1.0291
    Quadrupole Moments (Debye-Ang)
        XX    -166.6395     XY      -2.5117     YY    -167.0092
        XZ      -7.3242     YZ      -3.2310     ZZ    -160.3027
    Octopole Moments (Debye-Ang^2)
       XXX      -8.2587    XXY     -22.6467    XYY       0.5184
       YYY     -69.9336    XXZ      26.7402    XYZ       5.9341
       YYZ     -22.7733    XZZ     -13.5031    YZZ     -24.0873
       ZZZ     -49.7969
    Hexadecapole Moments (Debye-Ang^3)
      XXXX  -10836.4242   XXXY      10.7949   XXYY   -2054.1767
      XYYY      56.8465   YYYY   -2139.4548   XXXZ      37.0615
      XXYZ     -21.7889   XYYZ      31.8388   YYYZ     -69.2655
      XXZZ   -1905.2887   XYZZ     -28.1104   YYZZ    -583.5303
      XZZZ      49.4207   YZZZ     -53.8885   ZZZZ   -1340.0457
 -----------------------------------------------------------------
Archival summary:
1\1\c243.cluster\SP\ProcedureUnspecified\BasisUnspecified\r441020\petercha\TueApr210:42:252024TueApr210:42:252024\0\\#,ProcedureUnspecified,BasisUnspecified,\\0,1\Br\C,1,1.94772\H,2,1.0988,1,106.375\H,2,1.0996,1,105.387,3,115.963,0\C,2,1.53134,1,114.776,3,-122.391,0\C,5,1.53213,2,112.486,1,-57.9159,0\H,6,1.09928,5,110.617,2,61.2269,0\H,6,1.09988,5,110.708,2,-177.955,0\C,5,1.55249,2,111.934,1,61.2029,0\H,9,1.10213,5,109.893,2,-60.9238,0\H,9,1.10965,5,108.213,2,-178.173,0\O,9,1.40309,5,113.204,2,59.0125,0\H,12,0.980311,9,105.833,5,48.0005,0\C,5,1.55356,2,107.379,1,-178.482,0\H,14,1.10328,5,108.457,2,172.999,0\H,14,1.10541,5,109.746,2,56.1536,0\O,14,1.40905,5,114.288,2,-69.1463,0\H,17,0.976725,14,112.041,5,72.5225,0\O,18,1.92781,17,136.702,14,-128.89,0\H,19,0.982184,18,91.9041,17,-16.732,0\C,19,1.40791,18,160.999,17,144.518,0\H,21,1.10412,19,107.456,18,3.32352,0\H,21,1.10647,19,110.513,18,120.312,0\C,21,1.55126,19,112.893,18,-117.932,0\C,24,1.53242,21,110.1,19,179.114,0\H,25,1.09885,24,110.601,21,-177.796,0\H,25,1.10034,24,110.472,21,-57.6718,0\C,24,1.5357,21,106.761,19,61.916,0\H,28,1.09778,24,110.277,21,-59.8325,0\H,28,1.09965,24,111.332,21,61.193,0\C,24,1.54538,21,110.046,19,-58.4233,0\H,31,1.10089,24,109.304,21,-59.3698,0\H,31,1.1055,24,109.764,21,-177.205,0\O,31,1.41296,24,113.017,21,58.3905,0\H,34,0.974766,31,111.358,24,71.1215,0\Br,6,1.94878,5,115.124,2,-58.211,0\Br,28,1.95031,24,115.392,21,-178.138,0\Br,25,1.95043,24,115.618,21,62.2616,0\\\@

 Total job time:  505.46s(wall), 2176.05s(cpu) 
 Tue Apr  2 10:42:25 2024

        *************************************************************
        *                                                           *
        *  Thank you very much for using Q-Chem.  Have a nice day.  *
        *                                                           *
        *************************************************************


remove work dirs /scratch/user/peterchao1/peterchao1/10001434_1712072040000000113751678/qchem7809.0 -- /scratch/user/peterchao1/peterchao1/10001434_1712072040000000113751678/qchem7809.-1
rm -rf /scratch/user/peterchao1/peterchao1/10001434_1712072040000000113751678/qchem7809
real 505.87
user 3282.65
sys 83.03
