You are running Q-Chem version: 5.3.2

#
# job setting
#
local host:  tnxt-0468.cluster
current dir: /scratch/user/peterli3819/peterli3819/12613584_1663277324000000969493134
input file:  qchem_test.inp
output file: 
nprocs     : 0
nthreads   : 8
#
# qchem installation setting
#
QC:          /sw/restricted/qchem/sw/5.3.2
QCAUX:       /sw/restricted/qchem/sw/5.3.2/qcaux
QCPROG:      /sw/restricted/qchem/sw/5.3.2/exe/qcprog.exe_s
QCPROG_S:    /sw/restricted/qchem/sw/5.3.2/exe/qcprog.exe_s
PARALLEL:    -DSERIAL
QCMPI:       seq
#
# qchem directory setting
#
qcrun:       qchem37481
QCSCRATCH:   /scratch/user/peterli3819/peterli3819/12613584_1663277324000000969493134
QCLOCALSCR:  
QCTMPDIR:    /scratch/user/peterli3819/peterli3819/12613584_1663277324000000969493134
QCFILEPREF:  /scratch/user/peterli3819/peterli3819/12613584_1663277324000000969493134/qchem37481
QCSAVEDIR:   
workdirs:    /scratch/user/peterli3819/peterli3819/12613584_1663277324000000969493134/qchem37481
workdir0:    /scratch/user/peterli3819/peterli3819/12613584_1663277324000000969493134/qchem37481
partmpdirs =  
#
# parallel setting
#
QCRSH:           ssh
QCMPI:           seq
QCMPIRUN:        
QCMACHINEFILE:   /scratch/user/peterli3819/peterli3819/12613584_1663277324000000969493134/qchem37481/hostfile

#
# env setting
#
exported envs:   QC QCAUX QCSCRATCH QCRUNNAME QCFILEPREF QCPROG QCPROG_S GUIFILE

Running Job 1 of 1 qchem_test.inp
qchem qchem_test.inp_37481.0 /scratch/user/peterli3819/peterli3819/12613584_1663277324000000969493134/qchem37481/ 0
/sw/restricted/qchem/sw/5.3.2/exe/qcprog.exe_s qchem_test.inp_37481.0 /scratch/user/peterli3819/peterli3819/12613584_1663277324000000969493134/qchem37481/
                  Welcome to Q-Chem
     A Quantum Leap Into The Future Of Chemistry


 Q-Chem 5.3, Q-Chem, Inc., Pleasanton, CA (2020)

 License issued to: MRG Daniel Tabor and Mike Hall, Texas A&M University

 Yihan Shao,  Zhengting Gan,  E. Epifanovsky,  A. T. B. Gilbert,  M. Wormit,  
 J. Kussmann,  A. W. Lange,  A. Behn,  Jia Deng,  Xintian Feng,  D. Ghosh,  
 M. Goldey,  P. R. Horn,  L. D. Jacobson,  I. Kaliman,  T. Kus,  A. Landau,  
 Jie Liu,  E. I. Proynov,  R. M. Richard,  R. P. Steele,  E. J. Sundstrom,  
 H. L. Woodcock III,  P. M. Zimmerman,  D. Zuev,  B. Alam,  B. Albrecht,  
 A. Aldossary,  E. Alguire,  S. A. Baeppler,  D. Barton,  Z. Benda,  
 Y. A. Bernard,  E. J. Berquist,  K. B. Bravaya,  H. Burton,  K. Carter-Fenk,  
 D. Casanova,  Chun-Min Chang,  Yunqing Chen,  A. Chien,  K. D. Closser,  
 M. P. Coons,  S. Coriani,  S. Dasgupta,  A. L. Dempwolff,  M. Diedenhofen,  
 Hainam Do,  R. G. Edgar,  Po-Tung Fang,  S. Faraji,  S. Fatehi,  
 Qingguo Feng,  J. Fosso-Tande,  J. Gayvert,  Qinghui Ge,  A. Ghysels,  
 G. Gidofalvi,  J. Gomes,  J. Gonthier,  S. Gulania,  A. Gunina,  D. Hait,  
 M. W. D. Hanson-Heine,  S. Hammes-Schiffer,  P. H. P. Harbach,  
 A. W. Hauser,  M. F. Herbst,  J. E. Herr,  E. G. Hohenstein,  Z. C. Holden,  
 S. Houck,  Kerwin Hui,  B. C. Huynh,  M. Ivanov,  T.-C. Jagau,  Hyunjun Ji,  
 B. Kaduk,  K. Khistyaev,  Jaehoon Kim,  P. Klunzinger,  K. Koh,  
 D. Kosenkov,  L. Koulias,  T. Kowalczyk,  C. M. Krauter,  A. Kunitsa,  
 Ka Un Lao,  A. Laurent,  K. V. Lawler,  Joonho Lee,  D. Lefrancois,  
 S. Lehtola,  D. S. Levine,  Yi-Pei Li,  You-Sheng Lin,  Fenglai Liu,  
 Kuan-Yu Liu,  E. Livshits,  M. Loipersberger,  A. Luenser,  A. Manjanath,  
 P. Manohar,  E. Mansoor,  S. F. Manzer,  Shan-Ping Mao,  Yuezhi Mao,  
 N. Mardirossian,  A. V. Marenich,  T. Markovich,  L. A. Martinez-Martinez,  
 S. A. Maurer,  N. J. Mayhall,  S. C. McKenzie,  J.-M. Mewes,  P. Morgante,  
 A. F. Morrison,  J. W. Mullinax,  K. Nanda,  T. S. Nguyen-Beck,  
 R. Olivares-Amaya,  K. J. Oosterbaan,  J. A. Parkhill,  S. K. Paul,  
 F. Pavosevic,  Zheng Pei,  T. M. Perrine,  F. Plasser,  P. Pokhilko,  
 S. Prager,  A. Prociuk,  E. Ramos,  B. Rana,  D. R. Rehn,  F. Rob,  
 E. Rossomme,  M. Scheurer,  M. Schneider,  N. Sergueev,  S. M. Sharada,  
 S. Sharma,  W. Skomorowski,  D. W. Small,  T. Stauch,  C. J. Stein,  
 T. Stein,  Yu-Chuan Su,  S. P. Veccham,  Zhen Tao,  A. J. W. Thom,  
 A. Tkatchenko,  T. Tsuchimochi,  N. M. Tubman,  L. Vogt,  M. L. Vidal,  
 O. Vydrov,  M. A. Watson,  J. Wenzel,  M. de Wergifosse,  T. A. Wesolowski,  
 A. White,  J. Witte,  A. Yamada,  Jun Yang,  K. Yao,  S. Yeganeh,  
 S. R. Yost,  Zhi-Qiang You,  A. Zech,  Igor Ying Zhang,  Xing Zhang,  
 Yan Zhao,  Ying Zhu,  B. R. Brooks,  G. K. L. Chan,  C. J. Cramer,  
 M. S. Gordon,  W. J. Hehre,  A. Klamt,  M. W. Schmidt,  C. D. Sherrill,  
 D. G. Truhlar,  A. Aspuru-Guzik,  R. Baer,  A. T. Bell,  N. A. Besley,  
 Jeng-Da Chai,  A. E. DePrince, III,  R. A. DiStasio Jr.,  A. Dreuw,  
 B. D. Dunietz,  T. R. Furlani,  Chao-Ping Hsu,  Yousung Jung,  Jing Kong,  
 D. S. Lambrecht,  WanZhen Liang,  C. Ochsenfeld,  V. A. Rassolov,  
 L. V. Slipchenko,  J. E. Subotnik,  T. Van Voorhis,  J. M. Herbert,  
 A. I. Krylov,  P. M. W. Gill,  M. Head-Gordon

 Contributors to earlier versions of Q-Chem not listed above: 
 R. D. Adamson,  B. Austin,  J. Baker,  G. J. O. Beran,  K. Brandhorst,  
 S. T. Brown,  E. F. C. Byrd,  A. K. Chakraborty,  C.-L. Cheng,  
 Siu Hung Chien,  D. M. Chipman,  D. L. Crittenden,  H. Dachsel,  
 R. J. Doerksen,  A. D. Dutoi,  L. Fusti-Molnar,  W. A. Goddard III,  
 A. Golubeva-Zadorozhnaya,  S. R. Gwaltney,  G. Hawkins,  A. Heyden,  
 S. Hirata,  G. Kedziora,  F. J. Keil,  C. Kelley,  Jihan Kim,  R. A. King,  
 R. Z. Khaliullin,  P. P. Korambath,  W. Kurlancheek,  A. M. Lee,  M. S. Lee,  
 S. V. Levchenko,  Ching Yeh Lin,  D. Liotard,  R. C. Lochan,  I. Lotan,  
 P. E. Maslen,  N. Nair,  D. P. O'Neill,  D. Neuhauser,  E. Neuscamman,  
 C. M. Oana,  R. Olson,  B. Peters,  R. Peverati,  P. A. Pieniazek,  
 Y. M. Rhee,  J. Ritchie,  M. A. Rohrdanz,  E. Rosta,  N. J. Russ,  
 H. F. Schaefer III,  N. E. Schultz,  N. Shenvi,  A. C. Simmonett,  A. Sodt,  
 D. Stuck,  K. S. Thanthiriwatte,  V. Vanovschi,  Tao Wang,  A. Warshel,  
 C. F. Williams,  Q. Wu,  X. Xu,  W. Zhang

 Please cite Q-Chem as follows:
 Y. Shao et al., Mol. Phys. 113, 184-215 (2015)
 DOI: 10.1080/00268976.2014.952696

 Q-Chem 5.3.2 for Intel X86 EM64T Linux

 Parts of Q-Chem use Armadillo 9.800.1 (Horizon Scraper).
 http://arma.sourceforge.net/

 Q-Chem begins on Thu Sep 15 16:29:03 2022  

Host: 
0

     Scratch files written to /scratch/user/peterli3819/peterli3819/12613584_1663277324000000969493134/qchem37481//
 Dec820 |scratch|qcdevops|jenkins|workspace|build_RNUM 7711   
Processing $rem in /sw/restricted/qchem/sw/5.3.2/config/preferences:
Processing $rem in /home/peterli3819/.qchemrc:

 Q-Chem warning in module libgen/rem_setup.C, line 2945:

 Neither GIA nor STOLL is specified by user. Use STOLL as the default


Checking the input file for inconsistencies... 	...done.

--------------------------------------------------------------
User input:
--------------------------------------------------------------
$molecule
0 1
--
0 1
N        1.176710   -1.219013   -1.509550
C        2.494010   -1.117828   -0.868297
C        2.709214    0.243628   -0.179065
C        1.668472    0.500388    0.928277
N        1.640649   -0.559667    1.939343
C        4.121465    0.253476    0.441315
O        4.333376   -0.789645    1.344621
C        2.603065    1.377198   -1.216852
O        1.351269    1.428186   -1.856903
H        0.444377   -1.336844   -0.797265
H        1.142595   -2.034776   -2.119882
H        3.264553   -1.222629   -1.653142
H        2.680365   -1.927355   -0.138977
H        0.678587    0.673436    0.471372
H        1.943297    1.444855    1.430443
H        1.042523   -1.327884    1.623478
H        1.227254   -0.212658    2.803951
H        4.281181    1.247937    0.917868
H        4.879679    0.160589   -0.359275
H        3.498975   -0.882798    1.859063
H        3.415488    1.250929   -1.964292
H        2.766200    2.353473   -0.725049
H        1.112378    0.481063   -2.040750
--
0 1
N       -3.022031   -2.192385   -0.998378
C       -3.707463   -1.090008   -0.310581
C       -2.734555    0.004902    0.158256
C       -2.034067    0.638223   -1.069708
N       -1.362159    1.907360   -0.773264
C       -3.550964    1.085892    0.902373
O       -2.750820    2.009777    1.570872
C       -1.719134   -0.593205    1.147895
O       -0.915071   -1.611604    0.591966
H       -2.740515   -1.919398   -1.940868
H       -3.635698   -3.000750   -1.093155
H       -4.202321   -1.519872    0.577810
H       -4.506621   -0.633815   -0.932348
H       -2.802737    0.790297   -1.852701
H       -1.301614   -0.077546   -1.481947
H       -1.769236    2.670095   -1.310740
H       -0.365010    1.870571   -1.022344
H       -4.202108    0.603982    1.655498
H       -4.229099    1.577474    0.165742
H       -2.054611    2.260250    0.918805
H       -2.273754   -0.979216    2.028509
H       -1.053618    0.199533    1.517788
H       -1.522978   -2.172714    0.049224
$end

$rem
JOBTYPE           eda
EDA2              2
METHOD            wB97X-D
BASIS             def2-SV(P)
SCF_CONVERGENCE   8
THRESH            14
SYMMETRY          false
DISP_FREE_X       wB97X-D
DISP_FREE_C       none
EDA_BSSE          true
$end
--------------------------------------------------------------
 ----------------------------------------------------------------
             Standard Nuclear Orientation (Angstroms)
    I     Atom           X                Y                Z
 ----------------------------------------------------------------
    1      N       1.1767099777     1.2190116680     1.5095510709
    2      C       2.4940099966     1.1178271358     0.8682980359
    3      C       2.7092139454    -0.2436282928     0.1790648913
    4      C       1.6684719734    -0.5003872957    -0.9282773662
    5      N       1.6406490729     0.5596685621    -1.9393424696
    6      C       4.1214649687    -0.2534758481    -0.4413150626
    7      O       4.3333760631     0.7896459048    -1.3446201711
    8      C       2.6030648407    -1.3771991656     1.2168509273
    9      O       1.3512688131    -1.4281876361     1.8569018359
   10      H       0.4443770118     1.3368433130     0.7972661424
   11      H       1.1425950007     2.0347741531     2.1198837603
   12      H       3.2645529723     1.2226274272     1.6531431544
   13      H       2.6803650709     1.9273547428     0.1389787286
   14      H       0.6785869459    -0.6734356261    -0.4713725509
   15      H       1.9432969388    -1.4448538861    -1.4304441554
   16      H       1.0425231046     1.3278853288    -1.6234768421
   17      H       1.2272540864     0.2126603179    -2.8039507794
   18      H       4.2811809303    -1.2479364537    -0.9178688986
   19      H       4.8796789432    -0.1605895693     0.3592750452
   20      H       3.4989750882     0.8827993880    -1.8590621244
   21      H       3.4154878191    -1.2509308449     1.9642910655
   22      H       2.7661998039    -2.3534737584     0.7250471068
   23      H       1.1123778601    -0.4810647781     2.0407496287
   24      N      -3.0220309471     2.1923843406     0.9983797334
   25      C      -3.7074629835     1.0900079622     0.3105817735
   26      C      -2.7345550280    -0.0049016963    -0.1582561163
   27      C      -2.0340671114    -0.6382237762     1.0697073744
   28      N      -1.3621591725    -1.9073605635     0.7732623256
   29      C      -3.5509640610    -1.0858910196    -0.9023740631
   30      O      -2.7508200880    -2.0097754992    -1.5708738147
   31      C      -1.7191339557     0.5932060837    -1.1478945706
   32      O      -0.9150709190     1.6116045670    -0.5919646773
   33      H      -2.7405149990     1.9193965264     1.9408695130
   34      H      -3.6356979046     3.0007492954     1.0931573943
   35      H      -4.2023209247     1.5198727427    -0.5778088816
   36      H      -4.5066210335     0.6338144813     0.9323483564
   37      H      -2.8027371503    -0.7902983954     1.8527002160
   38      H      -1.3016140864     0.0775448329     1.4819470088
   39      H      -1.7692362367    -2.6700959954     1.3107376640
   40      H      -0.3650101800    -1.8705718314     1.0223423951
   41      H      -4.2021080045    -0.6039803447    -1.6554986801
   42      H      -4.2290991175    -1.5774736047    -0.1657435055
   43      H      -2.0546111274    -2.2602490911    -0.9188069999
   44      H      -2.2737538997     0.9792178611    -2.0285082651
   45      H      -1.0536179867    -0.1995316410    -1.5177882163
   46      H      -1.5229779078     2.1727141422    -0.0492222255
 ----------------------------------------------------------------
 Molecular Point Group                 C1    NOp =  1
 Largest Abelian Subgroup              C1    NOp =  1
 Nuclear Repulsion Energy =        1629.64163529 hartrees
 There are       74 alpha and       74 beta electrons
 Requested basis set is def2-SV(P)
 There are 164 shells and 308 basis functions

 Total QAlloc Memory Limit  56000 MB
 Mega-Array Size       188 MB
 MEM_STATIC part       192 MB
 A cutoff of  1.0D-14 yielded  11661 shell pairs
 There are     39531 function pairs (     43793 Cartesian)
 Smallest overlap matrix eigenvalue = 1.26E-03

 Scale SEOQF with 1.000000e-01/1.000000e-01/1.000000e-01

 Standard Electronic Orientation quadrupole field applied
 Nucleus-field energy     =     0.0000000321 hartrees

 -----------------------------------------------------------------------
  General SCF calculation program by
  Eric Jon Sundstrom, Paul Horn, Yuezhi Mao, Dmitri Zuev, Alec White,
  David Stuck, Shaama M.S., Shane Yost, Joonho Lee, David Small,
  Daniel Levine, Susi Lehtola, Hugh Burton, Evgeny Epifanovsky,
  Bang C. Huynh
 -----------------------------------------------------------------------
================================================================
                 ALMO-EDA with the EDA2 driver                  
================================================================
 The second-generation ALMO-EDA (for DFT):                      
 P. R. Horn, Y. Mao and M. Head-Gordon, PCCP, 18, 23067 (2016)  
 Decomposition of the frozen energy:                            
 P. R. Horn, Y. Mao and M. Head-Gordon, JCP, 144, 114107 (2016) 
Using eda2 option set 2
Option set summary: Frozen orbital wavefunction, initial wavefunction decomposition, and traditional AO-based POL.
--------------------------------
Printing EDA Options
--------------------------------
eda_child_super_basis      0
fragmo_guess_mode          0
child_mp                   0
child_mp_orders            0
cls_elec                   1
cls_disp                   0
scfmi_mode                 1
scfmi_occs                 0
scfmi_virts                0
frz_relax                  0
frz_relax_method           0
dc_pen_start               0
dc_pen_conv                0
dc_pen_increment           0
dc_pen_steps               0
dc_pen_thresh_factor       0
dc_pen_pre_newton_thresh   0
frz_ortho_decomp           1
frz_ortho_decomp_conv      6
plot_mo_ortho_frz          0
frgm_method                2
scfmi_freeze_ss            0
separate_rehyb             0
plot_diff_den              0
eda_nocv                   0
eda_vct_relax              1
disp_free_x                -110
disp_free_c                0
eda_bsse                   1
eda_pct_a                  0
eda_covp                   0
--------------------------------
Attempting to make child job directory: /scratch/user/peterli3819/peterli3819/12613584_1663277324000000969493134/qchem37481//Frg1/
Attempting to make child job directory: /scratch/user/peterli3819/peterli3819/12613584_1663277324000000969493134/qchem37481//Frg2/
Creating input file /scratch/user/peterli3819/peterli3819/12613584_1663277324000000969493134/qchem37481/Frg1.input
using default PutDataFrgm: nothing
calling putenv with: QCSCRATCH=/scratch/user/peterli3819/peterli3819/12613584_1663277324000000969493134/qchem37481/ 
Spawning Job For Fragment 0
Done Job For Fragment 0
calling putenv with: QCSCRATCH=/scratch/user/peterli3819/peterli3819/12613584_1663277324000000969493134 
calling putenv with: QCTHREADS=8 
Creating input file /scratch/user/peterli3819/peterli3819/12613584_1663277324000000969493134/qchem37481/Frg2.input
using default PutDataFrgm: nothing
calling putenv with: QCSCRATCH=/scratch/user/peterli3819/peterli3819/12613584_1663277324000000969493134/qchem37481/ 
Spawning Job For Fragment 1
Done Job For Fragment 1
calling putenv with: QCSCRATCH=/scratch/user/peterli3819/peterli3819/12613584_1663277324000000969493134 
calling putenv with: QCTHREADS=8 
Doing General SCFMI
 Exchange:     0.2220 Hartree-Fock + 1.0000 wB97X-D + LR-HF
 Correlation:  1.0000 wB97X-D
 Using SG-2 standard quadrature grid
 Dispersion:   Grimme D
performing fock build before subrot guess so that all methods have access
Printing subrot_rss_gen Method Specification:
Occupied Subspace Method is 0
Virtual Subspace Method is 0
Energy of the unrelaxed supersystem initial determinant -916.751364228120
write pseudocanon occs and virts to disk
write pseudocanon orbital energies to disk
Tolerance of ortho_decomp_scf: 1.00e-06
GDM subspace size: 20
Beginning the Orthogonal Decomposition of the Initial Supersystem Wavefunction
    1    -916.6492243914      4.46e-02     ortho_decomp Preconditoned Steepest Descent
    2    -916.6593382805      8.47e-04     ortho_decomp BFGS Step
    3    -916.6593625608      8.07e-05     ortho_decomp BFGS Step
    4    -916.6593626382      3.06e-06     ortho_decomp BFGS Step
    5    -916.6593626383      8.50e-08     ortho_decomp 00000 Convergence criterion met
 Exchange:     0.2220 Hartree-Fock + 1.0000 wB97X-D + LR-HF
 Correlation:  1.0000 wB97X-D
 Using SG-2 standard quadrature grid
 Dispersion:   Grimme D
 Long-range K will be added via erf
 Coulomb attenuation parameter = 0.2 bohr**(-1)
 Exchange:     0.2220 Hartree-Fock + 1.0000 wB97X-D + LR-HF
 Correlation:  1.0000 wB97X-D
 Using SG-2 standard quadrature grid
 Dispersion:   Grimme D
 Long-range K will be added via erf
 Coulomb attenuation parameter = 0.2 bohr**(-1)
 Exchange:     0.2220 Hartree-Fock + 1.0000 wB97X-D + LR-HF
 Correlation:  1.0000 wB97X-D
 Using SG-2 standard quadrature grid
 Dispersion:   Grimme D
 Long-range K will be added via erf
 Coulomb attenuation parameter = 0.2 bohr**(-1)
Doing General SCFMI
 Exchange:     0.2220 Hartree-Fock + 1.0000 wB97X-D + LR-HF
 Correlation:  1.0000 wB97X-D
 Using SG-2 standard quadrature grid
 Dispersion:   Grimme D
performing fock build at end of subrot_r(subrot) constructor so that all methods have access
<S^2> of initial wavefunction before polarization iterations 0.0000000000
Beginning iterations for the determination of the polarized wavefunction
Energy prior to optimization (guess energy) = -916.751364228119
Begin Timing: Total SCF Calculation
begin iterations for algorithm: DIIS         
the SCF tolerance is set to 1.00e-08
    1    -916.7513642281      3.26e-04     00000 
    2    -916.7568011784      9.81e-05     00000 
    3    -916.7572571243      5.27e-05     00000 
    4    -916.7573451685      2.11e-05     00000 
    5    -916.7573609784      7.17e-06     00000 
    6    -916.7573628406      2.75e-06     00000 
    7    -916.7573630494      6.76e-07     00000 
    8    -916.7573630670      1.99e-07     00000 
    9    -916.7573630687      9.18e-08     00000 
   10    -916.7573630690      2.00e-08     00000 
   11    -916.7573630690      7.25e-09     00000 Convergence criterion met
write pseudocanon occs and virts to disk
write pseudocanon orbital energies to disk
Timing for Total SCF: 71.00s (wall), 549.37s (cpu)
<S^2> of polarized wavefunction after polarization iterations 0.0000000000
relaxing scfmi constraint to allow all rotations in the entire AO span
Doing General SCFMI
 Exchange:     0.2220 Hartree-Fock + 1.0000 wB97X-D + LR-HF
 Correlation:  1.0000 wB97X-D
 Using SG-2 standard quadrature grid
 Dispersion:   Grimme D
performing fock build at end of subrot_r(subrot) constructor so that all methods have access
<S^2> of polarized wavefunction before ct-allowed iterations 0.0000000000
Beginning iterations for the determination of the CT-Allowed wavefunction
Energy prior to optimization (guess energy) = -916.757363068984
Begin Timing: Total SCF Calculation
begin iterations for algorithm: DIIS         
the SCF tolerance is set to 1.00e-08
    1    -916.7573630690      4.78e-04     00000 
    2    -916.7770169358      1.04e-04     00000 
    3    -916.7780178768      6.87e-05     00000 
    4    -916.7781968959      2.03e-05     00000 
    5    -916.7782189028      4.53e-06     00000 
    6    -916.7782200985      1.20e-06     00000 
    7    -916.7782202006      4.45e-07     00000 
    8    -916.7782202123      1.14e-07     00000 
    9    -916.7782202130      4.51e-08     00000 
   10    -916.7782202132      1.05e-08     00000 
   11    -916.7782202132      4.14e-09     00000 Convergence criterion met
write pseudocanon occs and virts to disk
write pseudocanon orbital energies to disk
Timing for Total SCF: 71.00s (wall), 549.83s (cpu)
<S^2> of ct_allowed wavefunction after ct-allowed iterations 0.0000000000
Attempting to make child job directory: /scratch/user/peterli3819/peterli3819/12613584_1663277324000000969493134/qchem37481//FrgBSSE1/
Attempting to make child job directory: /scratch/user/peterli3819/peterli3819/12613584_1663277324000000969493134/qchem37481//FrgBSSE2/
Creating input file /scratch/user/peterli3819/peterli3819/12613584_1663277324000000969493134/qchem37481/FrgBSSE1.input
calling putenv with: QCSCRATCH=/scratch/user/peterli3819/peterli3819/12613584_1663277324000000969493134/qchem37481/ 
Spawning Job For Fragment 0
Done Job For Fragment 0
calling putenv with: QCSCRATCH=/scratch/user/peterli3819/peterli3819/12613584_1663277324000000969493134 
calling putenv with: QCTHREADS=8 
Creating input file /scratch/user/peterli3819/peterli3819/12613584_1663277324000000969493134/qchem37481/FrgBSSE2.input
calling putenv with: QCSCRATCH=/scratch/user/peterli3819/peterli3819/12613584_1663277324000000969493134/qchem37481/ 
Spawning Job For Fragment 1
Done Job For Fragment 1
calling putenv with: QCSCRATCH=/scratch/user/peterli3819/peterli3819/12613584_1663277324000000969493134 
calling putenv with: QCTHREADS=8 
====================================================================
   Evaluating the BSSE with fragment SCF in the supersystem basis
   Fragment contributions (kJ/mol) 
   Frgm 1: 13.4835
   Frgm 2: 14.4218
   BSSE (kJ/mol) = 27.9053
====================================================================

================================
        Results of EDA2         
================================
Basic EDA Quantities
--------------------
Fragment Energies (Ha):
1 -458.3702836124
2 -458.3677479098
--------------------
  E_prp (kJ/mol) = 0.0000
  E_frz (kJ/mol) = -35.0054
  E_pol (kJ/mol) = -15.7501
  E_vct (kJ/mol) = -26.8558 (CP-corrected)
  E_int (kJ/mol) = -77.6114 (CP-corrected)
--------------------


Decomposition of frozen interaction energy
--------------------
  --------------------
  Orthogonal Frozen Decomposition:
  --------------------
     E_elec   (ELEC)   (kJ/mol) = -157.1669
     E_pauli  (PAULI)  (kJ/mol) = 152.0841
     E_disp   (DISP)   (kJ/mol) = -29.9226
  --------------------
  Classical Frozen Decomposition:
  --------------------
     E_cls_elec  (CLS ELEC)  (kJ/mol) = -88.5290
     E_mod_pauli (MOD PAULI) (kJ/mol) = 83.4462 (FRZ - CLS ELEC - DISP)
     E_disp      (DISP)      (kJ/mol) = -29.9226
  --------------------
--------------------

Simplified EDA Summary (kJ/mol)
--------------------
 PREPARATION      0.0000
 FROZEN           -35.0054 (ELEC + PAULI + DISP)
[ELEC + PAULI = -5.0828, DISP = -29.9226]
 POLARIZATION    -15.7501
 CHARGE TRANSFER -26.8558     (counterpoise-corrected)
 TOTAL           -77.6114     (PRP + FRZ + POL + CT)
--------------------
 
 --------------------------------------------------------------
 
                    Orbital Energies (a.u.)
 --------------------------------------------------------------
 
 Alpha MOs
 -- Occupied --
-19.2504 -19.2286 -19.2179 -19.2073 -14.4626 -14.4302 -14.4257 -14.4250
-10.3410 -10.3349 -10.3323 -10.3276 -10.3274 -10.3188 -10.3138 -10.3127
-10.3097 -10.2964  -1.1144  -1.0963  -1.0920  -1.0798  -1.0114  -0.9870
 -0.9787  -0.9708  -0.8895  -0.8753  -0.7671  -0.7624  -0.7526  -0.7460
 -0.7448  -0.7305  -0.6580  -0.6408  -0.6231  -0.6203  -0.6104  -0.6017
 -0.5903  -0.5718  -0.5682  -0.5626  -0.5584  -0.5539  -0.5496  -0.5414
 -0.5255  -0.5161  -0.5083  -0.5070  -0.4932  -0.4879  -0.4802  -0.4742
 -0.4717  -0.4668  -0.4531  -0.4471  -0.4405  -0.4288  -0.4223  -0.4095
 -0.4055  -0.3966  -0.3625  -0.3504  -0.3449  -0.3328  -0.3293  -0.3239
 -0.3171  -0.3141
 -- Virtual --
  0.1039   0.1260   0.1316   0.1408   0.1531   0.1549   0.1643   0.1739
  0.1840   0.1865   0.1942   0.2029   0.2097   0.2141   0.2160   0.2280
  0.2339   0.2389   0.2408   0.2424   0.2496   0.2585   0.2595   0.2675
  0.2741   0.2745   0.2844   0.2859   0.2998   0.3051   0.3142   0.3153
  0.3220   0.3288   0.3326   0.3344   0.3414   0.3561   0.3619   0.3688
  0.3716   0.3793   0.3987   0.4209   0.4942   0.5126   0.5274   0.5383
  0.5477   0.5616   0.5697   0.5847   0.5869   0.5969   0.6013   0.6114
  0.6286   0.6431   0.6473   0.6559   0.6704   0.6718   0.6795   0.6841
  0.6949   0.6978   0.7001   0.7103   0.7212   0.7220   0.7302   0.7363
  0.7405   0.7465   0.7520   0.7596   0.7622   0.7689   0.7772   0.7800
  0.7920   0.7994   0.8011   0.8086   0.8099   0.8135   0.8154   0.8171
  0.8205   0.8313   0.8323   0.8397   0.8418   0.8484   0.8629   0.8724
  0.8753   0.8818   0.8927   0.9207   0.9277   0.9447   0.9585   0.9682
  0.9891   1.0023   1.0245   1.0345   1.0570   1.0596   1.0770   1.0993
  1.1173   1.1429   1.1612   1.1639   1.1814   1.1888   1.2094   1.2271
  1.2314   1.2462   1.2485   1.2555   1.2677   1.2770   1.2961   1.3052
  1.3124   1.3574   1.3649   1.3812   1.3927   1.4115   1.4206   1.4290
  1.4489   1.4816   1.4868   1.5095   1.5192   1.5422   1.5731   1.6019
  1.6346   1.6632   1.6838   1.7543   1.7688   1.7811   1.8018   1.8143
  1.8209   1.8592   1.8726   1.8761   1.9153   1.9185   1.9295   1.9423
  1.9855   2.0149   2.0413   2.0463   2.0485   2.0579   2.0643   2.0679
  2.0956   2.1227   2.1361   2.1388   2.1439   2.1556   2.1827   2.1893
  2.2077   2.2199   2.2309   2.2419   2.2516   2.2618   2.2724   2.2793
  2.3633   2.3749   2.3820   2.4351   2.4400   2.4534   2.4561   2.4654
  2.5126   2.5295   2.5349   2.5665   2.5883   2.6003   2.6311   2.6493
  2.7007   2.7071   2.7265   2.7455   2.7519   2.7668   2.7785   2.7798
  2.7984   2.8176   2.8219   2.8312   2.8447   2.8926   2.9552   2.9732
  2.9915   3.0042   3.0208   3.0453   3.0528   3.0774   3.0872   3.1149
  3.1177   3.1192   3.1439   3.1530   3.1629   3.1704   3.4967   3.5119
  3.5272   3.5312
 --------------------------------------------------------------
 
          Ground-State Mulliken Net Atomic Charges

     Atom                 Charge (a.u.)
  ----------------------------------------
      1 N                    -0.600370
      2 C                    -0.050557
      3 C                    -0.369891
      4 C                    -0.088944
      5 N                    -0.554279
      6 C                     0.121266
      7 O                    -0.512313
      8 C                     0.108970
      9 O                    -0.524647
     10 H                     0.279792
     11 H                     0.232794
     12 H                     0.098666
     13 H                     0.115961
     14 H                     0.106373
     15 H                     0.101602
     16 H                     0.264724
     17 H                     0.241589
     18 H                     0.074291
     19 H                     0.085523
     20 H                     0.325927
     21 H                     0.085342
     22 H                     0.094177
     23 H                     0.342486
     24 N                    -0.550229
     25 C                    -0.046677
     26 C                    -0.362139
     27 C                    -0.067946
     28 N                    -0.570511
     29 C                     0.104332
     30 O                    -0.499505
     31 C                     0.090191
     32 O                    -0.523834
     33 H                     0.246753
     34 H                     0.246298
     35 H                     0.109991
     36 H                     0.104460
     37 H                     0.093692
     38 H                     0.099587
     39 H                     0.237810
     40 H                     0.280766
     41 H                     0.089605
     42 H                     0.073781
     43 H                     0.322578
     44 H                     0.087556
     45 H                     0.117400
     46 H                     0.337559
  ----------------------------------------
  Sum of atomic charges =     0.000000

 -----------------------------------------------------------------
                    Cartesian Multipole Moments
 -----------------------------------------------------------------
    Charge (ESU x 10^10)
                -0.0000
    Dipole Moment (Debye)
         X      -5.2991      Y       2.9164      Z       3.7746
       Tot       7.1298
    Quadrupole Moments (Debye-Ang)
        XX    -119.9710     XY     -15.9345     YY    -111.1171
        XZ      -4.2073     YZ       4.1732     ZZ    -113.4693
    Octopole Moments (Debye-Ang^2)
       XXX    -135.5613    XXY      14.1368    XYY     -15.1568
       YYY      24.6583    XXZ      72.2501    XYZ      25.9507
       YYZ      27.4054    XZZ      -8.7545    YZZ      25.7934
       ZZZ      -1.4084
    Hexadecapole Moments (Debye-Ang^3)
      XXXX   -5285.8672   XXXY    -294.8081   XXYY    -995.3934
      XYYY     -64.6043   YYYY   -1124.1279   XXXZ     125.2822
      XXYZ      28.5826   XYYZ     -77.4685   YYYZ       8.6534
      XXZZ   -1042.6056   XYZZ     -34.0412   YYZZ    -376.7403
      XZZZ     -56.9589   YZZZ      20.8405   ZZZZ   -1030.3319
 -----------------------------------------------------------------
Archival summary:
1\1\tnxt-0468.cluster\SP\ProcedureUnspecified\BasisUnspecified\441028\peterli3\ThuSep1516:36:472022ThuSep1516:36:472022\0\\#,ProcedureUnspecified,BasisUnspecified,\\0,1\O\H,1,0.989426\C,1,1.41163,2,105.974\H,3,1.09917,1,107.936,2,-164.374,0\H,3,1.10999,1,110.252,2,79.5054,0\C,3,1.53889,1,113.764,2,-42.5059,0\C,6,1.53792,3,109.68,1,61.6621,0\H,7,1.10404,6,108.388,3,57.5616,0\H,7,1.11057,6,109.478,3,173.626,0\N,7,1.46905,6,112.446,3,-60.6152,0\H,10,1.01933,7,110.961,6,165.938,0\H,10,1.02081,7,111.117,6,-75.152,0\C,6,1.54557,3,108.105,1,179.303,0\H,13,1.10608,6,109.515,3,-68.8958,0\H,13,1.11541,6,108.146,3,175.447,0\O,13,1.39308,6,113.047,3,50.9097,0\H,16,0.986223,13,104.87,6,46.3356,0\C,6,1.54909,3,111.734,1,-60.0819,0\H,18,1.10397,6,109.327,3,49.25,0\H,18,1.10773,6,107.617,3,164.639,0\N,18,1.4663,6,113.629,3,-73.3114,0\H,21,1.01802,18,111.009,6,-117.909,0\H,21,1.02845,18,111.368,6,123.407,0\O,23,1.95903,21,163.879,18,27.1129,0\H,24,0.993937,23,94.7848,21,-32.1442,0\C,24,1.40686,23,126.434,21,-145.125,0\H,26,1.10526,24,107.563,23,-55.0939,0\H,26,1.11114,24,110.405,23,-171.471,0\C,26,1.54054,24,113.232,23,66.5068,0\C,29,1.54108,26,109.825,24,60.2092,0\H,30,1.10485,29,107.705,26,58.8311,0\H,30,1.10543,29,109.169,26,173.916,0\N,30,1.46858,29,112.421,26,-60.0144,0\H,33,1.01938,30,110.279,29,167.71,0\H,33,1.02837,30,110.135,29,-73.9196,0\C,29,1.54119,26,108.355,24,-62.3885,0\H,36,1.10389,29,109.528,26,51.1415,0\H,36,1.10441,29,107.525,26,-63.7263,0\N,36,1.46518,29,112.836,26,177.238,0\H,39,1.01924,36,110.289,29,158.724,0\H,39,1.02356,36,109.947,29,-84.3988,0\C,29,1.54254,26,109.227,24,178.798,0\H,42,1.10655,29,109.622,26,-56.6458,0\H,42,1.11426,29,107.995,26,59.1526,0\O,42,1.39605,29,113.23,26,-176.728,0\H,45,0.984659,42,106.267,29,-39.8953,0\\\@

 Total job time:  463.93s(wall), 2239.61s(cpu) 
 Thu Sep 15 16:36:47 2022

        *************************************************************
        *                                                           *
        *  Thank you very much for using Q-Chem.  Have a nice day.  *
        *                                                           *
        *************************************************************


remove work dirs /scratch/user/peterli3819/peterli3819/12613584_1663277324000000969493134/qchem37481.0 -- /scratch/user/peterli3819/peterli3819/12613584_1663277324000000969493134/qchem37481.-1
rm -rf /scratch/user/peterli3819/peterli3819/12613584_1663277324000000969493134/qchem37481
real 477.59
user 3366.71
sys 95.11
