 Entering Gaussian System, Link 0=g16
 Input=gaussian_test.inp
 Output=gaussian_test.log
 Initial command:
 /sw/restricted/lms/sw/Gaussian/g16_B01/g16/l1.exe "/scratch/user/peterchao1/peterchao1/6950570_1675450128000000351722234/Gau-50367.inp" -scrdir="/scratch/user/peterchao1/peterchao1/6950570_1675450128000000351722234/"
 Entering Link 1 = /sw/restricted/lms/sw/Gaussian/g16_B01/g16/l1.exe PID=     50369.
  
 Copyright (c) 1988-2017, Gaussian, Inc.  All Rights Reserved.
  
 This is part of the Gaussian(R) 16 program.  It is based on
 the Gaussian(R) 09 system (copyright 2009, Gaussian, Inc.),
 the Gaussian(R) 03 system (copyright 2003, Gaussian, Inc.),
 the Gaussian(R) 98 system (copyright 1998, Gaussian, Inc.),
 the Gaussian(R) 94 system (copyright 1995, Gaussian, Inc.),
 the Gaussian 92(TM) system (copyright 1992, Gaussian, Inc.),
 the Gaussian 90(TM) system (copyright 1990, Gaussian, Inc.),
 the Gaussian 88(TM) system (copyright 1988, Gaussian, Inc.),
 the Gaussian 86(TM) system (copyright 1986, Carnegie Mellon
 University), and the Gaussian 82(TM) system (copyright 1983,
 Carnegie Mellon University). Gaussian is a federally registered
 trademark of Gaussian, Inc.
  
 This software contains proprietary and confidential information,
 including trade secrets, belonging to Gaussian, Inc.
  
 This software is provided under written license and may be
 used, copied, transmitted, or stored only in accord with that
 written license.
  
 The following legend is applicable only to US Government
 contracts under FAR:
  
                    RESTRICTED RIGHTS LEGEND
  
 Use, reproduction and disclosure by the US Government is
 subject to restrictions as set forth in subparagraphs (a)
 and (c) of the Commercial Computer Software - Restricted
 Rights clause in FAR 52.227-19.
  
 Gaussian, Inc.
 340 Quinnipiac St., Bldg. 40, Wallingford CT 06492
  
  
 ---------------------------------------------------------------
 Warning -- This program may not be used in any manner that
 competes with the business of Gaussian, Inc. or will provide
 assistance to any competitor of Gaussian, Inc.  The licensee
 of this program is prohibited from giving any competitor of
 Gaussian, Inc. access to this program.  By using this program,
 the user acknowledges that Gaussian, Inc. is engaged in the
 business of creating and licensing software in the field of
 computational chemistry and represents and warrants to the
 licensee that it is not a competitor of Gaussian, Inc. and that
 it will not use this program in any manner prohibited above.
 ---------------------------------------------------------------
  

 Cite this work as:
 Gaussian 16, Revision B.01,
 M. J. Frisch, G. W. Trucks, H. B. Schlegel, G. E. Scuseria, 
 M. A. Robb, J. R. Cheeseman, G. Scalmani, V. Barone, 
 G. A. Petersson, H. Nakatsuji, X. Li, M. Caricato, A. V. Marenich, 
 J. Bloino, B. G. Janesko, R. Gomperts, B. Mennucci, H. P. Hratchian, 
 J. V. Ortiz, A. F. Izmaylov, J. L. Sonnenberg, D. Williams-Young, 
 F. Ding, F. Lipparini, F. Egidi, J. Goings, B. Peng, A. Petrone, 
 T. Henderson, D. Ranasinghe, V. G. Zakrzewski, J. Gao, N. Rega, 
 G. Zheng, W. Liang, M. Hada, M. Ehara, K. Toyota, R. Fukuda, 
 J. Hasegawa, M. Ishida, T. Nakajima, Y. Honda, O. Kitao, H. Nakai, 
 T. Vreven, K. Throssell, J. A. Montgomery, Jr., J. E. Peralta, 
 F. Ogliaro, M. J. Bearpark, J. J. Heyd, E. N. Brothers, K. N. Kudin, 
 V. N. Staroverov, T. A. Keith, R. Kobayashi, J. Normand, 
 K. Raghavachari, A. P. Rendell, J. C. Burant, S. S. Iyengar, 
 J. Tomasi, M. Cossi, J. M. Millam, M. Klene, C. Adamo, R. Cammi, 
 J. W. Ochterski, R. L. Martin, K. Morokuma, O. Farkas, 
 J. B. Foresman, and D. J. Fox, Gaussian, Inc., Wallingford CT, 2016.
 
 ******************************************
 Gaussian 16:  ES64L-G16RevB.01 20-Dec-2017
                 3-Feb-2023 
 ******************************************
 %chk=7.chk
 %nprocshared=4
 Will use up to    4 processors via shared memory.
 %mem=8000mb
 ----------------------------------------------------------------------
 #T wB97XD/def2svpp opt=(tight,calcfc) int(grid=ultrafine) scf=(verytig
 ht,qc) Volume=tight
 ----------------------------------------------------------------------
 -----
 Dimer
 -----
 Symbolic Z-matrix:
 Charge =  0 Multiplicity = 1
 C                    -1.97127   0.54115   0.53518 
 C                    -1.97482  -0.54088  -0.5344 
 H                    -1.977     0.09729   1.52846 
 H                    -2.84942   1.17613   0.44057 
 H                    -1.08622   1.16672   0.44451 
 H                    -2.86177  -1.16437  -0.44556 
 H                    -1.09858  -1.17792  -0.43807 
 H                    -1.9683   -0.09702  -1.52766 
 C                     1.97217   0.53975  -0.53632 
 C                     1.97392  -0.54002   0.53555 
 H                     1.09494   0.44673  -1.17251 
 H                     2.85814   0.45935  -1.16234 
 H                     1.9637    1.52879  -0.0831 
 H                     1.98068  -1.52903   0.08227 
 H                     1.09032  -0.45721   1.16427 
 H                     2.85355  -0.4494    1.16909 
 
 Add virtual bond connecting atoms H11        and H5         Dist= 5.31D+00.
 Add virtual bond connecting atoms H11        and H7         Dist= 5.34D+00.
 Add virtual bond connecting atoms H15        and H5         Dist= 5.31D+00.
 Add virtual bond connecting atoms H15        and H7         Dist= 5.30D+00.

 GradGradGradGradGradGradGradGradGradGradGradGradGradGradGradGradGradGrad
 Initialization pass.
                           ----------------------------
                           !    Initial Parameters    !
                           ! (Angstroms and Degrees)  !
 --------------------------                            --------------------------
 ! Name  Definition              Value          Derivative Info.                !
 --------------------------------------------------------------------------------
 ! R1    R(1,2)                  1.5215         calculate D2E/DX2 analytically  !
 ! R2    R(1,3)                  1.088          calculate D2E/DX2 analytically  !
 ! R3    R(1,4)                  1.0878         calculate D2E/DX2 analytically  !
 ! R4    R(1,5)                  1.0876         calculate D2E/DX2 analytically  !
 ! R5    R(2,6)                  1.0878         calculate D2E/DX2 analytically  !
 ! R6    R(2,7)                  1.0876         calculate D2E/DX2 analytically  !
 ! R7    R(2,8)                  1.0879         calculate D2E/DX2 analytically  !
 ! R8    R(5,11)                 2.809          calculate D2E/DX2 analytically  !
 ! R9    R(5,15)                 2.8094         calculate D2E/DX2 analytically  !
 ! R10   R(7,11)                 2.8267         calculate D2E/DX2 analytically  !
 ! R11   R(7,15)                 2.8068         calculate D2E/DX2 analytically  !
 ! R12   R(9,10)                 1.5215         calculate D2E/DX2 analytically  !
 ! R13   R(9,11)                 1.0876         calculate D2E/DX2 analytically  !
 ! R14   R(9,12)                 1.0878         calculate D2E/DX2 analytically  !
 ! R15   R(9,13)                 1.088          calculate D2E/DX2 analytically  !
 ! R16   R(10,14)                1.088          calculate D2E/DX2 analytically  !
 ! R17   R(10,15)                1.0876         calculate D2E/DX2 analytically  !
 ! R18   R(10,16)                1.0878         calculate D2E/DX2 analytically  !
 ! A1    A(2,1,3)              110.5894         calculate D2E/DX2 analytically  !
 ! A2    A(2,1,4)              110.6161         calculate D2E/DX2 analytically  !
 ! A3    A(2,1,5)              110.6316         calculate D2E/DX2 analytically  !
 ! A4    A(3,1,4)              108.258          calculate D2E/DX2 analytically  !
 ! A5    A(3,1,5)              108.3646         calculate D2E/DX2 analytically  !
 ! A6    A(4,1,5)              108.2965         calculate D2E/DX2 analytically  !
 ! A7    A(1,2,6)              110.6166         calculate D2E/DX2 analytically  !
 ! A8    A(1,2,7)              110.6348         calculate D2E/DX2 analytically  !
 ! A9    A(1,2,8)              110.5887         calculate D2E/DX2 analytically  !
 ! A10   A(6,2,7)              108.2978         calculate D2E/DX2 analytically  !
 ! A11   A(6,2,8)              108.2575         calculate D2E/DX2 analytically  !
 ! A12   A(7,2,8)              108.3606         calculate D2E/DX2 analytically  !
 ! A13   A(1,5,11)             122.1703         calculate D2E/DX2 analytically  !
 ! A14   A(1,5,15)             106.0587         calculate D2E/DX2 analytically  !
 ! A15   A(11,5,15)             52.9686         calculate D2E/DX2 analytically  !
 ! A16   A(2,7,11)             105.3983         calculate D2E/DX2 analytically  !
 ! A17   A(2,7,15)             121.9013         calculate D2E/DX2 analytically  !
 ! A18   A(11,7,15)             52.8135         calculate D2E/DX2 analytically  !
 ! A19   A(10,9,11)            110.6294         calculate D2E/DX2 analytically  !
 ! A20   A(10,9,12)            110.6124         calculate D2E/DX2 analytically  !
 ! A21   A(10,9,13)            110.5909         calculate D2E/DX2 analytically  !
 ! A22   A(11,9,12)            108.298          calculate D2E/DX2 analytically  !
 ! A23   A(11,9,13)            108.3693         calculate D2E/DX2 analytically  !
 ! A24   A(12,9,13)            108.2563         calculate D2E/DX2 analytically  !
 ! A25   A(9,10,14)            110.5876         calculate D2E/DX2 analytically  !
 ! A26   A(9,10,15)            110.6274         calculate D2E/DX2 analytically  !
 ! A27   A(9,10,16)            110.6167         calculate D2E/DX2 analytically  !
 ! A28   A(14,10,15)           108.3669         calculate D2E/DX2 analytically  !
 ! A29   A(14,10,16)           108.2617         calculate D2E/DX2 analytically  !
 ! A30   A(15,10,16)           108.2961         calculate D2E/DX2 analytically  !
 ! A31   A(5,11,7)              52.7859         calculate D2E/DX2 analytically  !
 ! A32   A(5,11,9)             105.5236         calculate D2E/DX2 analytically  !
 ! A33   A(7,11,9)             121.5378         calculate D2E/DX2 analytically  !
 ! A34   A(5,15,7)              52.9853         calculate D2E/DX2 analytically  !
 ! A35   A(5,15,10)            121.6902         calculate D2E/DX2 analytically  !
 ! A36   A(7,15,10)            106.4996         calculate D2E/DX2 analytically  !
 ! D1    D(3,1,2,6)             60.1178         calculate D2E/DX2 analytically  !
 ! D2    D(3,1,2,7)            -59.8888         calculate D2E/DX2 analytically  !
 ! D3    D(3,1,2,8)           -179.9559         calculate D2E/DX2 analytically  !
 ! D4    D(4,1,2,6)            -59.8091         calculate D2E/DX2 analytically  !
 ! D5    D(4,1,2,7)           -179.8158         calculate D2E/DX2 analytically  !
 ! D6    D(4,1,2,8)             60.1172         calculate D2E/DX2 analytically  !
 ! D7    D(5,1,2,6)           -179.8117         calculate D2E/DX2 analytically  !
 ! D8    D(5,1,2,7)             60.1816         calculate D2E/DX2 analytically  !
 ! D9    D(5,1,2,8)            -59.8855         calculate D2E/DX2 analytically  !
 ! D10   D(2,1,5,11)           -12.7116         calculate D2E/DX2 analytically  !
 ! D11   D(2,1,5,15)           -68.7031         calculate D2E/DX2 analytically  !
 ! D12   D(3,1,5,11)           108.6824         calculate D2E/DX2 analytically  !
 ! D13   D(3,1,5,15)            52.6909         calculate D2E/DX2 analytically  !
 ! D14   D(4,1,5,11)          -134.0948         calculate D2E/DX2 analytically  !
 ! D15   D(4,1,5,15)           169.9137         calculate D2E/DX2 analytically  !
 ! D16   D(1,2,7,11)           -69.1259         calculate D2E/DX2 analytically  !
 ! D17   D(1,2,7,15)           -13.6681         calculate D2E/DX2 analytically  !
 ! D18   D(6,2,7,11)           169.4874         calculate D2E/DX2 analytically  !
 ! D19   D(6,2,7,15)          -135.0548         calculate D2E/DX2 analytically  !
 ! D20   D(8,2,7,11)            52.2666         calculate D2E/DX2 analytically  !
 ! D21   D(8,2,7,15)           107.7244         calculate D2E/DX2 analytically  !
 ! D22   D(1,5,11,7)           -11.0106         calculate D2E/DX2 analytically  !
 ! D23   D(1,5,11,9)          -129.0916         calculate D2E/DX2 analytically  !
 ! D24   D(15,5,11,7)           75.2526         calculate D2E/DX2 analytically  !
 ! D25   D(15,5,11,9)          -42.8284         calculate D2E/DX2 analytically  !
 ! D26   D(1,5,15,7)            42.2282         calculate D2E/DX2 analytically  !
 ! D27   D(1,5,15,10)          129.5077         calculate D2E/DX2 analytically  !
 ! D28   D(11,5,15,7)          -76.2537         calculate D2E/DX2 analytically  !
 ! D29   D(11,5,15,10)          11.0258         calculate D2E/DX2 analytically  !
 ! D30   D(2,7,11,5)            42.7144         calculate D2E/DX2 analytically  !
 ! D31   D(2,7,11,9)           128.5991         calculate D2E/DX2 analytically  !
 ! D32   D(15,7,11,5)          -75.9109         calculate D2E/DX2 analytically  !
 ! D33   D(15,7,11,9)            9.9737         calculate D2E/DX2 analytically  !
 ! D34   D(2,7,15,5)           -10.1349         calculate D2E/DX2 analytically  !
 ! D35   D(2,7,15,10)         -127.7051         calculate D2E/DX2 analytically  !
 ! D36   D(11,7,15,5)           75.296          calculate D2E/DX2 analytically  !
 ! D37   D(11,7,15,10)         -42.2741         calculate D2E/DX2 analytically  !
 ! D38   D(11,9,10,14)          59.8276         calculate D2E/DX2 analytically  !
 ! D39   D(11,9,10,15)         -60.2418         calculate D2E/DX2 analytically  !
 ! D40   D(11,9,10,16)         179.7584         calculate D2E/DX2 analytically  !
 ! D41   D(12,9,10,14)         -60.1731         calculate D2E/DX2 analytically  !
 ! D42   D(12,9,10,15)         179.7575         calculate D2E/DX2 analytically  !
 ! D43   D(12,9,10,16)          59.7577         calculate D2E/DX2 analytically  !
 ! D44   D(13,9,10,14)         179.9035         calculate D2E/DX2 analytically  !
 ! D45   D(13,9,10,15)          59.8341         calculate D2E/DX2 analytically  !
 ! D46   D(13,9,10,16)         -60.1657         calculate D2E/DX2 analytically  !
 ! D47   D(10,9,11,5)           69.4151         calculate D2E/DX2 analytically  !
 ! D48   D(10,9,11,7)           13.8872         calculate D2E/DX2 analytically  !
 ! D49   D(12,9,11,5)         -169.2066         calculate D2E/DX2 analytically  !
 ! D50   D(12,9,11,7)          135.2655         calculate D2E/DX2 analytically  !
 ! D51   D(13,9,11,5)          -51.9824         calculate D2E/DX2 analytically  !
 ! D52   D(13,9,11,7)         -107.5103         calculate D2E/DX2 analytically  !
 ! D53   D(9,10,15,5)           12.7584         calculate D2E/DX2 analytically  !
 ! D54   D(9,10,15,7)           69.046          calculate D2E/DX2 analytically  !
 ! D55   D(14,10,15,5)        -108.6323         calculate D2E/DX2 analytically  !
 ! D56   D(14,10,15,7)         -52.3447         calculate D2E/DX2 analytically  !
 ! D57   D(16,10,15,5)         134.1395         calculate D2E/DX2 analytically  !
 ! D58   D(16,10,15,7)        -169.5729         calculate D2E/DX2 analytically  !
 --------------------------------------------------------------------------------
 Number of steps in this run=    100 maximum allowed number of steps=    100.
 GradGradGradGradGradGradGradGradGradGradGradGradGradGradGradGradGradGrad

                    Distance matrix (angstroms):
                    1          2          3          4          5
     1  C    0.000000
     2  C    1.521455   0.000000
     3  H    1.087951   2.159322   0.000000
     4  H    1.087799   2.159542   1.763093   0.000000
     5  H    1.087593   2.159581   1.764112   1.763232   0.000000
     6  H    2.159548   1.087798   2.504268   2.502655   3.062478
     7  H    2.159634   1.087610   2.503008   3.062516   2.505284
     8  H    2.159308   1.087944   3.062306   2.504242   2.502917
     9  C    4.086414   4.092248   4.478283   4.960545   3.272438
    10  C    4.090651   4.091134   4.123328   5.120431   3.505095
    11  H    3.510945   3.287246   4.105381   4.323428   2.809022
    12  H    5.119708   4.975165   5.545275   5.971544   4.317443
    13  H    4.103855   4.472039   4.491705   4.854350   3.116322
    14  H    4.484264   4.123432   4.516593   5.547622   4.099284
    15  H    3.281127   3.505368   3.138245   4.325866   2.809365
    16  H    4.966070   5.120881   4.874653   5.974692   4.319560
                    6          7          8          9         10
     6  H    0.000000
     7  H    1.763260   0.000000
     8  H    1.763082   1.764076   0.000000
     9  C    5.126327   3.519880   4.112849   0.000000
    10  C    4.973564   3.285597   4.471490   1.521451   0.000000
    11  H    4.333549   2.826733   3.131331   1.087621   2.159573
    12  H    5.988956   4.342908   4.872116   1.087801   2.159494
    13  H    5.538015   4.102418   4.493397   1.087967   2.159349
    14  H    4.884763   3.142590   4.498552   2.159304   1.087960
    15  H    4.325585   2.806821   4.090408   2.159541   1.087612
    16  H    5.981906   4.328172   5.535963   2.159554   1.087809
                   11         12         13         14         15
    11  H    0.000000
    12  H    1.763273   0.000000
    13  H    1.764200   1.763090   0.000000
    14  H    2.502527   2.504528   3.062335   0.000000
    15  H    2.505533   3.062419   2.502585   1.764160   0.000000
    16  H    3.062490   2.502284   2.504601   1.763150   1.763252
                   16
    16  H    0.000000
 Framework group  C1[X(C4H12)]
 Deg. of freedom    42
                         Standard orientation:                         
 ---------------------------------------------------------------------
 Center     Atomic      Atomic             Coordinates (Angstroms)
 Number     Number       Type             X           Y           Z
 ---------------------------------------------------------------------
      1          6           0       -1.971259    0.541481    0.534874
      2          6           0       -1.974830   -0.541202   -0.534054
      3          1           0       -1.976988    0.098228    1.528419
      4          1           0       -2.849414    1.176403    0.439884
      5          1           0       -1.086212    1.166989    0.443818
      6          1           0       -2.861783   -1.164627   -0.444825
      7          1           0       -1.098591   -1.178186   -0.437347
      8          1           0       -1.968317   -0.097945   -1.527585
      9          6           0        1.972163    0.539416   -0.536668
     10          6           0        1.973924   -0.539701    0.535860
     11          1           0        1.094927    0.446011   -1.172792
     12          1           0        2.858126    0.458630   -1.162651
     13          1           0        1.963700    1.528728   -0.084050
     14          1           0        1.980671   -1.528990    0.083181
     15          1           0        1.090330   -0.456511    1.164542
     16          1           0        2.853558   -0.448696    1.169336
 ---------------------------------------------------------------------
 Rotational constants (GHZ):          10.1346512           1.9071795           1.9046439
    80 basis functions,   148 primitive gaussians,    84 cartesian basis functions
    18 alpha electrons       18 beta electrons
       nuclear repulsion energy       126.5267381113 Hartrees.
 NAtoms=   16 NActive=   16 NUniq=   16 SFac= 1.00D+00 NAtFMM=   60 NAOKFM=F Big=F
 Nuclear repulsion after empirical dispersion term =      126.5204620925 Hartrees.
   1 Symmetry operations used in ECPInt.
 ECPInt:  NShTT=    1176 NPrTT=    4744 LenC2=    1173 LenP2D=    3908.
 LDataN:  DoStor=T MaxTD1= 4 Len=   56
 ExpMin= 1.22D-01 ExpMax= 1.24D+03 ExpMxC= 1.86D+02 IAcc=3 IRadAn=         5 AccDes= 0.00D+00
 Harris functional with IExCor= 4639 and IRadAn=       5 diagonalized for initial guess.
 HarFok:  IExCor= 4639 AccDes= 0.00D+00 IRadAn=         5 IDoV= 1 UseB2=F ITyADJ=14
 ICtDFT=  3500011 ScaDFX=  1.000000  1.000000  1.000000  1.000000
 FoFCou: FMM=F IPFlag=           0 FMFlag=      100000 FMFlg1=           0
         NFxFlg=           0 DoJE=T BraDBF=F KetDBF=T FulRan=T
         wScrn=  0.000000 ICntrl=       500 IOpCl=  0 I1Cent=   200000004 NGrid=           0
         NMat0=    1 NMatS0=      1 NMatT0=    0 NMatD0=    1 NMtDS0=    0 NMtDT0=    0
 Petite list used in FoFCou.
     Accept linear search using points  2 and  3.
     Minimum is close to point  2 DX=  8.97D-04 DF= -3.18D-11 DXR=  8.96D-04 DFR=  8.03D-07 which will be used.
 SCF Done:  E(RwB97XD) =  -159.464312596     a.u. after    6 cycles
            Convg  =    0.2522D-08                    27 Fock formations.
              S**2 =  0.0000                  -V/T =  2.0107
 DoSCS=F DFT=T ScalE2(SS,OS)=  1.000000  1.000000
 NROrb=     80 NOA=    18 NOB=    18 NVA=    62 NVB=    62
   1 Symmetry operations used in ECPInt.
 ECPInt:  NShTT=    1176 NPrTT=    4744 LenC2=    1173 LenP2D=    3908.
 LDataN:  DoStor=T MaxTD1= 5 Len=  102
 Symmetrizing basis deriv contribution to polar:
 IMax=3 JMax=2 DiffMx= 0.00D+00
 Calling FoFCou, ICntrl=  3107 FMM=F I1Cent=   0 AccDes= 0.00D+00.
 End of G2Drv F.D. properties file   721 does not exist.
 End of G2Drv F.D. properties file   722 does not exist.
 End of G2Drv F.D. properties file   788 does not exist.
          IDoAtm=1111111111111111
 End of Minotr F.D. properties file   721 does not exist.
 End of Minotr F.D. properties file   722 does not exist.
 End of Minotr F.D. properties file   788 does not exist.

 **********************************************************************

            Population analysis using the SCF Density.

 **********************************************************************

 Orbital symmetries:
       Occupied  (A) (A) (A) (A) (A) (A) (A) (A) (A) (A) (A) (A)
                 (A) (A) (A) (A) (A) (A)
       Virtual   (A) (A) (A) (A) (A) (A) (A) (A) (A) (A) (A) (A)
                 (A) (A) (A) (A) (A) (A) (A) (A) (A) (A) (A) (A)
                 (A) (A) (A) (A) (A) (A) (A) (A) (A) (A) (A) (A)
                 (A) (A) (A) (A) (A) (A) (A) (A) (A) (A) (A) (A)
                 (A) (A) (A) (A) (A) (A) (A) (A) (A) (A) (A) (A)
                 (A) (A)
 The electronic state is 1-A.
 Alpha  occ. eigenvalues --  -10.27444 -10.27441 -10.27436 -10.27434  -0.84798
 Alpha  occ. eigenvalues --   -0.84470  -0.70262  -0.70258  -0.53306  -0.52476
 Alpha  occ. eigenvalues --   -0.52473  -0.51633  -0.44949  -0.44834  -0.42683
 Alpha  occ. eigenvalues --   -0.42597  -0.42579  -0.42512
 Alpha virt. eigenvalues --    0.12656   0.17099   0.18234   0.18245   0.21141
 Alpha virt. eigenvalues --    0.21908   0.21911   0.23796   0.24909   0.25392
 Alpha virt. eigenvalues --    0.25443   0.25694   0.31724   0.31732   0.48771
 Alpha virt. eigenvalues --    0.51280   0.51775   0.51879   0.51897   0.58069
 Alpha virt. eigenvalues --    0.62940   0.64271   0.64361   0.66810   0.73134
 Alpha virt. eigenvalues --    0.73140   0.77513   0.79207   0.80817   0.81164
 Alpha virt. eigenvalues --    0.81173   0.82326   0.82330   0.83268   0.83902
 Alpha virt. eigenvalues --    0.86912   0.87449   0.87521   0.91444   0.92274
 Alpha virt. eigenvalues --    1.11231   1.11259   1.58973   1.58980   1.59011
 Alpha virt. eigenvalues --    1.59082   1.98110   1.98422   2.03892   2.05145
 Alpha virt. eigenvalues --    2.05337   2.05364   2.25942   2.26853   2.26867
 Alpha virt. eigenvalues --    2.31462   2.35370   2.35470   2.35551   2.35561
 Alpha virt. eigenvalues --    2.64250   2.64257
          Condensed to atoms (all electrons):
 Mulliken charges:
               1
     1  C   -0.355606
     2  C   -0.355457
     3  H    0.116682
     4  H    0.116844
     5  H    0.122040
     6  H    0.116847
     7  H    0.121810
     8  H    0.116761
     9  C   -0.355553
    10  C   -0.355548
    11  H    0.121909
    12  H    0.116892
    13  H    0.116837
    14  H    0.116713
    15  H    0.121985
    16  H    0.116844
 Sum of Mulliken charges =   0.00000
 Mulliken charges with hydrogens summed into heavy atoms:
               1
     1  C   -0.000040
     2  C   -0.000039
     9  C    0.000085
    10  C   -0.000007
 APT charges:
               1
     1  C   -0.995078
     2  C   -0.995615
     3  H    0.333481
     4  H    0.581449
     5  H    0.079731
     6  H    0.583867
     7  H    0.082212
     8  H    0.329853
     9  C   -0.995238
    10  C   -0.995513
    11  H    0.082117
    12  H    0.583677
    13  H    0.329402
    14  H    0.333726
    15  H    0.080163
    16  H    0.581769
 Sum of APT charges =   0.00000
 APT charges with hydrogens summed into heavy atoms:
               1
     1  C   -0.000418
     2  C    0.000316
     9  C   -0.000042
    10  C    0.000144
 Electronic spatial extent (au):  <R**2>=            717.1662
 Charge=              0.0000 electrons
 Dipole moment (field-independent basis, Debye):
    X=              0.0008    Y=              0.0003    Z=             -0.0002  Tot=              0.0008
  Exact polarizability:   0.000   0.000   0.000   0.000   0.000   0.000
 Approx polarizability:  43.767   0.000  42.750  -0.002   0.004  42.758
 Evaluate density.
 Using the total density.
 Monte-Carlo method of calculating molar volume:
 based on  0.001 e/bohr**3 density envelope.
 Number of points per bohr**3 =  100 CutOff= 1.00D-04
 Using the SCF density.
 There are      1668 points.  Will hold      1668 in memory.
 LenV=  1048422406 MDV=  1048576000.
 Box volume = 4647.815 fraction occupied=0.172
 Integrated density= 2.2565894269639067D+01 error=-1.3434105730360933D+01
 Molar volume =  799.714 bohr**3/mol ( 71.366 cm**3/mol)
 Recommended a0 for SCRF calculation =  3.85 angstrom (  7.28 bohr)
   1 Symmetry operations used in ECPInt.
 ECPInt:  NShTT=    1176 NPrTT=    4744 LenC2=    1173 LenP2D=    3908.
 LDataN:  DoStor=T MaxTD1= 6 Len=  172
 Calling FoFJK, ICntrl=    100147 FMM=F ISym2X=0 I1Cent= 0 IOpClX= 0 NMat=1 NMatS=1 NMatT=0.
 FormGI is forming the generalized inverse of G from B-inverse, IUseBI=4.

 GradGradGradGradGradGradGradGradGradGradGradGradGradGradGradGradGradGrad
 Internal  Forces:  Max     0.010687886 RMS     0.003478230
 Step number   1 out of a maximum of  100
 All quantities printed in internal units (Hartrees-Bohrs-Radians)
 Mixed Optimization -- RFO/linear search
 Second derivative matrix not updated -- analytic derivatives used.
 ITU=  0
     Eigenvalues ---   -0.00107  -0.00058  -0.00057   0.00036   0.00054
     Eigenvalues ---    0.00054   0.00178   0.00179   0.01879   0.01926
     Eigenvalues ---    0.02705   0.02706   0.03162   0.03280   0.04004
     Eigenvalues ---    0.04005   0.05039   0.05073   0.06935   0.06938
     Eigenvalues ---    0.07264   0.07268   0.08383   0.08386   0.10118
     Eigenvalues ---    0.10521   0.12193   0.12197   0.26328   0.27063
     Eigenvalues ---    0.31566   0.31574   0.34010   0.34439   0.37019
     Eigenvalues ---    0.37024   0.37159   0.37161   0.37208   0.37211
     Eigenvalues ---    0.37321   0.37336
 Linear search not attempted -- first point.
 Maximum step size (   0.300) exceeded in Quadratic search.
    -- Step size scaled by   0.499
 Iteration  1 RMS(Cart)=  0.05800589 RMS(Int)=  0.00270330
 Iteration  2 RMS(Cart)=  0.00250243 RMS(Int)=  0.00160617
 Iteration  3 RMS(Cart)=  0.00000516 RMS(Int)=  0.00160616
 Iteration  4 RMS(Cart)=  0.00000002 RMS(Int)=  0.00160616
 Variable       Old X    -DE/DX   Delta X   Delta X   Delta X     New X
                                 (Linear)    (Quad)   (Total)
    R1        2.87513   0.00330   0.00000   0.00357   0.00589   2.88103
    R2        2.05593   0.01058   0.00000   0.01419   0.01419   2.07012
    R3        2.05564   0.01069   0.00000   0.01432   0.01432   2.06996
    R4        2.05525   0.00900   0.00000   0.01427   0.01561   2.07086
    R5        2.05564   0.01069   0.00000   0.01435   0.01435   2.06999
    R6        2.05528   0.00898   0.00000   0.01412   0.01574   2.07102
    R7        2.05592   0.01059   0.00000   0.01419   0.01419   2.07010
    R8        5.30828   0.00092   0.00000   0.06089   0.06017   5.36845
    R9        5.30893   0.00100   0.00000  -0.10330  -0.10593   5.20300
   R10        5.34175   0.00099   0.00000  -0.20233  -0.20530   5.13645
   R11        5.30412   0.00093   0.00000   0.10508   0.10596   5.41009
   R12        2.87513   0.00330   0.00000   0.00369   0.00676   2.88188
   R13        2.05531   0.00897   0.00000   0.01406   0.01543   2.07074
   R14        2.05565   0.01069   0.00000   0.01431   0.01431   2.06996
   R15        2.05596   0.01057   0.00000   0.01414   0.01414   2.07010
   R16        2.05595   0.01057   0.00000   0.01415   0.01415   2.07010
   R17        2.05529   0.00898   0.00000   0.01416   0.01589   2.07117
   R18        2.05566   0.01068   0.00000   0.01429   0.01429   2.06995
    A1        1.93015   0.00168   0.00000   0.00567   0.00550   1.93565
    A2        1.93062   0.00121   0.00000   0.00611   0.00622   1.93683
    A3        1.93089  -0.00083   0.00000   0.00736   0.00753   1.93842
    A4        1.88946  -0.00084   0.00000  -0.00582  -0.00585   1.88360
    A5        1.89132  -0.00081   0.00000  -0.00702  -0.00764   1.88368
    A6        1.89013  -0.00049   0.00000  -0.00711  -0.00667   1.88346
    A7        1.93062   0.00122   0.00000   0.00567   0.00566   1.93629
    A8        1.93094  -0.00084   0.00000   0.00595   0.00648   1.93742
    A9        1.93014   0.00168   0.00000   0.00672   0.00646   1.93660
   A10        1.89015  -0.00049   0.00000  -0.00695  -0.00662   1.88353
   A11        1.88945  -0.00084   0.00000  -0.00543  -0.00542   1.88403
   A12        1.89125  -0.00080   0.00000  -0.00671  -0.00745   1.88380
   A13        2.13227  -0.00077   0.00000  -0.07602  -0.07628   2.05599
   A14        1.85107  -0.00098   0.00000   0.04330   0.04604   1.89711
   A15        0.92448   0.00181   0.00000   0.01172   0.01271   0.93719
   A16        1.83955  -0.00096   0.00000  -0.00834  -0.00944   1.83011
   A17        2.12758  -0.00072   0.00000  -0.04309  -0.04384   2.08374
   A18        0.92177   0.00180   0.00000   0.01719   0.01697   0.93874
   A19        1.93085  -0.00083   0.00000   0.00349   0.00419   1.93503
   A20        1.93055   0.00122   0.00000   0.00654   0.00659   1.93714
   A21        1.93017   0.00168   0.00000   0.00671   0.00631   1.93648
   A22        1.89016  -0.00049   0.00000  -0.00655  -0.00632   1.88384
   A23        1.89140  -0.00082   0.00000  -0.00561  -0.00633   1.88507
   A24        1.88943  -0.00084   0.00000  -0.00527  -0.00523   1.88420
   A25        1.93012   0.00168   0.00000   0.00549   0.00560   1.93572
   A26        1.93081  -0.00082   0.00000   0.00493   0.00515   1.93596
   A27        1.93063   0.00121   0.00000   0.00733   0.00711   1.93774
   A28        1.89136  -0.00082   0.00000  -0.00625  -0.00683   1.88453
   A29        1.88952  -0.00084   0.00000  -0.00553  -0.00556   1.88397
   A30        1.89012  -0.00049   0.00000  -0.00669  -0.00631   1.88381
   A31        0.92129   0.00180   0.00000   0.02194   0.02225   0.94353
   A32        1.84173  -0.00096   0.00000  -0.06974  -0.06829   1.77344
   A33        2.12124  -0.00073   0.00000   0.04989   0.04957   2.17080
   A34        0.92477   0.00181   0.00000   0.00835   0.00857   0.93333
   A35        2.12389  -0.00078   0.00000   0.00773   0.00590   2.12979
   A36        1.85877  -0.00097   0.00000  -0.02995  -0.03086   1.82791
    D1        1.04925  -0.00005   0.00000   0.00074   0.00085   1.05010
    D2       -1.04526   0.00032   0.00000   0.00186   0.00117  -1.04408
    D3       -3.14082   0.00078   0.00000   0.00200   0.00200  -3.13882
    D4       -1.04387  -0.00088   0.00000   0.00035   0.00050  -1.04336
    D5       -3.13838  -0.00051   0.00000   0.00147   0.00083  -3.13755
    D6        1.04924  -0.00005   0.00000   0.00161   0.00166   1.05090
    D7       -3.13831  -0.00051   0.00000   0.00046  -0.00017  -3.13848
    D8        1.05037  -0.00014   0.00000   0.00158   0.00015   1.05052
    D9       -1.04520   0.00032   0.00000   0.00172   0.00099  -1.04421
   D10       -0.22186   0.00047   0.00000   0.04548   0.04238  -0.17948
   D11       -1.19910  -0.00118   0.00000   0.00130   0.00527  -1.19383
   D12        1.89687   0.00150   0.00000   0.05253   0.04889   1.94576
   D13        0.91963  -0.00015   0.00000   0.00834   0.01177   0.93140
   D14       -2.34040  -0.00020   0.00000   0.03796   0.03437  -2.30603
   D15        2.96555  -0.00185   0.00000  -0.00622  -0.00275   2.96281
   D16       -1.20648  -0.00118   0.00000  -0.06339  -0.06215  -1.26862
   D17       -0.23855   0.00047   0.00000  -0.04374  -0.04416  -0.28272
   D18        2.95811  -0.00185   0.00000  -0.06959  -0.06886   2.88925
   D19       -2.35715  -0.00020   0.00000  -0.04994  -0.05088  -2.40803
   D20        0.91222  -0.00015   0.00000  -0.05574  -0.05498   0.85725
   D21        1.88015   0.00151   0.00000  -0.03609  -0.03699   1.84315
   D22       -0.19217  -0.00159   0.00000  -0.04878  -0.04704  -0.23921
   D23       -2.25307  -0.00120   0.00000  -0.15930  -0.15498  -2.40805
   D24        1.31341  -0.00115   0.00000   0.08149   0.08054   1.39395
   D25       -0.74750  -0.00075   0.00000  -0.02903  -0.02739  -0.77489
   D26        0.73702   0.00074   0.00000  -0.02104  -0.02287   0.71415
   D27        2.26034   0.00117   0.00000  -0.06396  -0.06555   2.19478
   D28       -1.33088   0.00117   0.00000   0.10576   0.10346  -1.22742
   D29        0.19244   0.00160   0.00000   0.06284   0.06078   0.25321
   D30        0.74551   0.00076   0.00000   0.03770   0.03578   0.78129
   D31        2.24448   0.00118   0.00000  -0.08704  -0.08841   2.15607
   D32       -1.32490   0.00116   0.00000   0.08773   0.08532  -1.23957
   D33        0.17407   0.00159   0.00000  -0.03701  -0.03887   0.13521
   D34       -0.17689  -0.00160   0.00000   0.03865   0.04013  -0.13676
   D35       -2.22887  -0.00118   0.00000   0.00862   0.01193  -2.21694
   D36        1.31416  -0.00115   0.00000   0.07345   0.07218   1.38634
   D37       -0.73782  -0.00073   0.00000   0.04341   0.04398  -0.69384
   D38        1.04419  -0.00031   0.00000  -0.00894  -0.00821   1.03598
   D39       -1.05142   0.00016   0.00000  -0.00790  -0.00670  -1.05811
   D40        3.13738   0.00052   0.00000  -0.00751  -0.00684   3.13054
   D41       -1.05022   0.00005   0.00000  -0.00728  -0.00736  -1.05757
   D42        3.13736   0.00052   0.00000  -0.00624  -0.00584   3.13152
   D43        1.04297   0.00088   0.00000  -0.00586  -0.00598   1.03699
   D44        3.13991  -0.00078   0.00000  -0.00931  -0.00926   3.13064
   D45        1.04430  -0.00031   0.00000  -0.00828  -0.00775   1.03655
   D46       -1.05009   0.00005   0.00000  -0.00789  -0.00789  -1.05798
   D47        1.21152   0.00118   0.00000   0.01861   0.01467   1.22619
   D48        0.24238  -0.00047   0.00000   0.03562   0.03843   0.28081
   D49       -2.95321   0.00186   0.00000   0.02463   0.02131  -2.93191
   D50        2.36083   0.00021   0.00000   0.04164   0.04507   2.40589
   D51       -0.90726   0.00015   0.00000   0.01178   0.00839  -0.89888
   D52       -1.87641  -0.00150   0.00000   0.02880   0.03214  -1.84426
   D53        0.22268  -0.00047   0.00000  -0.06620  -0.06569   0.15698
   D54        1.20508   0.00117   0.00000  -0.07312  -0.07337   1.13171
   D55       -1.89599  -0.00150   0.00000  -0.07200  -0.07137  -1.96737
   D56       -0.91359   0.00014   0.00000  -0.07891  -0.07905  -0.99264
   D57        2.34118   0.00021   0.00000  -0.05842  -0.05781   2.28336
   D58       -2.95961   0.00185   0.00000  -0.06533  -0.06549  -3.02509
         Item               Value     Threshold  Converged?
 Maximum Force            0.010688     0.000015     NO 
 RMS     Force            0.003478     0.000010     NO 
 Maximum Displacement     0.203194     0.000060     NO 
 RMS     Displacement     0.058513     0.000040     NO 
 GradGradGradGradGradGradGradGradGradGradGradGradGradGradGradGradGradGrad

                    Distance matrix (angstroms):
                    1          2          3          4          5
     1  C    0.000000
     2  C    1.524573   0.000000
     3  H    1.095461   2.171681   0.000000
     4  H    1.095375   2.172462   1.771553   0.000000
     5  H    1.095854   2.173962   1.771988   1.771777   0.000000
     6  H    2.172083   1.095390   2.524722   2.523267   3.085530
     7  H    2.173313   1.095937   2.523817   3.085363   2.528694
     8  H    2.172353   1.095452   3.083997   2.526272   2.525475
     9  C    4.049723   4.010894   4.490812   4.914623   3.244119
    10  C    4.080864   4.097862   4.148388   5.104939   3.461607
    11  H    3.489305   3.180686   4.114156   4.303495   2.840863
    12  H    5.094117   4.903470   5.565955   5.935025   4.303732
    13  H    4.032955   4.351891   4.500988   4.757169   3.040470
    14  H    4.505086   4.176805   4.541420   5.574130   4.097556
    15  H    3.273524   3.532238   3.163251   4.312638   2.753307
    16  H    4.952485   5.136224   4.909196   5.946634   4.252964
                    6          7          8          9         10
     6  H    0.000000
     7  H    1.771904   0.000000
     8  H    1.771832   1.772128   0.000000
     9  C    5.056875   3.457211   3.986500   0.000000
    10  C    5.007944   3.315606   4.450533   1.525027   0.000000
    11  H    4.222338   2.718090   2.990312   1.095787   2.171883
    12  H    5.923206   4.288736   4.751908   1.095375   2.173085
    13  H    5.436969   4.024459   4.303428   1.095451   2.172669
    14  H    4.957332   3.205201   4.548060   2.172119   1.095450
    15  H    4.384581   2.862894   4.094211   2.172724   1.096018
    16  H    6.036449   4.376687   5.511253   2.173509   1.095369
                   11         12         13         14         15
    11  H    0.000000
    12  H    1.771966   0.000000
    13  H    1.772823   1.771928   0.000000
    14  H    2.519248   2.528597   3.084280   0.000000
    15  H    2.527713   3.085177   2.521028   1.772658   0.000000
    16  H    3.084794   2.522902   2.529903   1.771773   1.772133
                   16
    16  H    0.000000
 Framework group  C1[X(C4H12)]
 Deg. of freedom    42
                         Standard orientation:                         
 ---------------------------------------------------------------------
 Center     Atomic      Atomic             Coordinates (Angstroms)
 Number     Number       Type             X           Y           Z
 ---------------------------------------------------------------------
      1          6           0       -1.962779    0.571570   -0.503490
      2          6           0       -1.951188   -0.562807    0.515026
      3          1           0       -2.005774    1.545345   -0.003541
      4          1           0       -2.831342    0.494377   -1.166426
      5          1           0       -1.060950    0.551405   -1.125741
      6          1           0       -2.854871   -0.542668    1.133760
      7          1           0       -1.084582   -0.483785    1.181231
      8          1           0       -1.905365   -1.536954    0.016075
      9          6           0        1.923768   -0.566293   -0.520337
     10          6           0        1.990584    0.557400    0.508526
     11          1           0        1.042218   -1.195632   -0.354351
     12          1           0        2.810949   -1.205996   -0.460872
     13          1           0        1.865524   -0.163311   -1.537306
     14          1           0        2.037619    0.153739    1.525804
     15          1           0        1.107259    1.202739    0.441210
     16          1           0        2.877008    1.181519    0.351805
 ---------------------------------------------------------------------
 Rotational constants (GHZ):          10.0452761           1.9449132           1.9177853
    80 basis functions,   148 primitive gaussians,    84 cartesian basis functions
    18 alpha electrons       18 beta electrons
       nuclear repulsion energy       126.3644142214 Hartrees.
 NAtoms=   16 NActive=   16 NUniq=   16 SFac= 1.00D+00 NAtFMM=   60 NAOKFM=F Big=F
 Nuclear repulsion after empirical dispersion term =      126.3580440083 Hartrees.
   1 Symmetry operations used in ECPInt.
 ECPInt:  NShTT=    1176 NPrTT=    4744 LenC2=    1173 LenP2D=    3911.
 LDataN:  DoStor=T MaxTD1= 4 Len=   56
 Initial guess from the checkpoint file:  "7.chk"
 B after Tr=     0.000000   -0.000000    0.000000
         Rot=    0.709451    0.704746   -0.003260   -0.001357 Ang=  89.62 deg.
 ExpMin= 1.22D-01 ExpMax= 1.24D+03 ExpMxC= 1.86D+02 IAcc=3 IRadAn=         5 AccDes= 0.00D+00
 Harris functional with IExCor= 4639 and IRadAn=       5 diagonalized for initial guess.
 HarFok:  IExCor= 4639 AccDes= 0.00D+00 IRadAn=         5 IDoV= 1 UseB2=F ITyADJ=14
 ICtDFT=  3500011 ScaDFX=  1.000000  1.000000  1.000000  1.000000
 FoFCou: FMM=F IPFlag=           0 FMFlag=      100000 FMFlg1=           0
         NFxFlg=           0 DoJE=T BraDBF=F KetDBF=T FulRan=T
         wScrn=  0.000000 ICntrl=       500 IOpCl=  0 I1Cent=   200000004 NGrid=           0
         NMat0=    1 NMatS0=      1 NMatT0=    0 NMatD0=    1 NMtDS0=    0 NMtDT0=    0
 Petite list used in FoFCou.
     Accept linear search using points  1 and  2.
     Minimum is close to point  2 DX= -4.03D-02 DF= -2.87D-07 DXR=  3.47D-02 DFR=  1.63D-03 which will be used.
     Accept linear search using points  1 and  2.
     Accept linear search using points  1 and  2.
     Minimum is close to point  2 DX= -3.68D-04 DF= -6.14D-12 DXR=  3.68D-04 DFR=  1.35D-07 which will be used.
 SCF Done:  E(RwB97XD) =  -159.466039547     a.u. after    7 cycles
            Convg  =    0.1262D-08                    28 Fock formations.
              S**2 =  0.0000                  -V/T =  2.0116
   1 Symmetry operations used in ECPInt.
 ECPInt:  NShTT=    1176 NPrTT=    4744 LenC2=    1173 LenP2D=    3911.
 LDataN:  DoStor=T MaxTD1= 5 Len=  102
 Calling FoFJK, ICntrl=      2127 FMM=F ISym2X=0 I1Cent= 0 IOpClX= 0 NMat=1 NMatS=1 NMatT=0.

 GradGradGradGradGradGradGradGradGradGradGradGradGradGradGradGradGradGrad
 Using GEDIIS/GDIIS optimizer.
 FormGI is forming the generalized inverse of G from B-inverse, IUseBI=4.
 Internal  Forces:  Max     0.005507352 RMS     0.001736150
 Step number   2 out of a maximum of  100
 All quantities printed in internal units (Hartrees-Bohrs-Radians)
 Mixed Optimization -- RFO/linear search
 Trust test= 9.72D-01 RLast= 4.77D-01 DXMaxT set to 5.05D-01
 ITU=  1  0
 Use linear search instead of GDIIS.
     Eigenvalues ---   -0.00139  -0.00061  -0.00057   0.00036   0.00054
     Eigenvalues ---    0.00054   0.00177   0.00179   0.01874   0.01919
     Eigenvalues ---    0.02703   0.02704   0.03162   0.03286   0.04004
     Eigenvalues ---    0.04004   0.05040   0.05073   0.06932   0.06935
     Eigenvalues ---    0.07069   0.07263   0.08379   0.08383   0.10115
     Eigenvalues ---    0.10517   0.12184   0.12192   0.27019   0.27158
     Eigenvalues ---    0.31118   0.31563   0.31585   0.34435   0.35000
     Eigenvalues ---    0.37020   0.37061   0.37159   0.37161   0.37208
     Eigenvalues ---    0.37211   0.37322
 Quartic linear search produced a step of  0.87758.
 Iteration  1 RMS(Cart)=  0.02595796 RMS(Int)=  0.00170741
 Iteration  2 RMS(Cart)=  0.00056580 RMS(Int)=  0.00162248
 Iteration  3 RMS(Cart)=  0.00000125 RMS(Int)=  0.00162248
 Iteration  4 RMS(Cart)=  0.00000001 RMS(Int)=  0.00162248
 Variable       Old X    -DE/DX   Delta X   Delta X   Delta X     New X
                                 (Linear)    (Quad)   (Total)
    R1        2.88103   0.00107   0.00517  -0.00675   0.00117   2.88219
    R2        2.07012   0.00547   0.01245   0.00354   0.01599   2.08612
    R3        2.06996   0.00550   0.01256   0.00360   0.01616   2.08612
    R4        2.07086   0.00426   0.01370  -0.00116   0.01414   2.08501
    R5        2.06999   0.00551   0.01259   0.00357   0.01616   2.08615
    R6        2.07102   0.00419   0.01381  -0.00144   0.01414   2.08516
    R7        2.07010   0.00547   0.01245   0.00356   0.01601   2.08611
    R8        5.36845   0.00044   0.05280  -0.09841  -0.04725   5.32120
    R9        5.20300   0.00012  -0.09296   0.10929   0.01456   5.21756
   R10        5.13645   0.00013  -0.18017   0.23059   0.04797   5.18442
   R11        5.41009   0.00047   0.09299  -0.17654  -0.08345   5.32664
   R12        2.88188   0.00095   0.00593  -0.00799   0.00094   2.88282
   R13        2.07074   0.00424   0.01354  -0.00050   0.01443   2.08517
   R14        2.06996   0.00550   0.01256   0.00361   0.01617   2.08613
   R15        2.07010   0.00546   0.01241   0.00359   0.01601   2.08611
   R16        2.07010   0.00546   0.01242   0.00357   0.01599   2.08609
   R17        2.07117   0.00417   0.01394  -0.00139   0.01428   2.08545
   R18        2.06995   0.00550   0.01254   0.00364   0.01617   2.08612
    A1        1.93565   0.00086   0.00483   0.00317   0.00772   1.94337
    A2        1.93683   0.00058   0.00546   0.00172   0.00731   1.94414
    A3        1.93842  -0.00036   0.00661  -0.00284   0.00408   1.94249
    A4        1.88360  -0.00044  -0.00514  -0.00118  -0.00640   1.87721
    A5        1.88368  -0.00044  -0.00671   0.00090  -0.00636   1.87731
    A6        1.88346  -0.00026  -0.00586  -0.00187  -0.00750   1.87596
    A7        1.93629   0.00061   0.00497   0.00243   0.00747   1.94376
    A8        1.93742  -0.00032   0.00569  -0.00109   0.00508   1.94250
    A9        1.93660   0.00082   0.00567   0.00161   0.00699   1.94359
   A10        1.88353  -0.00029  -0.00581  -0.00213  -0.00776   1.87577
   A11        1.88403  -0.00044  -0.00476  -0.00159  -0.00641   1.87762
   A12        1.88380  -0.00043  -0.00654   0.00061  -0.00654   1.87726
   A13        2.05599  -0.00045  -0.06694   0.07375   0.00648   2.06247
   A14        1.89711  -0.00043   0.04040  -0.07461  -0.03193   1.86518
   A15        0.93719   0.00083   0.01115  -0.00024   0.01190   0.94909
   A16        1.83011  -0.00048  -0.00828  -0.01561  -0.02482   1.80529
   A17        2.08374  -0.00038  -0.03847   0.04239   0.00306   2.08680
   A18        0.93874   0.00083   0.01489  -0.00166   0.01289   0.95163
   A19        1.93503  -0.00033   0.00367   0.00273   0.00706   1.94209
   A20        1.93714   0.00060   0.00578   0.00140   0.00716   1.94430
   A21        1.93648   0.00083   0.00553   0.00146   0.00671   1.94319
   A22        1.88384  -0.00030  -0.00555  -0.00319  -0.00831   1.87552
   A23        1.88507  -0.00042  -0.00556  -0.00071  -0.00724   1.87783
   A24        1.88420  -0.00044  -0.00459  -0.00198  -0.00661   1.87759
   A25        1.93572   0.00084   0.00491   0.00256   0.00764   1.94336
   A26        1.93596  -0.00031   0.00452   0.00112   0.00589   1.94185
   A27        1.93774   0.00057   0.00624   0.00062   0.00660   1.94434
   A28        1.88453  -0.00042  -0.00600   0.00016  -0.00670   1.87783
   A29        1.88397  -0.00043  -0.00488  -0.00145  -0.00642   1.87755
   A30        1.88381  -0.00032  -0.00554  -0.00324  -0.00821   1.87560
   A31        0.94353   0.00084   0.01952  -0.01189   0.00817   0.95170
   A32        1.77344  -0.00054  -0.05993   0.07174   0.01385   1.78729
   A33        2.17080  -0.00040   0.04350  -0.08685  -0.04405   2.12675
   A34        0.93333   0.00083   0.00752   0.00674   0.01472   0.94805
   A35        2.12979  -0.00046   0.00518  -0.02190  -0.01855   2.11125
   A36        1.82791  -0.00046  -0.02708   0.01425  -0.01434   1.81357
    D1        1.05010  -0.00003   0.00074   0.00519   0.00605   1.05615
    D2       -1.04408   0.00015   0.00103   0.00697   0.00746  -1.03663
    D3       -3.13882   0.00037   0.00176   0.00586   0.00764  -3.13118
    D4       -1.04336  -0.00043   0.00044   0.00344   0.00406  -1.03930
    D5       -3.13755  -0.00025   0.00073   0.00522   0.00547  -3.13207
    D6        1.05090  -0.00004   0.00146   0.00411   0.00566   1.05656
    D7       -3.13848  -0.00024  -0.00015   0.00654   0.00591  -3.13257
    D8        1.05052  -0.00007   0.00014   0.00833   0.00732   1.05784
    D9       -1.04421   0.00015   0.00087   0.00722   0.00750  -1.03671
   D10       -0.17948   0.00017   0.03719  -0.02727   0.00709  -0.17239
   D11       -1.19383  -0.00057   0.00462  -0.00158   0.00691  -1.18692
   D12        1.94576   0.00072   0.04290  -0.02452   0.01499   1.96075
   D13        0.93140  -0.00001   0.01033   0.00117   0.01481   0.94622
   D14       -2.30603  -0.00015   0.03016  -0.02641   0.00044  -2.30559
   D15        2.96281  -0.00089  -0.00241  -0.00072   0.00026   2.96306
   D16       -1.26862  -0.00057  -0.05454   0.06273   0.00956  -1.25907
   D17       -0.28272   0.00017  -0.03876   0.05070   0.01149  -0.27122
   D18        2.88925  -0.00093  -0.06043   0.06178   0.00226   2.89151
   D19       -2.40803  -0.00019  -0.04465   0.04975   0.00420  -2.40383
   D20        0.85725  -0.00004  -0.04825   0.06445   0.01707   0.87432
   D21        1.84315   0.00070  -0.03246   0.05241   0.01900   1.86216
   D22       -0.23921  -0.00075  -0.04128   0.03322  -0.00638  -0.24559
   D23       -2.40805  -0.00044  -0.13600   0.19256   0.06020  -2.34785
   D24        1.39395  -0.00061   0.07068  -0.11809  -0.04755   1.34639
   D25       -0.77489  -0.00030  -0.02404   0.04125   0.01903  -0.75586
   D26        0.71415   0.00028  -0.02007   0.02093  -0.00078   0.71336
   D27        2.19478   0.00057  -0.05753   0.06344   0.00355   2.19834
   D28       -1.22742   0.00049   0.09079  -0.11974  -0.03026  -1.25768
   D29        0.25321   0.00078   0.05334  -0.07722  -0.02592   0.22729
   D30        0.78129   0.00030   0.03140  -0.03424  -0.00447   0.77682
   D31        2.15607   0.00054  -0.07759   0.13897   0.05897   2.21504
   D32       -1.23957   0.00049   0.07488  -0.09764  -0.02417  -1.26375
   D33        0.13521   0.00074  -0.03411   0.07557   0.03927   0.17447
   D34       -0.13676  -0.00074   0.03522  -0.04913  -0.01232  -0.14908
   D35       -2.21694  -0.00039   0.01047  -0.01102   0.00241  -2.21454
   D36        1.38634  -0.00061   0.06334  -0.10383  -0.04094   1.34540
   D37       -0.69384  -0.00026   0.03860  -0.06572  -0.02621  -0.72005
   D38        1.03598  -0.00017  -0.00721   0.00246  -0.00377   1.03221
   D39       -1.05811   0.00000  -0.00588  -0.00017  -0.00435  -1.06246
   D40        3.13054   0.00023  -0.00600   0.00275  -0.00233   3.12821
   D41       -1.05757   0.00002  -0.00645   0.00375  -0.00276  -1.06034
   D42        3.13152   0.00020  -0.00512   0.00111  -0.00334   3.12818
   D43        1.03699   0.00042  -0.00525   0.00403  -0.00133   1.03566
   D44        3.13064  -0.00037  -0.00813   0.00435  -0.00371   3.12694
   D45        1.03655  -0.00020  -0.00680   0.00171  -0.00429   1.03226
   D46       -1.05798   0.00003  -0.00692   0.00463  -0.00227  -1.06025
   D47        1.22619   0.00055   0.01288  -0.01969  -0.01113   1.21506
   D48        0.28081  -0.00021   0.03373  -0.07580  -0.03870   0.24211
   D49       -2.93191   0.00089   0.01870  -0.01835  -0.00336  -2.93527
   D50        2.40589   0.00013   0.03955  -0.07446  -0.03094   2.37496
   D51       -0.89888   0.00000   0.00736  -0.02273  -0.01907  -0.91794
   D52       -1.84426  -0.00076   0.02821  -0.07883  -0.04664  -1.89090
   D53        0.15698  -0.00020  -0.05765   0.08688   0.02971   0.18669
   D54        1.13171   0.00056  -0.06439   0.10542   0.04084   1.17254
   D55       -1.96737  -0.00078  -0.06264   0.08292   0.02100  -1.94637
   D56       -0.99264  -0.00001  -0.06937   0.10146   0.03212  -0.96051
   D57        2.28336   0.00010  -0.05073   0.08623   0.03614   2.31950
   D58       -3.02509   0.00087  -0.05747   0.10478   0.04726  -2.97784
         Item               Value     Threshold  Converged?
 Maximum Force            0.005507     0.000015     NO 
 RMS     Force            0.001736     0.000010     NO 
 Maximum Displacement     0.106737     0.000060     NO 
 RMS     Displacement     0.026060     0.000040     NO 
 GradGradGradGradGradGradGradGradGradGradGradGradGradGradGradGradGradGrad

                    Distance matrix (angstroms):
                    1          2          3          4          5
     1  C    0.000000
     2  C    1.525191   0.000000
     3  H    1.103925   2.184180   0.000000
     4  H    1.103928   2.184734   1.781149   0.000000
     5  H    1.103339   2.183104   1.780744   1.779864   0.000000
     6  H    2.184473   1.103944   2.549322   2.543927   3.106061
     7  H    2.183172   1.103420   2.540952   3.106314   2.547522
     8  H    2.184336   1.103922   3.106918   2.549975   2.541119
     9  C    4.043410   4.008812   4.480949   4.918755   3.237508
    10  C    4.061840   4.058140   4.127372   5.098696   3.460715
    11  H    3.475616   3.186056   4.111632   4.291491   2.815858
    12  H    5.092158   4.902514   5.564094   5.942473   4.301288
    13  H    4.050582   4.381234   4.501602   4.787091   3.053543
    14  H    4.470568   4.109699   4.515863   5.549261   4.087432
    15  H    3.257041   3.497433   3.137423   4.308829   2.761013
    16  H    4.949752   5.107233   4.893339   5.960752   4.273376
                    6          7          8          9         10
     6  H    0.000000
     7  H    1.779816   0.000000
     8  H    1.781427   1.780771   0.000000
     9  C    5.061652   3.455352   3.990241   0.000000
    10  C    4.969709   3.264775   4.417102   1.525524   0.000000
    11  H    4.238939   2.743478   2.987605   1.103424   2.183173
    12  H    5.928350   4.287557   4.750581   1.103933   2.185142
    13  H    5.473189   4.050154   4.349767   1.103921   2.184342
    14  H    4.886760   3.125036   4.478902   2.184452   1.103912
    15  H    4.350291   2.818737   4.073634   2.183113   1.103574
    16  H    6.003744   4.329312   5.495330   2.185167   1.103928
                   11         12         13         14         15
    11  H    0.000000
    12  H    1.779651   0.000000
    13  H    1.781144   1.781397   0.000000
    14  H    2.539301   2.551571   3.106927   0.000000
    15  H    2.548720   3.106437   2.539054   1.781257   0.000000
    16  H    3.106442   2.543554   2.551435   1.781361   1.779819
                   16
    16  H    0.000000
 Framework group  C1[X(C4H12)]
 Deg. of freedom    42
                         Standard orientation:                         
 ---------------------------------------------------------------------
 Center     Atomic      Atomic             Coordinates (Angstroms)
 Number     Number       Type             X           Y           Z
 ---------------------------------------------------------------------
      1          6           0       -1.959011    0.555393   -0.519290
      2          6           0       -1.937505   -0.552763    0.528439
      3          1           0       -1.995927    1.553098   -0.048257
      4          1           0       -2.838172    0.466842   -1.181024
      5          1           0       -1.059306    0.521411   -1.157046
      6          1           0       -2.841591   -0.525541    1.161352
      7          1           0       -1.063408   -0.457144    1.195034
      8          1           0       -1.889892   -1.550198    0.057799
      9          6           0        1.929139   -0.554266   -0.529692
     10          6           0        1.967483    0.551553    0.520507
     11          1           0        1.040687   -1.196222   -0.402844
     12          1           0        2.819292   -1.203800   -0.463364
     13          1           0        1.896220   -0.137084   -1.551219
     14          1           0        1.985341    0.134661    1.542517
     15          1           0        1.083426    1.207567    0.443291
     16          1           0        2.862690    1.186912    0.403977
 ---------------------------------------------------------------------
 Rotational constants (GHZ):           9.9680970           1.9526125           1.9373411
    80 basis functions,   148 primitive gaussians,    84 cartesian basis functions
    18 alpha electrons       18 beta electrons
       nuclear repulsion energy       126.1112104143 Hartrees.
 NAtoms=   16 NActive=   16 NUniq=   16 SFac= 1.00D+00 NAtFMM=   60 NAOKFM=F Big=F
 Nuclear repulsion after empirical dispersion term =      126.1048001299 Hartrees.
   1 Symmetry operations used in ECPInt.
 ECPInt:  NShTT=    1176 NPrTT=    4744 LenC2=    1173 LenP2D=    3912.
 LDataN:  DoStor=T MaxTD1= 4 Len=   56
 Initial guess from the checkpoint file:  "7.chk"
 B after Tr=     0.000000    0.000000   -0.000000
         Rot=    0.999996    0.002087    0.000976   -0.001365 Ang=   0.31 deg.
 ExpMin= 1.22D-01 ExpMax= 1.24D+03 ExpMxC= 1.86D+02 IAcc=3 IRadAn=         5 AccDes= 0.00D+00
 Harris functional with IExCor= 4639 and IRadAn=       5 diagonalized for initial guess.
 HarFok:  IExCor= 4639 AccDes= 0.00D+00 IRadAn=         5 IDoV= 1 UseB2=F ITyADJ=14
 ICtDFT=  3500011 ScaDFX=  1.000000  1.000000  1.000000  1.000000
 FoFCou: FMM=F IPFlag=           0 FMFlag=      100000 FMFlg1=           0
         NFxFlg=           0 DoJE=T BraDBF=F KetDBF=T FulRan=T
         wScrn=  0.000000 ICntrl=       500 IOpCl=  0 I1Cent=   200000004 NGrid=           0
         NMat0=    1 NMatS0=      1 NMatT0=    0 NMatD0=    1 NMtDS0=    0 NMtDT0=    0
 Petite list used in FoFCou.
     Minimum is close to point  4 DX=  1.03D-01 DF= -4.20D-06 DXR=  7.90D-02 DFR=  6.28D-03 which will be used.
     Accept linear search using points  2 and  3.
     Accept linear search using points  1 and  2.
     Minimum is close to point  2 DX= -3.49D-04 DF= -9.72D-12 DXR=  3.49D-04 DFR=  1.22D-07 which will be used.
 SCF Done:  E(RwB97XD) =  -159.466665044     a.u. after    5 cycles
            Convg  =    0.2829D-08                    24 Fock formations.
              S**2 =  0.0000                  -V/T =  2.0125
   1 Symmetry operations used in ECPInt.
 ECPInt:  NShTT=    1176 NPrTT=    4744 LenC2=    1173 LenP2D=    3912.
 LDataN:  DoStor=T MaxTD1= 5 Len=  102
 Calling FoFJK, ICntrl=      2127 FMM=F ISym2X=0 I1Cent= 0 IOpClX= 0 NMat=1 NMatS=1 NMatT=0.

 GradGradGradGradGradGradGradGradGradGradGradGradGradGradGradGradGradGrad
 Using GEDIIS/GDIIS optimizer.
 FormGI is forming the generalized inverse of G from B-inverse, IUseBI=4.
 Internal  Forces:  Max     0.000272643 RMS     0.000078870
 Step number   3 out of a maximum of  100
 All quantities printed in internal units (Hartrees-Bohrs-Radians)
 Mixed Optimization -- En-DIIS/RFO-DIIS
 ITU=  0  1  0
 Use linear search instead of GDIIS.
     Eigenvalues ---   -0.00141  -0.00061  -0.00057   0.00036   0.00054
     Eigenvalues ---    0.00054   0.00177   0.00179   0.01878   0.01911
     Eigenvalues ---    0.02704   0.02705   0.03162   0.03277   0.04004
     Eigenvalues ---    0.04004   0.05037   0.05073   0.06931   0.06933
     Eigenvalues ---    0.07261   0.07334   0.08381   0.08384   0.10116
     Eigenvalues ---    0.10505   0.12188   0.12191   0.25032   0.27058
     Eigenvalues ---    0.31560   0.31567   0.32704   0.34436   0.36900
     Eigenvalues ---    0.37020   0.37132   0.37159   0.37161   0.37208
     Eigenvalues ---    0.37211   0.37322
 Quartic linear search produced a step of  0.05040.
 Iteration  1 RMS(Cart)=  0.07613421 RMS(Int)=  0.00415569
 Iteration  2 RMS(Cart)=  0.00327552 RMS(Int)=  0.00269417
 Iteration  3 RMS(Cart)=  0.00001221 RMS(Int)=  0.00269414
 Iteration  4 RMS(Cart)=  0.00000005 RMS(Int)=  0.00269414
 Variable       Old X    -DE/DX   Delta X   Delta X   Delta X     New X
                                 (Linear)    (Quad)   (Total)
    R1        2.88219   0.00003   0.00006  -0.00282   0.00256   2.88476
    R2        2.08612  -0.00006   0.00081  -0.00014   0.00067   2.08678
    R3        2.08612  -0.00006   0.00081  -0.00016   0.00066   2.08678
    R4        2.08501   0.00011   0.00071  -0.00251   0.00147   2.08648
    R5        2.08615  -0.00005   0.00081  -0.00015   0.00067   2.08682
    R6        2.08516   0.00008   0.00071  -0.00268   0.00142   2.08658
    R7        2.08611  -0.00005   0.00081  -0.00015   0.00066   2.08677
    R8        5.32120  -0.00027  -0.00238  -0.17212  -0.17567   5.14553
    R9        5.21756  -0.00027   0.00073   0.21753   0.21489   5.43245
   R10        5.18442  -0.00025   0.00242   0.18288   0.18121   5.36564
   R11        5.32664  -0.00027  -0.00421  -0.17805  -0.18500   5.14165
   R12        2.88282  -0.00009   0.00005  -0.00486   0.00085   2.88367
   R13        2.08517   0.00007   0.00073  -0.00243   0.00177   2.08694
   R14        2.08613  -0.00005   0.00082  -0.00011   0.00071   2.08684
   R15        2.08611  -0.00006   0.00081  -0.00010   0.00071   2.08682
   R16        2.08609  -0.00006   0.00081  -0.00011   0.00070   2.08679
   R17        2.08545   0.00001   0.00072  -0.00252   0.00179   2.08724
   R18        2.08612  -0.00005   0.00082  -0.00010   0.00071   2.08684
    A1        1.94337  -0.00003   0.00039   0.00037   0.00042   1.94379
    A2        1.94414  -0.00000   0.00037   0.00118   0.00135   1.94549
    A3        1.94249   0.00006   0.00021  -0.00370  -0.00244   1.94005
    A4        1.87721   0.00000  -0.00032  -0.00023  -0.00042   1.87678
    A5        1.87731   0.00001  -0.00032   0.00181   0.00047   1.87779
    A6        1.87596  -0.00004  -0.00038   0.00070   0.00066   1.87662
    A7        1.94376   0.00003   0.00038   0.00070   0.00101   1.94477
    A8        1.94250   0.00005   0.00026  -0.00493  -0.00221   1.94029
    A9        1.94359  -0.00003   0.00035   0.00116   0.00032   1.94391
   A10        1.87577  -0.00003  -0.00039   0.00088   0.00034   1.87611
   A11        1.87762  -0.00002  -0.00032   0.00016   0.00016   1.87778
   A12        1.87726   0.00001  -0.00033   0.00223   0.00044   1.87769
   A13        2.06247  -0.00014   0.00033   0.05501   0.05384   2.11631
   A14        1.86518  -0.00014  -0.00161  -0.02440  -0.02698   1.83819
   A15        0.94909   0.00010   0.00060  -0.00476  -0.00342   0.94567
   A16        1.80529  -0.00013  -0.00125  -0.07983  -0.07633   1.72896
   A17        2.08680  -0.00012   0.00015   0.08376   0.08188   2.16867
   A18        0.95163   0.00010   0.00065  -0.00042   0.00150   0.95313
   A19        1.94209   0.00005   0.00036   0.00058   0.00275   1.94484
   A20        1.94430  -0.00001   0.00036  -0.00103  -0.00058   1.94371
   A21        1.94319  -0.00000   0.00034   0.00078   0.00011   1.94330
   A22        1.87552  -0.00001  -0.00042   0.00033  -0.00045   1.87508
   A23        1.87783  -0.00001  -0.00037  -0.00035  -0.00154   1.87629
   A24        1.87759  -0.00002  -0.00033  -0.00034  -0.00044   1.87715
   A25        1.94336  -0.00002   0.00039   0.00046  -0.00005   1.94330
   A26        1.94185   0.00010   0.00030   0.00109   0.00312   1.94497
   A27        1.94434  -0.00003   0.00033  -0.00079  -0.00045   1.94388
   A28        1.87783  -0.00002  -0.00034  -0.00060  -0.00174   1.87608
   A29        1.87755  -0.00000  -0.00032  -0.00024  -0.00034   1.87721
   A30        1.87560  -0.00004  -0.00041   0.00003  -0.00071   1.87489
   A31        0.95170   0.00012   0.00041  -0.00255  -0.00116   0.95054
   A32        1.78729  -0.00015   0.00070   0.05101   0.05342   1.84071
   A33        2.12675  -0.00014  -0.00222  -0.06341  -0.06651   2.06023
   A34        0.94805   0.00013   0.00074  -0.00552  -0.00427   0.94379
   A35        2.11125  -0.00015  -0.00093  -0.06903  -0.07011   2.04114
   A36        1.81357  -0.00014  -0.00072   0.05622   0.05701   1.87059
    D1        1.05615   0.00003   0.00030   0.00452   0.00512   1.06127
    D2       -1.03663   0.00003   0.00038   0.00626   0.00550  -1.03113
    D3       -3.13118   0.00001   0.00039   0.00599   0.00623  -3.12495
    D4       -1.03930   0.00005   0.00020   0.00376   0.00445  -1.03485
    D5       -3.13207   0.00004   0.00028   0.00550   0.00483  -3.12725
    D6        1.05656   0.00002   0.00029   0.00523   0.00555   1.06211
    D7       -3.13257   0.00006   0.00030   0.00457   0.00435  -3.12822
    D8        1.05784   0.00005   0.00037   0.00631   0.00473   1.06257
    D9       -1.03671   0.00003   0.00038   0.00604   0.00546  -1.03126
   D10       -0.17239   0.00004   0.00036   0.06382   0.06280  -0.10959
   D11       -1.18692  -0.00001   0.00035   0.07868   0.08114  -1.10578
   D12        1.96075   0.00005   0.00076   0.06318   0.06212   2.02287
   D13        0.94622  -0.00000   0.00075   0.07804   0.08046   1.02668
   D14       -2.30559   0.00003   0.00002   0.06417   0.06220  -2.24339
   D15        2.96306  -0.00002   0.00001   0.07903   0.08054   3.04360
   D16       -1.25907  -0.00000   0.00048   0.00644   0.01429  -1.24477
   D17       -0.27122   0.00005   0.00058  -0.04308  -0.04739  -0.31862
   D18        2.89151  -0.00005   0.00011   0.00803   0.01419   2.90570
   D19       -2.40383   0.00001   0.00021  -0.04149  -0.04750  -2.45133
   D20        0.87432  -0.00001   0.00086   0.00629   0.01361   0.88792
   D21        1.86216   0.00005   0.00096  -0.04323  -0.04808   1.81408
   D22       -0.24559  -0.00005  -0.00032  -0.05582  -0.05222  -0.29781
   D23       -2.34785   0.00004   0.00303   0.05787   0.06573  -2.28212
   D24        1.34639  -0.00009  -0.00240  -0.12969  -0.13029   1.21610
   D25       -0.75586  -0.00000   0.00096  -0.01599  -0.01235  -0.76821
   D26        0.71336  -0.00001  -0.00004  -0.04397  -0.04630   0.66707
   D27        2.19834  -0.00000   0.00018   0.08432   0.08029   2.27863
   D28       -1.25768   0.00006  -0.00153  -0.12739  -0.13050  -1.38818
   D29        0.22729   0.00007  -0.00131   0.00090  -0.00391   0.22338
   D30        0.77682  -0.00000  -0.00023   0.02356   0.01958   0.79640
   D31        2.21504  -0.00001   0.00297   0.14521   0.14296   2.35800
   D32       -1.26375   0.00006  -0.00122  -0.13375  -0.13662  -1.40037
   D33        0.17447   0.00005   0.00198  -0.01210  -0.01324   0.16123
   D34       -0.14908  -0.00006  -0.00062   0.04511   0.04785  -0.10123
   D35       -2.21454   0.00005   0.00012   0.16818   0.17230  -2.04224
   D36        1.34540  -0.00009  -0.00206  -0.12859  -0.12856   1.21684
   D37       -0.72005   0.00002  -0.00132  -0.00552  -0.00411  -0.72416
   D38        1.03221  -0.00003  -0.00019   0.00591   0.00632   1.03853
   D39       -1.06246  -0.00006  -0.00022   0.00562   0.00645  -1.05601
   D40        3.12821  -0.00006  -0.00012   0.00538   0.00555   3.13376
   D41       -1.06034  -0.00004  -0.00014   0.00579   0.00542  -1.05492
   D42        3.12818  -0.00007  -0.00017   0.00550   0.00555   3.13373
   D43        1.03566  -0.00007  -0.00007   0.00526   0.00465   1.04031
   D44        3.12694  -0.00001  -0.00019   0.00639   0.00630   3.13323
   D45        1.03226  -0.00004  -0.00022   0.00610   0.00643   1.03870
   D46       -1.06025  -0.00004  -0.00011   0.00586   0.00553  -1.05472
   D47        1.21506   0.00002  -0.00056   0.05485   0.04984   1.26490
   D48        0.24211  -0.00006  -0.00195   0.01722   0.01760   0.25971
   D49       -2.93527   0.00002  -0.00017   0.05416   0.05051  -2.88476
   D50        2.37496  -0.00006  -0.00156   0.01653   0.01828   2.39324
   D51       -0.91794  -0.00001  -0.00096   0.05375   0.04901  -0.86893
   D52       -1.89090  -0.00009  -0.00235   0.01612   0.01678  -1.87412
   D53        0.18669  -0.00006   0.00150   0.00598   0.01059   0.19729
   D54        1.17254   0.00003   0.00206   0.03769   0.03484   1.20739
   D55       -1.94637  -0.00009   0.00106   0.00514   0.00987  -1.93649
   D56       -0.96051   0.00000   0.00162   0.03684   0.03412  -0.92639
   D57        2.31950  -0.00006   0.00182   0.00570   0.01149   2.33099
   D58       -2.97784   0.00003   0.00238   0.03740   0.03574  -2.94209
         Item               Value     Threshold  Converged?
 Maximum Force            0.000273     0.000015     NO 
 RMS     Force            0.000079     0.000010     NO 
 Maximum Displacement     0.260863     0.000060     NO 
 RMS     Displacement     0.077303     0.000040     NO 
 GradGradGradGradGradGradGradGradGradGradGradGradGradGradGradGradGradGrad

                    Distance matrix (angstroms):
                    1          2          3          4          5
     1  C    0.000000
     2  C    1.526547   0.000000
     3  H    1.104278   2.185948   0.000000
     4  H    1.104276   2.187166   1.781439   0.000000
     5  H    1.104118   2.183132   1.781965   1.781204   0.000000
     6  H    2.186660   1.104298   2.554003   2.545978   3.107336
     7  H    2.183348   1.104171   2.539250   3.107850   2.547287
     8  H    2.186027   1.104270   3.108905   2.555019   2.539157
     9  C    4.028079   4.015364   4.487406   4.884133   3.199602
    10  C    4.112641   4.034791   4.226275   5.147203   3.515960
    11  H    3.428266   3.204503   4.097919   4.207169   2.722897
    12  H    5.066729   4.910332   5.574972   5.883512   4.244597
    13  H    4.026220   4.400880   4.454483   4.760676   3.017268
    14  H    4.530674   4.078439   4.663924   5.591792   4.136391
    15  H    3.340724   3.464724   3.256077   4.407986   2.874728
    16  H    5.009935   5.081983   4.992831   6.030899   4.346777
                    6          7          8          9         10
     6  H    0.000000
     7  H    1.780931   0.000000
     8  H    1.782098   1.781942   0.000000
     9  C    5.078224   3.497143   3.968505   0.000000
    10  C    4.954504   3.224584   4.343236   1.525975   0.000000
    11  H    4.273294   2.839372   2.966186   1.104361   2.186254
    12  H    5.952648   4.351233   4.712915   1.104306   2.185404
    13  H    5.491328   4.080004   4.390199   1.104295   2.185104
    14  H    4.874778   3.097518   4.351980   2.185095   1.104283
    15  H    4.315820   2.720841   4.015321   2.186471   1.104520
    16  H    5.980892   4.271822   5.431130   2.185528   1.104306
                   11         12         13         14         15
    11  H    0.000000
    12  H    1.780415   0.000000
    13  H    1.781197   1.781714   0.000000
    14  H    2.544977   2.549871   3.107983   0.000000
    15  H    2.552811   3.109250   2.545241   1.781182   0.000000
    16  H    3.109128   2.545128   2.549954   1.781746   1.780423
                   16
    16  H    0.000000
 Framework group  C1[X(C4H12)]
 Deg. of freedom    42
                         Standard orientation:                         
 ---------------------------------------------------------------------
 Center     Atomic      Atomic             Coordinates (Angstroms)
 Number     Number       Type             X           Y           Z
 ---------------------------------------------------------------------
      1          6           0       -1.977021    0.559446    0.508806
      2          6           0       -1.924645   -0.578052   -0.507905
      3          1           0       -2.051267    0.173634    1.540827
      4          1           0       -2.847630    1.216364    0.335818
      5          1           0       -1.070436    1.187071    0.451645
      6          1           0       -2.835586   -1.200725   -0.463896
      7          1           0       -1.060791   -1.240026   -0.321515
      8          1           0       -1.833338   -0.192694   -1.538718
      9          6           0        1.920583    0.578399   -0.507927
     10          6           0        1.980417   -0.559704    0.506834
     11          1           0        1.023820    0.501681   -1.147885
     12          1           0        2.802684    0.571883   -1.172266
     13          1           0        1.888074    1.562081   -0.007149
     14          1           0        2.004335   -1.543697    0.006207
     15          1           0        1.102594   -0.549499    1.177123
     16          1           0        2.881538   -0.486605    1.140970
 ---------------------------------------------------------------------
 Rotational constants (GHZ):           9.9622472           1.9565222           1.9245822
    80 basis functions,   148 primitive gaussians,    84 cartesian basis functions
    18 alpha electrons       18 beta electrons
       nuclear repulsion energy       126.0214556599 Hartrees.
 NAtoms=   16 NActive=   16 NUniq=   16 SFac= 1.00D+00 NAtFMM=   60 NAOKFM=F Big=F
 Nuclear repulsion after empirical dispersion term =      126.0150575037 Hartrees.
   1 Symmetry operations used in ECPInt.
 ECPInt:  NShTT=    1176 NPrTT=    4744 LenC2=    1173 LenP2D=    3911.
 LDataN:  DoStor=T MaxTD1= 4 Len=   56
 Initial guess from the checkpoint file:  "7.chk"
 B after Tr=    -0.000000    0.000000    0.000000
         Rot=    0.707223   -0.706988   -0.000720   -0.001862 Ang= -89.98 deg.
 ExpMin= 1.22D-01 ExpMax= 1.24D+03 ExpMxC= 1.86D+02 IAcc=3 IRadAn=         5 AccDes= 0.00D+00
 Harris functional with IExCor= 4639 and IRadAn=       5 diagonalized for initial guess.
 HarFok:  IExCor= 4639 AccDes= 0.00D+00 IRadAn=         5 IDoV= 1 UseB2=F ITyADJ=14
 ICtDFT=  3500011 ScaDFX=  1.000000  1.000000  1.000000  1.000000
 FoFCou: FMM=F IPFlag=           0 FMFlag=      100000 FMFlg1=           0
         NFxFlg=           0 DoJE=T BraDBF=F KetDBF=T FulRan=T
         wScrn=  0.000000 ICntrl=       500 IOpCl=  0 I1Cent=   200000004 NGrid=           0
         NMat0=    1 NMatS0=      1 NMatT0=    0 NMatD0=    1 NMtDS0=    0 NMtDT0=    0
 Petite list used in FoFCou.
     Accept linear search using points  2 and  3.
     Accept linear search using points  1 and  2.
     Minimum is close to point  2 DX= -5.86D-02 DF= -8.10D-07 DXR=  4.72D-02 DFR=  3.34D-03 which will be used.
     Accept linear search using points  1 and  2.
     Accept linear search using points  1 and  2.
     Minimum is close to point  2 DX= -3.17D-04 DF= -5.26D-12 DXR=  3.17D-04 DFR=  1.01D-07 which will be used.
 SCF Done:  E(RwB97XD) =  -159.466638341     a.u. after    7 cycles
            Convg  =    0.1371D-08                    28 Fock formations.
              S**2 =  0.0000                  -V/T =  2.0126
   1 Symmetry operations used in ECPInt.
 ECPInt:  NShTT=    1176 NPrTT=    4744 LenC2=    1173 LenP2D=    3911.
 LDataN:  DoStor=T MaxTD1= 5 Len=  102
 Calling FoFJK, ICntrl=      2127 FMM=F ISym2X=0 I1Cent= 0 IOpClX= 0 NMat=1 NMatS=1 NMatT=0.

 GradGradGradGradGradGradGradGradGradGradGradGradGradGradGradGradGradGrad
 Using GEDIIS/GDIIS optimizer.
 FormGI is forming the generalized inverse of G from B-inverse, IUseBI=4.
 Internal  Forces:  Max     0.000565451 RMS     0.000155003
 Step number   4 out of a maximum of  100
 All quantities printed in internal units (Hartrees-Bohrs-Radians)
 Mixed Optimization -- En-DIIS/RFO-DIIS
 Swapping is turned off.
 ITU=  0  0  1  0
     Eigenvalues ---   -0.00070  -0.00058   0.00019   0.00037   0.00054
     Eigenvalues ---    0.00055   0.00177   0.00182   0.01914   0.01951
     Eigenvalues ---    0.02702   0.02704   0.03175   0.03291   0.04003
     Eigenvalues ---    0.04004   0.05040   0.05094   0.06926   0.06932
     Eigenvalues ---    0.07259   0.07293   0.08377   0.08382   0.10119
     Eigenvalues ---    0.10515   0.12174   0.12189   0.27015   0.27609
     Eigenvalues ---    0.31556   0.31560   0.34412   0.34831   0.37018
     Eigenvalues ---    0.37057   0.37159   0.37161   0.37208   0.37211
     Eigenvalues ---    0.37315   0.37762
 Use linear search instead of GDIIS.
 Quartic linear search produced a step of -0.84682.
 Iteration  1 RMS(Cart)=  0.08856811 RMS(Int)=  0.01245302
 Iteration  2 RMS(Cart)=  0.01346921 RMS(Int)=  0.00312397
 Iteration  3 RMS(Cart)=  0.00007961 RMS(Int)=  0.00312313
 Iteration  4 RMS(Cart)=  0.00000040 RMS(Int)=  0.00312313
 Variable       Old X    -DE/DX   Delta X   Delta X   Delta X     New X
                                 (Linear)    (Quad)   (Total)
    R1        2.88476  -0.00057  -0.00217   0.00110   0.00289   2.88765
    R2        2.08678  -0.00031  -0.00057  -0.00077  -0.00134   2.08545
    R3        2.08678  -0.00030  -0.00056  -0.00084  -0.00140   2.08538
    R4        2.08648  -0.00033  -0.00125  -0.00074  -0.00065   2.08584
    R5        2.08682  -0.00029  -0.00057  -0.00079  -0.00135   2.08547
    R6        2.08658  -0.00032  -0.00120  -0.00131  -0.00112   2.08547
    R7        2.08677  -0.00029  -0.00056  -0.00081  -0.00137   2.08540
    R8        5.14553  -0.00031   0.14876   0.05876   0.20232   5.34785
    R9        5.43245  -0.00038  -0.18197   0.03305  -0.15156   5.28089
   R10        5.36564  -0.00035  -0.15345  -0.17179  -0.32495   5.04069
   R11        5.14165  -0.00031   0.15666   0.02314   0.18027   5.32191
   R12        2.88367  -0.00035  -0.00072   0.00385   0.00693   2.89060
   R13        2.08694  -0.00042  -0.00150   0.00121   0.00163   2.08857
   R14        2.08684  -0.00028  -0.00060  -0.00082  -0.00142   2.08542
   R15        2.08682  -0.00028  -0.00060  -0.00081  -0.00140   2.08541
   R16        2.08679  -0.00028  -0.00059  -0.00081  -0.00140   2.08539
   R17        2.08724  -0.00046  -0.00151   0.00134   0.00248   2.08972
   R18        2.08684  -0.00029  -0.00061  -0.00081  -0.00142   2.08542
    A1        1.94379  -0.00013  -0.00036   0.00037   0.00052   1.94432
    A2        1.94549  -0.00009  -0.00115   0.00082  -0.00021   1.94529
    A3        1.94005   0.00023   0.00207  -0.00307  -0.00224   1.93781
    A4        1.87678   0.00008   0.00036  -0.00088  -0.00069   1.87610
    A5        1.87779  -0.00001  -0.00040  -0.00177  -0.00262   1.87517
    A6        1.87662  -0.00008  -0.00056   0.00465   0.00535   1.88197
    A7        1.94477  -0.00002  -0.00085  -0.00086  -0.00159   1.94318
    A8        1.94029   0.00018   0.00187  -0.00635  -0.00552   1.93477
    A9        1.94391  -0.00011  -0.00027   0.00288   0.00303   1.94694
   A10        1.87611  -0.00006  -0.00029   0.00487   0.00577   1.88188
   A11        1.87778   0.00002  -0.00014   0.00030   0.00003   1.87781
   A12        1.87769  -0.00000  -0.00037  -0.00057  -0.00145   1.87624
   A13        2.11631  -0.00020  -0.04559  -0.07894  -0.12225   1.99406
   A14        1.83819  -0.00012   0.02285   0.07860   0.10856   1.94675
   A15        0.94567  -0.00004   0.00289  -0.00771  -0.00204   0.94363
   A16        1.72896  -0.00009   0.06464  -0.05725  -0.00028   1.72868
   A17        2.16867  -0.00019  -0.06933   0.02645  -0.04591   2.12276
   A18        0.95313  -0.00004  -0.00127   0.01707   0.01548   0.96861
   A19        1.94484   0.00005  -0.00233  -0.00043  -0.00165   1.94318
   A20        1.94371  -0.00005   0.00049  -0.00032   0.00029   1.94400
   A21        1.94330  -0.00004  -0.00009  -0.00046  -0.00123   1.94207
   A22        1.87508  -0.00001   0.00038   0.00052   0.00080   1.87587
   A23        1.87629   0.00004   0.00130   0.00055   0.00123   1.87752
   A24        1.87715   0.00000   0.00037   0.00023   0.00074   1.87789
   A25        1.94330  -0.00006   0.00004  -0.00097  -0.00137   1.94193
   A26        1.94497   0.00009  -0.00264  -0.00001  -0.00127   1.94370
   A27        1.94388  -0.00006   0.00038   0.00022   0.00034   1.94422
   A28        1.87608   0.00003   0.00148  -0.00018   0.00057   1.87665
   A29        1.87721   0.00001   0.00029   0.00056   0.00103   1.87824
   A30        1.87489  -0.00002   0.00060   0.00043   0.00086   1.87575
   A31        0.95054   0.00003   0.00098   0.00846   0.00697   0.95751
   A32        1.84071  -0.00007  -0.04524  -0.00570  -0.04997   1.79074
   A33        2.06023  -0.00004   0.05633   0.02806   0.08398   2.14421
   A34        0.94379   0.00003   0.00361  -0.00990  -0.00558   0.93820
   A35        2.04114  -0.00005   0.05937   0.00682   0.06382   2.10496
   A36        1.87059  -0.00006  -0.04828  -0.03161  -0.07845   1.79214
    D1        1.06127   0.00004  -0.00434  -0.00224  -0.00658   1.05469
    D2       -1.03113   0.00000  -0.00466  -0.00354  -0.00909  -1.04022
    D3       -3.12495  -0.00003  -0.00527  -0.00047  -0.00556  -3.13051
    D4       -1.03485   0.00008  -0.00377  -0.00192  -0.00592  -1.04077
    D5       -3.12725   0.00005  -0.00409  -0.00323  -0.00843  -3.13568
    D6        1.06211   0.00001  -0.00470  -0.00016  -0.00490   1.05721
    D7       -3.12822   0.00009  -0.00368  -0.00629  -0.01104  -3.13926
    D8        1.06257   0.00006  -0.00401  -0.00760  -0.01356   1.04901
    D9       -1.03126   0.00002  -0.00462  -0.00453  -0.01002  -1.04128
[...]
   D43        1.03255  -0.00000   0.00000   0.00000   0.00000   1.03255
   D44        3.12594   0.00000  -0.00000   0.00000  -0.00000   3.12594
   D45        1.03159   0.00000   0.00000   0.00000   0.00000   1.03159
   D46       -1.06235   0.00000   0.00000   0.00000   0.00000  -1.06235
   D47        1.22317   0.00000  -0.00001   0.00000  -0.00001   1.22316
   D48        0.16997  -0.00000  -0.00001   0.00000  -0.00001   0.16996
   D49       -2.92653   0.00000  -0.00001   0.00000  -0.00001  -2.92654
   D50        2.30345   0.00000  -0.00001   0.00000  -0.00001   2.30344
   D51       -0.90977   0.00000  -0.00001   0.00000  -0.00001  -0.90977
   D52       -1.96296  -0.00000  -0.00001   0.00000  -0.00001  -1.96297
   D53        0.16688  -0.00000   0.00001   0.00000   0.00001   0.16689
   D54        1.22165   0.00000   0.00001   0.00000   0.00001   1.22166
   D55       -1.96608   0.00000   0.00001   0.00000   0.00001  -1.96607
   D56       -0.91131   0.00000   0.00001   0.00000   0.00001  -0.91130
   D57        2.30034   0.00000   0.00001   0.00000   0.00001   2.30035
   D58       -2.92807   0.00000   0.00000   0.00000   0.00000  -2.92807
         Item               Value     Threshold  Converged?
 Maximum Force            0.000011     0.000015     YES
 RMS     Force            0.000002     0.000010     YES
 Maximum Displacement     0.000019     0.000060     YES
 RMS     Displacement     0.000004     0.000040     YES
 Optimization completed.
    -- Stationary point found.
                           ----------------------------
                           !   Optimized Parameters   !
                           ! (Angstroms and Degrees)  !
 --------------------------                            --------------------------
 ! Name  Definition              Value          Derivative Info.                !
 --------------------------------------------------------------------------------
 ! R1    R(1,2)                  1.5251         -DE/DX =    0.0                 !
 ! R2    R(1,3)                  1.1039         -DE/DX =    0.0                 !
 ! R3    R(1,4)                  1.1039         -DE/DX =    0.0                 !
 ! R4    R(1,5)                  1.1038         -DE/DX =    0.0                 !
 ! R5    R(2,6)                  1.1039         -DE/DX =    0.0                 !
 ! R6    R(2,7)                  1.1038         -DE/DX =    0.0                 !
 ! R7    R(2,8)                  1.1039         -DE/DX =    0.0                 !
 ! R8    R(5,11)                 2.5867         -DE/DX =    0.0                 !
 ! R9    R(5,15)                 2.5864         -DE/DX =    0.0                 !
 ! R10   R(7,11)                 2.5867         -DE/DX =    0.0                 !
 ! R11   R(7,15)                 2.5849         -DE/DX =    0.0                 !
 ! R12   R(9,10)                 1.5251         -DE/DX =    0.0                 !
 ! R13   R(9,11)                 1.1038         -DE/DX =    0.0                 !
 ! R14   R(9,12)                 1.1039         -DE/DX =    0.0                 !
 ! R15   R(9,13)                 1.1039         -DE/DX =    0.0                 !
 ! R16   R(10,14)                1.1039         -DE/DX =    0.0                 !
 ! R17   R(10,15)                1.1038         -DE/DX =    0.0                 !
 ! R18   R(10,16)                1.1039         -DE/DX =    0.0                 !
 ! A1    A(2,1,3)              111.337          -DE/DX =    0.0                 !
 ! A2    A(2,1,4)              111.3843         -DE/DX =    0.0                 !
 ! A3    A(2,1,5)              111.3026         -DE/DX =    0.0                 !
 ! A4    A(3,1,4)              107.5401         -DE/DX =    0.0                 !
 ! A5    A(3,1,5)              107.5585         -DE/DX =    0.0                 !
 ! A6    A(4,1,5)              107.5158         -DE/DX =    0.0                 !
 ! A7    A(1,2,6)              111.3837         -DE/DX =    0.0                 !
 ! A8    A(1,2,7)              111.3025         -DE/DX =    0.0                 !
 ! A9    A(1,2,8)              111.3368         -DE/DX =    0.0                 !
 ! A10   A(6,2,7)              107.5157         -DE/DX =    0.0                 !
 ! A11   A(6,2,8)              107.5418         -DE/DX =    0.0                 !
 ! A12   A(7,2,8)              107.558          -DE/DX =    0.0                 !
 ! A13   A(1,5,11)             117.1534         -DE/DX =    0.0                 !
 ! A14   A(1,5,15)             100.2544         -DE/DX =    0.0                 !
 ! A15   A(11,5,15)             59.0648         -DE/DX =    0.0                 !
 ! A16   A(2,7,11)             100.2314         -DE/DX =    0.0                 !
 ! A17   A(2,7,15)             117.1885         -DE/DX =    0.0                 !
 ! A18   A(11,7,15)             59.0836         -DE/DX =    0.0                 !
 ! A19   A(10,9,11)            111.3059         -DE/DX =    0.0                 !
 ! A20   A(10,9,12)            111.3835         -DE/DX =    0.0                 !
 ! A21   A(10,9,13)            111.3355         -DE/DX =    0.0                 !
 ! A22   A(11,9,12)            107.5147         -DE/DX =    0.0                 !
 ! A23   A(11,9,13)            107.5573         -DE/DX =    0.0                 !
 ! A24   A(12,9,13)            107.5412         -DE/DX =    0.0                 !
 ! A25   A(9,10,14)            111.3367         -DE/DX =    0.0                 !
 ! A26   A(9,10,15)            111.3047         -DE/DX =    0.0                 !
 ! A27   A(9,10,16)            111.3833         -DE/DX =    0.0                 !
 ! A28   A(14,10,15)           107.5584         -DE/DX =    0.0                 !
 ! A29   A(14,10,16)           107.5408         -DE/DX =    0.0                 !
 ! A30   A(15,10,16)           107.5143         -DE/DX =    0.0                 !
 ! A31   A(5,11,7)              59.0596         -DE/DX =    0.0                 !
 ! A32   A(5,11,9)             100.2006         -DE/DX =    0.0                 !
 ! A33   A(7,11,9)             117.1351         -DE/DX =    0.0                 !
 ! A34   A(5,15,7)              59.0855         -DE/DX =    0.0                 !
 ! A35   A(5,15,10)            117.147          -DE/DX =    0.0                 !
 ! A36   A(7,15,10)            100.3281         -DE/DX =    0.0                 !
 ! D1    D(3,1,2,6)             60.8732         -DE/DX =    0.0                 !
 ! D2    D(3,1,2,7)            -59.1007         -DE/DX =    0.0                 !
 ! D3    D(3,1,2,8)           -179.0965         -DE/DX =    0.0                 !
 ! D4    D(4,1,2,6)            -59.1555         -DE/DX =    0.0                 !
 ! D5    D(4,1,2,7)           -179.1294         -DE/DX =    0.0                 !
 ! D6    D(4,1,2,8)             60.8748         -DE/DX =    0.0                 !
 ! D7    D(5,1,2,6)           -179.13           -DE/DX =    0.0                 !
 ! D8    D(5,1,2,7)             60.8961         -DE/DX =    0.0                 !
 ! D9    D(5,1,2,8)            -59.0997         -DE/DX =    0.0                 !
 ! D10   D(2,1,5,11)            -9.6059         -DE/DX =    0.0                 !
 ! D11   D(2,1,5,15)           -69.9802         -DE/DX =    0.0                 !
 ! D12   D(3,1,5,11)           112.6028         -DE/DX =    0.0                 !
 ! D13   D(3,1,5,15)            52.2285         -DE/DX =    0.0                 !
 ! D14   D(4,1,5,11)          -131.845          -DE/DX =    0.0                 !
 ! D15   D(4,1,5,15)           167.7807         -DE/DX =    0.0                 !
 ! D16   D(1,2,7,11)           -70.0658         -DE/DX =    0.0                 !
 ! D17   D(1,2,7,15)            -9.6844         -DE/DX =    0.0                 !
 ! D18   D(6,2,7,11)           167.6961         -DE/DX =    0.0                 !
 ! D19   D(6,2,7,15)          -131.9226         -DE/DX =    0.0                 !
 ! D20   D(8,2,7,11)            52.1423         -DE/DX =    0.0                 !
 ! D21   D(8,2,7,15)           112.5236         -DE/DX =    0.0                 !
 ! D22   D(1,5,11,7)           -14.5177         -DE/DX =    0.0                 !
 ! D23   D(1,5,11,9)          -130.1399         -DE/DX =    0.0                 !
 ! D24   D(15,5,11,7)           71.2302         -DE/DX =    0.0                 !
 ! D25   D(15,5,11,9)          -44.3919         -DE/DX =    0.0                 !
 ! D26   D(1,5,15,7)            44.3116         -DE/DX =    0.0                 !
 ! D27   D(1,5,15,10)          130.1704         -DE/DX =    0.0                 !
 ! D28   D(11,5,15,7)          -71.3004         -DE/DX =    0.0                 !
 ! D29   D(11,5,15,10)          14.5585         -DE/DX =    0.0                 !
 ! D30   D(2,7,11,5)            44.3702         -DE/DX =    0.0                 !
 ! D31   D(2,7,11,9)           130.0574         -DE/DX =    0.0                 !
 ! D32   D(15,7,11,5)          -71.2945         -DE/DX =    0.0                 !
 ! D33   D(15,7,11,9)           14.3927         -DE/DX =    0.0                 !
 ! D34   D(2,7,15,5)           -14.4386         -DE/DX =    0.0                 !
 ! D35   D(2,7,15,10)         -129.9988         -DE/DX =    0.0                 !
 ! D36   D(11,7,15,5)           71.2676         -DE/DX =    0.0                 !
 ! D37   D(11,7,15,10)         -44.2926         -DE/DX =    0.0                 !
 ! D38   D(11,9,10,14)          59.1068         -DE/DX =    0.0                 !
 ! D39   D(11,9,10,15)         -60.891          -DE/DX =    0.0                 !
 ! D40   D(11,9,10,16)         179.1355         -DE/DX =    0.0                 !
 ! D41   D(12,9,10,14)         -60.8681         -DE/DX =    0.0                 !
 ! D42   D(12,9,10,15)         179.1341         -DE/DX =    0.0                 !
 ! D43   D(12,9,10,16)          59.1606         -DE/DX =    0.0                 !
 ! D44   D(13,9,10,14)         179.1033         -DE/DX =    0.0                 !
 ! D45   D(13,9,10,15)          59.1055         -DE/DX =    0.0                 !
 ! D46   D(13,9,10,16)         -60.868          -DE/DX =    0.0                 !
 ! D47   D(10,9,11,5)           70.0824         -DE/DX =    0.0                 !
 ! D48   D(10,9,11,7)            9.7386         -DE/DX =    0.0                 !
 ! D49   D(12,9,11,5)         -167.6781         -DE/DX =    0.0                 !
 ! D50   D(12,9,11,7)          131.9781         -DE/DX =    0.0                 !
 ! D51   D(13,9,11,5)          -52.1257         -DE/DX =    0.0                 !
 ! D52   D(13,9,11,7)         -112.4695         -DE/DX =    0.0                 !
 ! D53   D(9,10,15,5)            9.5615         -DE/DX =    0.0                 !
 ! D54   D(9,10,15,7)           69.9955         -DE/DX =    0.0                 !
 ! D55   D(14,10,15,5)        -112.6481         -DE/DX =    0.0                 !
 ! D56   D(14,10,15,7)         -52.214          -DE/DX =    0.0                 !
 ! D57   D(16,10,15,5)         131.7997         -DE/DX =    0.0                 !
 ! D58   D(16,10,15,7)        -167.7662         -DE/DX =    0.0                 !
 --------------------------------------------------------------------------------
 GradGradGradGradGradGradGradGradGradGradGradGradGradGradGradGradGradGrad

                    Distance matrix (angstroms):
                    1          2          3          4          5
     1  C    0.000000
     2  C    1.525079   0.000000
     3  H    1.103897   2.183934   0.000000
     4  H    1.103873   2.184509   1.780901   0.000000
     5  H    1.103776   2.183410   1.781033   1.780526   0.000000
     6  H    2.184500   1.103872   2.551506   2.541428   3.106455
     7  H    2.183408   1.103775   2.539111   3.106460   2.549810
     8  H    2.183931   1.103896   3.106472   2.551523   2.539104
     9  C    3.783821   3.783762   4.202630   4.675207   2.986713
    10  C    3.784411   3.784020   3.811957   4.838650   3.242347
    11  H    3.242708   2.987202   3.888082   4.060069   2.586667
    12  H    4.838361   4.675996   5.289288   5.704962   4.051313
    13  H    3.809509   4.201042   4.225627   4.560810   2.808802
    14  H    4.203835   3.812139   4.228819   5.290169   3.888186
    15  H    2.987321   3.241488   2.811255   4.052026   2.586377
    16  H    4.675529   4.838108   4.562955   5.705102   4.059364
                    6          7          8          9         10
     6  H    0.000000
     7  H    1.780524   0.000000
     8  H    1.780919   1.781024   0.000000
     9  C    4.838234   3.242458   3.810084   0.000000
    10  C    4.675955   2.987140   4.201690   1.525084   0.000000
    11  H    4.051767   2.586658   2.809766   1.103788   2.183466
    12  H    5.705871   4.060897   4.562215   1.103873   2.184503
    13  H    5.287575   3.886499   4.224947   1.103897   2.183920
    14  H    4.564132   2.811699   4.226888   2.183934   1.103897
    15  H    4.059344   2.584884   3.886073   2.183443   1.103778
    16  H    5.705437   4.051574   5.288001   2.184501   1.103873
                   11         12         13         14         15
    11  H    0.000000
    12  H    1.780524   0.000000
    13  H    1.781028   1.780914   0.000000
    14  H    2.539208   2.551471   3.106463   0.000000
    15  H    2.549874   3.106479   2.539159   1.781032   0.000000
    16  H    3.106498   2.541447   2.551451   1.780909   1.780511
                   16
    16  H    0.000000
 Framework group  C1[X(C4H12)]
 Deg. of freedom    42
                         Standard orientation:                         
 ---------------------------------------------------------------------
 Center     Atomic      Atomic             Coordinates (Angstroms)
 Number     Number       Type             X           Y           Z
 ---------------------------------------------------------------------
      1          6           0       -1.813675    0.535129    0.543188
      2          6           0       -1.813413   -0.535258   -0.543153
      3          1           0       -1.806188    0.084626    1.550948
      4          1           0       -2.707410    1.179254    0.473359
      5          1           0       -0.926930    1.187552    0.463502
      6          1           0       -2.707544   -1.178926   -0.474188
      7          1           0       -0.927082   -1.188133   -0.462592
      8          1           0       -1.804686   -0.084757   -1.550902
      9          6           0        1.813295    0.543524   -0.534922
     10          6           0        1.813787   -0.543398    0.534883
     11          1           0        0.927207    0.462923   -1.188144
     12          1           0        2.707660    0.475364   -1.178350
     13          1           0        1.803942    1.551016   -0.083856
     14          1           0        1.807048   -1.550916    0.083828
     15          1           0        0.926776   -0.464597    1.187054
     16          1           0        2.707249   -0.473386    1.179367
 ---------------------------------------------------------------------
 Rotational constants (GHZ):           9.9683929           2.2033944           2.2031989

 **********************************************************************

            Population analysis using the SCF Density.

 **********************************************************************

 Orbital symmetries:
       Occupied  (A) (A) (A) (A) (A) (A) (A) (A) (A) (A) (A) (A)
                 (A) (A) (A) (A) (A) (A)
       Virtual   (A) (A) (A) (A) (A) (A) (A) (A) (A) (A) (A) (A)
                 (A) (A) (A) (A) (A) (A) (A) (A) (A) (A) (A) (A)
                 (A) (A) (A) (A) (A) (A) (A) (A) (A) (A) (A) (A)
                 (A) (A) (A) (A) (A) (A) (A) (A) (A) (A) (A) (A)
                 (A) (A) (A) (A) (A) (A) (A) (A) (A) (A) (A) (A)
                 (A) (A)
 The electronic state is 1-A.
 Alpha  occ. eigenvalues --  -10.28054 -10.28052 -10.28048 -10.28047  -0.84561
 Alpha  occ. eigenvalues --   -0.83909  -0.70002  -0.70001  -0.53366  -0.52028
 Alpha  occ. eigenvalues --   -0.52028  -0.50599  -0.45271  -0.45093  -0.42500
 Alpha  occ. eigenvalues --   -0.42255  -0.42253  -0.42090
 Alpha virt. eigenvalues --    0.12930   0.17031   0.17726   0.17727   0.20804
 Alpha virt. eigenvalues --    0.21602   0.21602   0.23600   0.24760   0.25506
 Alpha virt. eigenvalues --    0.25509   0.25848   0.31674   0.31675   0.48329
 Alpha virt. eigenvalues --    0.51192   0.51627   0.51629   0.52157   0.58192
 Alpha virt. eigenvalues --    0.64442   0.66802   0.66809   0.70441   0.72120
 Alpha virt. eigenvalues --    0.72121   0.76708   0.78456   0.79373   0.80261
 Alpha virt. eigenvalues --    0.80262   0.81493   0.81493   0.83121   0.84547
 Alpha virt. eigenvalues --    0.86321   0.88782   0.88786   0.90754   0.92246
 Alpha virt. eigenvalues --    1.11392   1.11397   1.59504   1.59543   1.59544
 Alpha virt. eigenvalues --    1.59847   1.97097   1.97476   2.02699   2.03924
 Alpha virt. eigenvalues --    2.04212   2.04213   2.25038   2.25167   2.25168
 Alpha virt. eigenvalues --    2.29818   2.35142   2.35342   2.35344   2.35510
 Alpha virt. eigenvalues --    2.63845   2.63846
          Condensed to atoms (all electrons):
 Mulliken charges:
               1
     1  C   -0.368837
     2  C   -0.368842
     3  H    0.121305
     4  H    0.120827
     5  H    0.126695
     6  H    0.120827
     7  H    0.126690
     8  H    0.121326
     9  C   -0.368852
    10  C   -0.368835
    11  H    0.126691
    12  H    0.120831
    13  H    0.121336
    14  H    0.121303
    15  H    0.126709
    16  H    0.120826
 Sum of Mulliken charges =  -0.00000
 Mulliken charges with hydrogens summed into heavy atoms:
               1
     1  C   -0.000011
     2  C    0.000001
     9  C    0.000007
    10  C    0.000004
 Electronic spatial extent (au):  <R**2>=            642.8248
 Charge=             -0.0000 electrons
 Dipole moment (field-independent basis, Debye):
    X=              0.0001    Y=              0.0000    Z=             -0.0000  Tot=              0.0001
 Evaluate density.
 Using the total density.
 Monte-Carlo method of calculating molar volume:
 based on  0.001 e/bohr**3 density envelope.
 Number of points per bohr**3 =  100 CutOff= 1.00D-04
 Using the SCF density.
 There are      1653 points.  Will hold      1653 in memory.
 LenV=  1048423726 MDV=  1048576000.
 Box volume = 4520.298 fraction occupied=0.192
 Integrated density= 3.1098916200274410D+01 error=-4.9010837997255905D+00
 Molar volume =  866.869 bohr**3/mol ( 77.358 cm**3/mol)
 Recommended a0 for SCRF calculation =  3.95 angstrom (  7.46 bohr)
 1\1\GINC-C340\FOpt\RwB97XD\def2SVPP\C4H12\PETERCHAO1\03-Feb-2023\0\\#T
  wB97XD/def2svpp opt=(tight,calcfc) int(grid=ultrafine) scf=(verytight
 ,qc) Volume=tight\\Dimer\\0,1\C,-1.8138035432,0.5405041475,0.537405499
 6\C,-1.8132876293,-0.5404506839,-0.5384207251\H,-1.8066286354,0.099873
 1805,1.5495228244\H,-2.7074849082,1.1839604323,0.4610278897\H,-0.92700
 20709,1.1920728342,0.45160023\H,-2.7074720271,-1.1833689348,-0.4634233
 57\H,-0.9270138236,-1.1925509178,-0.4512280716\H,-1.8042485097,-0.0998
 219771,-1.550522693\C,1.813474928,0.5381803971,-0.5396956673\C,1.81360
 36573,-0.5382323293,0.5406821829\H,0.9275695557,0.4512418159,-1.192352
 3319\H,2.7080206533,0.4636895623,-1.1821708669\H,1.8040453806,1.550034
 1177,-0.098502225\H,1.8069408075,-1.5501107246,0.0994956697\H,0.926410
 2812,-0.4530161494,1.191797939\H,2.7068848986,-0.4619686064,1.18470701
 11\\Version=ES64L-G16RevB.01\State=1-A\HF=-159.4670394\RMSD=7.208e-11\
 RMSF=6.432e-06\Dipole=0.0000414,0.0000148,-0.0000039\Quadrupole=0.3437
 498,-0.1722118,-0.171538,0.0001823,0.0000904,-0.0000565\PG=C01 [X(C4H1
 2)]\\@


 NO SCIENCE HAS EVER MADE MORE RAPID PROGRESS IN A
 SHORTER TIME THAN CHEMISTRY.
   -- MARTIN HEINRICH KLOPROTH, 1791
 (FIRST PROFESSOR OF CHEMISTRY AT THE UNIVERSITY OF BERLIN)
 File lengths (MBytes):  RWF=     17 Int=      0 D2E=      0 Chk=      2 Scr=      1
 Normal termination of Gaussian 16 at Fri Feb  3 12:59:30 2023.
real 640.74
user 2336.80
sys 34.62
