 Entering Gaussian System, Link 0=g16
 Input=gaussian_test.inp
 Output=gaussian_test.log
 Initial command:
 /sw/restricted/lms/sw/Gaussian/g16_B01/g16/l1.exe "/scratch/user/peterchao1/peterchao1/6097808_1659647584000000839197405/Gau-85699.inp" -scrdir="/scratch/user/peterchao1/peterchao1/6097808_1659647584000000839197405/"
 Entering Link 1 = /sw/restricted/lms/sw/Gaussian/g16_B01/g16/l1.exe PID=     85701.
  
 Copyright (c) 1988-2017, Gaussian, Inc.  All Rights Reserved.
  
 This is part of the Gaussian(R) 16 program.  It is based on
 the Gaussian(R) 09 system (copyright 2009, Gaussian, Inc.),
 the Gaussian(R) 03 system (copyright 2003, Gaussian, Inc.),
 the Gaussian(R) 98 system (copyright 1998, Gaussian, Inc.),
 the Gaussian(R) 94 system (copyright 1995, Gaussian, Inc.),
 the Gaussian 92(TM) system (copyright 1992, Gaussian, Inc.),
 the Gaussian 90(TM) system (copyright 1990, Gaussian, Inc.),
 the Gaussian 88(TM) system (copyright 1988, Gaussian, Inc.),
 the Gaussian 86(TM) system (copyright 1986, Carnegie Mellon
 University), and the Gaussian 82(TM) system (copyright 1983,
 Carnegie Mellon University). Gaussian is a federally registered
 trademark of Gaussian, Inc.
  
 This software contains proprietary and confidential information,
 including trade secrets, belonging to Gaussian, Inc.
  
 This software is provided under written license and may be
 used, copied, transmitted, or stored only in accord with that
 written license.
  
 The following legend is applicable only to US Government
 contracts under FAR:
  
                    RESTRICTED RIGHTS LEGEND
  
 Use, reproduction and disclosure by the US Government is
 subject to restrictions as set forth in subparagraphs (a)
 and (c) of the Commercial Computer Software - Restricted
 Rights clause in FAR 52.227-19.
  
 Gaussian, Inc.
 340 Quinnipiac St., Bldg. 40, Wallingford CT 06492
  
  
 ---------------------------------------------------------------
 Warning -- This program may not be used in any manner that
 competes with the business of Gaussian, Inc. or will provide
 assistance to any competitor of Gaussian, Inc.  The licensee
 of this program is prohibited from giving any competitor of
 Gaussian, Inc. access to this program.  By using this program,
 the user acknowledges that Gaussian, Inc. is engaged in the
 business of creating and licensing software in the field of
 computational chemistry and represents and warrants to the
 licensee that it is not a competitor of Gaussian, Inc. and that
 it will not use this program in any manner prohibited above.
 ---------------------------------------------------------------
  

 Cite this work as:
 Gaussian 16, Revision B.01,
 M. J. Frisch, G. W. Trucks, H. B. Schlegel, G. E. Scuseria, 
 M. A. Robb, J. R. Cheeseman, G. Scalmani, V. Barone, 
 G. A. Petersson, H. Nakatsuji, X. Li, M. Caricato, A. V. Marenich, 
 J. Bloino, B. G. Janesko, R. Gomperts, B. Mennucci, H. P. Hratchian, 
 J. V. Ortiz, A. F. Izmaylov, J. L. Sonnenberg, D. Williams-Young, 
 F. Ding, F. Lipparini, F. Egidi, J. Goings, B. Peng, A. Petrone, 
 T. Henderson, D. Ranasinghe, V. G. Zakrzewski, J. Gao, N. Rega, 
 G. Zheng, W. Liang, M. Hada, M. Ehara, K. Toyota, R. Fukuda, 
 J. Hasegawa, M. Ishida, T. Nakajima, Y. Honda, O. Kitao, H. Nakai, 
 T. Vreven, K. Throssell, J. A. Montgomery, Jr., J. E. Peralta, 
 F. Ogliaro, M. J. Bearpark, J. J. Heyd, E. N. Brothers, K. N. Kudin, 
 V. N. Staroverov, T. A. Keith, R. Kobayashi, J. Normand, 
 K. Raghavachari, A. P. Rendell, J. C. Burant, S. S. Iyengar, 
 J. Tomasi, M. Cossi, J. M. Millam, M. Klene, C. Adamo, R. Cammi, 
 J. W. Ochterski, R. L. Martin, K. Morokuma, O. Farkas, 
 J. B. Foresman, and D. J. Fox, Gaussian, Inc., Wallingford CT, 2016.
 
 ******************************************
 Gaussian 16:  ES64L-G16RevB.01 20-Dec-2017
                 4-Aug-2022 
 ******************************************
 %nprocshared=4
 Will use up to    4 processors via shared memory.
 %mem=8000mb
 ----------------------------------------------------------------------
 #T wB97XD/def2svpp opt=tight freq int(grid=ultrafine) scf=(verytight,q
 c)
 ----------------------------------------------------------------------
 --------------
 Comment gs min
 --------------
 Symbolic Z-matrix:
 Charge =  0 Multiplicity = 1
 C                     0.90818   0.01681   0.0623 
 C                     2.43928   0.03697   0.0388 
 C                     2.96003  -0.61347  -1.24547 
 C                     2.9525    1.47532   0.15083 
 S                     3.06676  -0.90899   1.48039 
 H                     0.50088   0.58409  -0.78401 
 H                     0.50839   0.46851   0.97656 
 H                     0.51315  -1.00335  -0.01381 
 H                     2.61046  -0.06269  -2.12742 
 H                     2.60887  -1.64703  -1.35012 
 H                     4.05559  -0.62128  -1.28251 
 H                     2.60007   2.08035  -0.69301 
 H                     4.0482    1.51759   0.14411 
 H                     2.59927   1.96334   1.06668 
 H                     2.50297  -2.08317   1.16201 
 

 GradGradGradGradGradGradGradGradGradGradGradGradGradGradGradGradGradGrad
 Initialization pass.
                           ----------------------------
                           !    Initial Parameters    !
                           ! (Angstroms and Degrees)  !
 --------------------------                            --------------------------
 ! Name  Definition              Value          Derivative Info.                !
 --------------------------------------------------------------------------------
 ! R1    R(1,2)                  1.5314         estimate D2E/DX2                !
 ! R2    R(1,6)                  1.0972         estimate D2E/DX2                !
 ! R3    R(1,7)                  1.0953         estimate D2E/DX2                !
 ! R4    R(1,8)                  1.0966         estimate D2E/DX2                !
 ! R5    R(2,3)                  1.5309         estimate D2E/DX2                !
 ! R6    R(2,4)                  1.5313         estimate D2E/DX2                !
 ! R7    R(2,5)                  1.8349         estimate D2E/DX2                !
 ! R8    R(3,9)                  1.097          estimate D2E/DX2                !
 ! R9    R(3,10)                 1.0966         estimate D2E/DX2                !
 ! R10   R(3,11)                 1.0962         estimate D2E/DX2                !
 ! R11   R(4,12)                 1.0965         estimate D2E/DX2                !
 ! R12   R(4,13)                 1.0965         estimate D2E/DX2                !
 ! R13   R(4,14)                 1.0962         estimate D2E/DX2                !
 ! R14   R(5,15)                 1.3409         estimate D2E/DX2                !
 ! A1    A(2,1,6)              110.6394         estimate D2E/DX2                !
 ! A2    A(2,1,7)              111.8577         estimate D2E/DX2                !
 ! A3    A(2,1,8)              111.7979         estimate D2E/DX2                !
 ! A4    A(6,1,7)              107.1641         estimate D2E/DX2                !
 ! A5    A(6,1,8)              107.0802         estimate D2E/DX2                !
 ! A6    A(7,1,8)              108.0645         estimate D2E/DX2                !
 ! A7    A(1,2,3)              110.3268         estimate D2E/DX2                !
 ! A8    A(1,2,4)              110.2632         estimate D2E/DX2                !
 ! A9    A(1,2,5)              108.8482         estimate D2E/DX2                !
 ! A10   A(3,2,4)              110.2711         estimate D2E/DX2                !
 ! A11   A(3,2,5)              108.8885         estimate D2E/DX2                !
 ! A12   A(4,2,5)              108.1897         estimate D2E/DX2                !
 ! A13   A(2,3,9)              110.6548         estimate D2E/DX2                !
 ! A14   A(2,3,10)             111.8135         estimate D2E/DX2                !
 ! A15   A(2,3,11)             111.7979         estimate D2E/DX2                !
 ! A16   A(9,3,10)             107.1247         estimate D2E/DX2                !
 ! A17   A(9,3,11)             107.1506         estimate D2E/DX2                !
 ! A18   A(10,3,11)            108.0652         estimate D2E/DX2                !
 ! A19   A(2,4,12)             110.7486         estimate D2E/DX2                !
 ! A20   A(2,4,13)             111.7566         estimate D2E/DX2                !
 ! A21   A(2,4,14)             111.7954         estimate D2E/DX2                !
 ! A22   A(12,4,13)            107.1683         estimate D2E/DX2                !
 ! A23   A(12,4,14)            107.0816         estimate D2E/DX2                !
 ! A24   A(13,4,14)            108.0554         estimate D2E/DX2                !
 ! A25   A(2,5,15)              96.9566         estimate D2E/DX2                !
 ! D1    D(6,1,2,3)            -61.1399         estimate D2E/DX2                !
 ! D2    D(6,1,2,4)             60.9065         estimate D2E/DX2                !
 ! D3    D(6,1,2,5)            179.4378         estimate D2E/DX2                !
 ! D4    D(7,1,2,3)            179.4625         estimate D2E/DX2                !
 ! D5    D(7,1,2,4)            -58.4911         estimate D2E/DX2                !
 ! D6    D(7,1,2,5)             60.0402         estimate D2E/DX2                !
 ! D7    D(8,1,2,3)             58.1127         estimate D2E/DX2                !
 ! D8    D(8,1,2,4)           -179.8409         estimate D2E/DX2                !
 ! D9    D(8,1,2,5)            -61.3096         estimate D2E/DX2                !
 ! D10   D(1,2,3,9)             61.2398         estimate D2E/DX2                !
 ! D11   D(1,2,3,10)           -58.0895         estimate D2E/DX2                !
 ! D12   D(1,2,3,11)          -179.4086         estimate D2E/DX2                !
 ! D13   D(4,2,3,9)            -60.8019         estimate D2E/DX2                !
 ! D14   D(4,2,3,10)           179.8688         estimate D2E/DX2                !
 ! D15   D(4,2,3,11)            58.5497         estimate D2E/DX2                !
 ! D16   D(5,2,3,9)           -179.3623         estimate D2E/DX2                !
 ! D17   D(5,2,3,10)            61.3084         estimate D2E/DX2                !
 ! D18   D(5,2,3,11)           -60.0107         estimate D2E/DX2                !
 ! D19   D(1,2,4,12)           -61.0255         estimate D2E/DX2                !
 ! D20   D(1,2,4,13)           179.5647         estimate D2E/DX2                !
 ! D21   D(1,2,4,14)            58.3004         estimate D2E/DX2                !
 ! D22   D(3,2,4,12)            61.0537         estimate D2E/DX2                !
 ! D23   D(3,2,4,13)           -58.356          estimate D2E/DX2                !
 ! D24   D(3,2,4,14)          -179.6204         estimate D2E/DX2                !
 ! D25   D(5,2,4,12)          -179.9592         estimate D2E/DX2                !
 ! D26   D(5,2,4,13)            60.6311         estimate D2E/DX2                !
 ! D27   D(5,2,4,14)           -60.6333         estimate D2E/DX2                !
 ! D28   D(1,2,5,15)            60.1627         estimate D2E/DX2                !
 ! D29   D(3,2,5,15)           -60.1518         estimate D2E/DX2                !
 ! D30   D(4,2,5,15)           179.9891         estimate D2E/DX2                !
 --------------------------------------------------------------------------------
 Number of steps in this run=     79 maximum allowed number of steps=    100.
 GradGradGradGradGradGradGradGradGradGradGradGradGradGradGradGradGradGrad

                    Distance matrix (angstroms):
                    1          2          3          4          5
     1  C    0.000000
     2  C    1.531413   0.000000
     3  C    2.513484   1.530883   0.000000
     4  C    2.512834   1.531273   2.512519   0.000000
     5  S    2.743639   1.834871   2.743909   2.732347   0.000000
     6  H    1.097242   2.175719   2.773899   2.771039   3.733703
     7  H    1.095325   2.189511   3.481183   2.769327   2.949001
     8  H    1.096617   2.189751   2.766987   3.481571   2.960146
     9  H    2.774698   2.175257   1.096993   2.769998   3.733728
    10  H    2.766883   2.189456   1.096591   3.481379   2.960769
    11  H    3.481647   2.188975   1.096214   2.768935   2.948589
    12  H    2.773298   2.176419   2.773346   1.096510   3.725268
    13  H    3.481201   2.189052   2.767031   1.096536   2.938904
    14  H    2.767227   2.189300   3.480824   1.096228   2.939385
    15  H    2.857032   2.400136   2.857426   3.726582   1.340867
                    6          7          8          9         10
     6  H    0.000000
     7  H    1.764376   0.000000
     8  H    1.764461   1.774043   0.000000
     9  H    2.583293   3.786233   3.122643   0.000000
    10  H    3.121218   3.781662   2.567507   1.764747   0.000000
    11  H    3.786474   4.344383   3.782124   1.764737   1.774749
    12  H    2.579472   3.124199   3.784938   2.578810   3.784869
    13  H    3.783690   3.784679   4.344727   3.118370   3.784074
    14  H    3.119395   2.571851   3.784258   3.782486   4.344627
    15  H    3.861300   3.244043   2.551068   3.861896   2.551907
                   11         12         13         14         15
    11  H    0.000000
    12  H    3.124877   0.000000
    13  H    2.571004   1.764809   0.000000
    14  H    3.784154   1.763576   1.774606   0.000000
    15  H    3.243984   4.559104   4.048374   4.048778   0.000000
 Framework group  C1[X(C4H10S)]
 Deg. of freedom    39
                         Standard orientation:                         
 ---------------------------------------------------------------------
 Center     Atomic      Atomic             Coordinates (Angstroms)
 Number     Number       Type             X           Y           Z
 ---------------------------------------------------------------------
      1          6           0        0.775210   -0.765249   -1.254133
      2          6           0        0.338977   -0.002663    0.000215
      3          6           0        0.776011   -0.755805    1.259334
      4          6           0        0.930465    1.409749   -0.005289
      5         16           0       -1.490155    0.142353   -0.000365
      6          1           0        1.867781   -0.860357   -1.288532
      7          1           0        0.466368   -0.252244   -2.171290
      8          1           0        0.362595   -1.781016   -1.277247
      9          1           0        1.868444   -0.849236    1.294737
     10          1           0        0.363896   -1.771540    1.290242
     11          1           0        0.466307   -0.235351    2.173060
     12          1           0        2.026324    1.371973   -0.005864
     13          1           0        0.626756    1.981038    0.880025
     14          1           0        0.627277    1.974527   -0.894569
     15          1           0       -1.757242   -1.171635    0.004505
 ---------------------------------------------------------------------
 Rotational constants (GHZ):           4.4705347           3.0034914           2.9739578
    94 basis functions,   177 primitive gaussians,    99 cartesian basis functions
    25 alpha electrons       25 beta electrons
       nuclear repulsion energy       244.8667962019 Hartrees.
 NAtoms=   15 NActive=   15 NUniq=   15 SFac= 1.00D+00 NAtFMM=   60 NAOKFM=F Big=F
 Nuclear repulsion after empirical dispersion term =      244.8586208389 Hartrees.
   1 Symmetry operations used in ECPInt.
 ECPInt:  NShTT=    1378 NPrTT=    5776 LenC2=    1376 LenP2D=    4789.
 LDataN:  DoStor=T MaxTD1= 4 Len=   56
 ExpMin= 1.22D-01 ExpMax= 9.18D+03 ExpMxC= 1.38D+03 IAcc=3 IRadAn=         5 AccDes= 0.00D+00
 Harris functional with IExCor= 4639 and IRadAn=       5 diagonalized for initial guess.
 HarFok:  IExCor= 4639 AccDes= 0.00D+00 IRadAn=         5 IDoV= 1 UseB2=F ITyADJ=14
 ICtDFT=  3500011 ScaDFX=  1.000000  1.000000  1.000000  1.000000
 FoFCou: FMM=F IPFlag=           0 FMFlag=      100000 FMFlg1=           0
         NFxFlg=           0 DoJE=T BraDBF=F KetDBF=T FulRan=T
         wScrn=  0.000000 ICntrl=       500 IOpCl=  0 I1Cent=   200000004 NGrid=           0
         NMat0=    1 NMatS0=      1 NMatT0=    0 NMatD0=    1 NMtDS0=    0 NMtDT0=    0
 Petite list used in FoFCou.
     Accept linear search using points  2 and  3.
     Accept linear search using points  1 and  2.
     Accept linear search using points  1 and  2.
     Minimum is close to point  2 DX= -1.33D-04 DF= -2.27D-13 DXR=  1.33D-04 DFR=  1.82D-08 which will be used.
 SCF Done:  E(RwB97XD) =  -556.334762056     a.u. after    7 cycles
            Convg  =    0.4109D-09                    31 Fock formations.
              S**2 =  0.0000                  -V/T =  2.0048

 **********************************************************************

            Population analysis using the SCF Density.

 **********************************************************************

 Orbital symmetries:
       Occupied  (A) (A) (A) (A) (A) (A) (A) (A) (A) (A) (A) (A)
                 (A) (A) (A) (A) (A) (A) (A) (A) (A) (A) (A) (A)
                 (A)
       Virtual   (A) (A) (A) (A) (A) (A) (A) (A) (A) (A) (A) (A)
                 (A) (A) (A) (A) (A) (A) (A) (A) (A) (A) (A) (A)
                 (A) (A) (A) (A) (A) (A) (A) (A) (A) (A) (A) (A)
                 (A) (A) (A) (A) (A) (A) (A) (A) (A) (A) (A) (A)
                 (A) (A) (A) (A) (A) (A) (A) (A) (A) (A) (A) (A)
                 (A) (A) (A) (A) (A) (A) (A) (A) (A)
 The electronic state is 1-A.
 Alpha  occ. eigenvalues --  -88.98883 -10.34067 -10.28967 -10.28637 -10.28632
 Alpha  occ. eigenvalues --   -8.04271  -5.99736  -5.99348  -5.98649  -0.93156
 Alpha  occ. eigenvalues --   -0.80047  -0.78522  -0.78362  -0.63444  -0.55363
 Alpha  occ. eigenvalues --   -0.53680  -0.53555  -0.48684  -0.48134  -0.45541
 Alpha  occ. eigenvalues --   -0.45049  -0.42657  -0.42516  -0.38507  -0.30825
 Alpha virt. eigenvalues --    0.10174   0.14087   0.15500   0.19079   0.19639
 Alpha virt. eigenvalues --    0.20078   0.20304   0.21128   0.24236   0.24574
 Alpha virt. eigenvalues --    0.26916   0.27445   0.29181   0.29440   0.41209
 Alpha virt. eigenvalues --    0.46585   0.47078   0.48106   0.51962   0.55587
 Alpha virt. eigenvalues --    0.58735   0.64720   0.66093   0.68552   0.71544
 Alpha virt. eigenvalues --    0.73372   0.73759   0.74197   0.74341   0.76087
 Alpha virt. eigenvalues --    0.77680   0.80027   0.80112   0.80975   0.81242
 Alpha virt. eigenvalues --    0.83988   0.84233   0.84767   0.88702   0.89643
 Alpha virt. eigenvalues --    0.90344   0.94103   0.99944   1.02641   1.09178
 Alpha virt. eigenvalues --    1.17789   1.21717   1.22523   1.29453   1.51682
 Alpha virt. eigenvalues --    1.52225   1.78948   1.88950   1.89187   1.98464
 Alpha virt. eigenvalues --    2.00826   2.01193   2.10022   2.10096   2.16326
 Alpha virt. eigenvalues --    2.23794   2.23834   2.24375   2.26073   2.52253
 Alpha virt. eigenvalues --    2.53895   2.53985   2.73667   2.73813
          Condensed to atoms (all electrons):
 Mulliken charges:
               1
     1  C   -0.228694
     2  C   -0.365473
     3  C   -0.228748
     4  C   -0.253665
     5  S   -0.151171
     6  H    0.111244
     7  H    0.127257
     8  H    0.111855
     9  H    0.111325
    10  H    0.111937
    11  H    0.127297
    12  H    0.121987
    13  H    0.130163
    14  H    0.130104
    15  H    0.144581
 Sum of Mulliken charges =   0.00000
 Mulliken charges with hydrogens summed into heavy atoms:
               1
     1  C    0.121663
     2  C   -0.365473
     3  C    0.121812
     4  C    0.128589
     5  S   -0.006590
 Electronic spatial extent (au):  <R**2>=            587.6146
 Charge=              0.0000 electrons
 Dipole moment (field-independent basis, Debye):
    X=              1.4324    Y=             -0.8710    Z=              0.0025  Tot=              1.6764
   1 Symmetry operations used in ECPInt.
 ECPInt:  NShTT=    1378 NPrTT=    5776 LenC2=    1376 LenP2D=    4789.
 LDataN:  DoStor=T MaxTD1= 5 Len=  102
 Calling FoFJK, ICntrl=      2127 FMM=F ISym2X=0 I1Cent= 0 IOpClX= 0 NMat=1 NMatS=1 NMatT=0.

 GradGradGradGradGradGradGradGradGradGradGradGradGradGradGradGradGradGrad
 FormGI is forming the generalized inverse of G from B-inverse, IUseBI=4.
 Internal  Forces:  Max     0.006682863 RMS     0.002659863
 Step number   1 out of a maximum of   79
 All quantities printed in internal units (Hartrees-Bohrs-Radians)
 Mixed Optimization -- RFO/linear search
 Second derivative matrix not updated -- first step.
 ITU=  0
     Eigenvalues ---    0.00230   0.00350   0.00352   0.00357   0.04542
     Eigenvalues ---    0.05339   0.05348   0.05350   0.05517   0.05526
     Eigenvalues ---    0.05530   0.06002   0.06113   0.16000   0.16000
     Eigenvalues ---    0.16000   0.16000   0.16000   0.16000   0.16000
     Eigenvalues ---    0.16000   0.16000   0.16000   0.16107   0.16161
     Eigenvalues ---    0.23552   0.26353   0.29293   0.29306   0.29342
     Eigenvalues ---    0.33989   0.34017   0.34059   0.34062   0.34068
     Eigenvalues ---    0.34071   0.34103   0.34104   0.34204
 Linear search not attempted -- first point.
 Iteration  1 RMS(Cart)=  0.02276695 RMS(Int)=  0.00028395
 Iteration  2 RMS(Cart)=  0.00039338 RMS(Int)=  0.00013122
 Iteration  3 RMS(Cart)=  0.00000003 RMS(Int)=  0.00013122
 Variable       Old X    -DE/DX   Delta X   Delta X   Delta X     New X
                                 (Linear)    (Quad)   (Total)
    R1        2.89395   0.00050   0.00000   0.00170   0.00170   2.89565
    R2        2.07349   0.00630   0.00000   0.01840   0.01840   2.09189
    R3        2.06986   0.00507   0.00000   0.01472   0.01472   2.08459
    R4        2.07230   0.00492   0.00000   0.01434   0.01434   2.08664
    R5        2.89295   0.00075   0.00000   0.00254   0.00254   2.89549
    R6        2.89369  -0.00191   0.00000  -0.00646  -0.00646   2.88722
    R7        3.46740   0.00606   0.00000   0.02548   0.02548   3.49288
    R8        2.07302   0.00645   0.00000   0.01882   0.01882   2.09184
    R9        2.07226   0.00493   0.00000   0.01436   0.01436   2.08661
   R10        2.07154   0.00449   0.00000   0.01308   0.01308   2.08463
   R11        2.07210   0.00523   0.00000   0.01525   0.01525   2.08735
   R12        2.07215   0.00502   0.00000   0.01462   0.01462   2.08677
   R13        2.07157   0.00523   0.00000   0.01523   0.01523   2.08680
   R14        2.53387   0.00668   0.00000   0.02513   0.02513   2.55900
    A1        1.93102  -0.00110   0.00000  -0.00340  -0.00339   1.92763
    A2        1.95228  -0.00205   0.00000  -0.01357  -0.01365   1.93864
    A3        1.95124  -0.00117   0.00000  -0.00968  -0.00977   1.94147
    A4        1.87037   0.00217   0.00000   0.01796   0.01797   1.88834
    A5        1.86890   0.00138   0.00000   0.01027   0.01026   1.87917
    A6        1.88608   0.00109   0.00000   0.00061   0.00044   1.88653
    A7        1.92557  -0.00171   0.00000   0.00354   0.00320   1.92877
    A8        1.92446   0.00078   0.00000  -0.00331  -0.00317   1.92129
    A9        1.89976   0.00224   0.00000   0.02440   0.02394   1.92370
   A10        1.92459   0.00079   0.00000  -0.00337  -0.00324   1.92135
   A11        1.90046   0.00219   0.00000   0.02387   0.02340   1.92387
   A12        1.88827  -0.00429   0.00000  -0.04529  -0.04508   1.84319
   A13        1.93129  -0.00112   0.00000  -0.00361  -0.00361   1.92768
   A14        1.95151  -0.00118   0.00000  -0.00983  -0.00992   1.94160
   A15        1.95124  -0.00192   0.00000  -0.01257  -0.01265   1.93859
   A16        1.86968   0.00135   0.00000   0.00969   0.00968   1.87936
   A17        1.87013   0.00214   0.00000   0.01802   0.01803   1.88816
   A18        1.88609   0.00104   0.00000   0.00044   0.00028   1.88638
   A19        1.93293  -0.00371   0.00000  -0.02238  -0.02245   1.91048
   A20        1.95052  -0.00079   0.00000  -0.00521  -0.00525   1.94527
   A21        1.95120  -0.00093   0.00000  -0.00580  -0.00584   1.94536
   A22        1.87044   0.00240   0.00000   0.01498   0.01491   1.88535
   A23        1.86893   0.00253   0.00000   0.01625   0.01618   1.88511
   A24        1.88592   0.00085   0.00000   0.00442   0.00440   1.89033
   A25        1.69221  -0.00333   0.00000  -0.02052  -0.02052   1.67169
    D1       -1.06709   0.00101   0.00000   0.01675   0.01676  -1.05033
    D2        1.06302   0.00138   0.00000   0.01265   0.01270   1.07572
    D3        3.13178  -0.00203   0.00000  -0.02968  -0.02975   3.10203
    D4        3.13221   0.00036   0.00000   0.00528   0.00535   3.13756
    D5       -1.02086   0.00074   0.00000   0.00119   0.00129  -1.01957
    D6        1.04790  -0.00267   0.00000  -0.04114  -0.04117   1.00673
    D7        1.01426   0.00124   0.00000   0.02107   0.02105   1.03530
    D8       -3.13882   0.00162   0.00000   0.01698   0.01699  -3.12183
    D9       -1.07005  -0.00179   0.00000  -0.02535  -0.02547  -1.09552
   D10        1.06884  -0.00106   0.00000  -0.01797  -0.01798   1.05086
   D11       -1.01385  -0.00124   0.00000  -0.02130  -0.02128  -1.03513
   D12       -3.13127  -0.00038   0.00000  -0.00592  -0.00598  -3.13725
   D13       -1.06119  -0.00142   0.00000  -0.01391  -0.01396  -1.07515
   D14        3.13930  -0.00160   0.00000  -0.01725  -0.01726   3.12204
   D15        1.02188  -0.00074   0.00000  -0.00186  -0.00196   1.01992
   D16       -3.13046   0.00201   0.00000   0.02879   0.02887  -3.10160
   D17        1.07003   0.00183   0.00000   0.02545   0.02557   1.09560
   D18       -1.04738   0.00269   0.00000   0.04084   0.04087  -1.00652
   D19       -1.06510   0.00054   0.00000  -0.00013  -0.00001  -1.06511
   D20        3.13400   0.00052   0.00000  -0.00057  -0.00047   3.13352
   D21        1.01753   0.00063   0.00000   0.00154   0.00167   1.01920
   D22        1.06559  -0.00057   0.00000  -0.00013  -0.00025   1.06534
   D23       -1.01850  -0.00059   0.00000  -0.00058  -0.00071  -1.01922
   D24       -3.13497  -0.00047   0.00000   0.00153   0.00143  -3.13353
   D25       -3.14088  -0.00004   0.00000  -0.00048  -0.00048  -3.14136
   D26        1.05821  -0.00006   0.00000  -0.00093  -0.00095   1.05727
   D27       -1.05825   0.00005   0.00000   0.00118   0.00120  -1.05705
   D28        1.05004   0.00028   0.00000   0.01773   0.01812   1.06816
   D29       -1.04985  -0.00028   0.00000  -0.01532  -0.01571  -1.06556
   D30        3.14140   0.00001   0.00000   0.00141   0.00141  -3.14038
         Item               Value     Threshold  Converged?
 Maximum Force            0.006683     0.000015     NO 
 RMS     Force            0.002660     0.000010     NO 
 Maximum Displacement     0.065157     0.000060     NO 
 RMS     Displacement     0.022773     0.000040     NO 
 GradGradGradGradGradGradGradGradGradGradGradGradGradGradGradGradGradGrad

                    Distance matrix (angstroms):
                    1          2          3          4          5
     1  C    0.000000
     2  C    1.532314   0.000000
     3  C    2.518124   1.532226   0.000000
     4  C    2.507994   1.527853   2.507979   0.000000
     5  S    2.778883   1.848353   2.778972   2.696345   0.000000
     6  H    1.106981   2.181378   2.772377   2.773423   3.771201
     7  H    1.103115   2.186442   3.486223   2.755293   2.958485
     8  H    1.104203   2.189310   2.776361   3.479653   3.007438
     9  H    2.772635   2.181319   1.106953   2.773182   3.771246
    10  H    2.776361   2.189311   1.104188   3.479675   3.007704
    11  H    3.486239   2.186347   1.103136   2.755414   2.958472
    12  H    2.751344   2.163105   2.751471   1.104579   3.699869
    13  H    3.482361   2.188154   2.760194   1.104273   2.885842
    14  H    2.760252   2.188228   3.482375   1.104288   2.885802
    15  H    2.887592   2.398832   2.886199   3.699390   1.354164
                    6          7          8          9         10
     6  H    0.000000
     7  H    1.790202   0.000000
     8  H    1.785117   1.786777   0.000000
     9  H    2.565964   3.788100   3.130565   0.000000
    10  H    3.130110   3.792742   2.576890   1.785208   0.000000
    11  H    3.787996   4.343280   3.792655   1.790082   1.786684
    12  H    2.555085   3.103909   3.770253   2.554985   3.770316
    13  H    3.790968   3.776394   4.345352   3.126638   3.777454
    14  H    3.127057   2.546723   3.777454   3.790818   4.345429
    15  H    3.902639   3.254088   2.591993   3.901721   2.590603
                   11         12         13         14         15
    11  H    0.000000
    12  H    3.104330   0.000000
    13  H    2.546805   1.787254   0.000000
    14  H    3.776496   1.787108   1.790244   0.000000
    15  H    3.251727   4.539273   4.006447   4.007193   0.000000
 Framework group  C1[X(C4H10S)]
 Deg. of freedom    39
                         Standard orientation:                         
 ---------------------------------------------------------------------
 Center     Atomic      Atomic             Coordinates (Angstroms)
 Number     Number       Type             X           Y           Z
 ---------------------------------------------------------------------
      1          6           0        0.842141   -0.718024   -1.260281
      2          6           0        0.342774   -0.003728    0.000036
      3          6           0        0.842126   -0.722264    1.257840
      4          6           0        0.816734    1.448750    0.002447
      5         16           0       -1.503868    0.075769    0.000007
      6          1           0        1.948779   -0.731899   -1.284069
      7          1           0        0.484370   -0.210452   -2.172002
      8          1           0        0.493106   -1.765148   -1.291426
      9          1           0        1.948735   -0.735772    1.281891
     10          1           0        0.493307   -1.769544    1.285460
     11          1           0        0.484071   -0.217935    2.171272
     12          1           0        1.920988    1.475549    0.002345
     13          1           0        0.461980    1.987906    0.898483
     14          1           0        0.461991    1.990974   -0.891758
     15          1           0       -1.698087   -1.264394   -0.000556
 ---------------------------------------------------------------------
 Rotational constants (GHZ):           4.4793332           2.9766447           2.9563857
    94 basis functions,   177 primitive gaussians,    99 cartesian basis functions
    25 alpha electrons       25 beta electrons
       nuclear repulsion energy       244.1707986821 Hartrees.
 NAtoms=   15 NActive=   15 NUniq=   15 SFac= 1.00D+00 NAtFMM=   60 NAOKFM=F Big=F
 Nuclear repulsion after empirical dispersion term =      244.1625922978 Hartrees.
   1 Symmetry operations used in ECPInt.
 ECPInt:  NShTT=    1378 NPrTT=    5776 LenC2=    1376 LenP2D=    4773.
 LDataN:  DoStor=T MaxTD1= 4 Len=   56
 Initial guess from the checkpoint file:  "/scratch/user/peterchao1/peterchao1/6097808_1659647584000000839197405/Gau-85701.chk"
 B after Tr=    -0.000000    0.000000    0.000000
         Rot=    0.999551   -0.002703    0.000054   -0.029849 Ang=  -3.43 deg.
 ExpMin= 1.22D-01 ExpMax= 9.18D+03 ExpMxC= 1.38D+03 IAcc=3 IRadAn=         5 AccDes= 0.00D+00
 Harris functional with IExCor= 4639 and IRadAn=       5 diagonalized for initial guess.
 HarFok:  IExCor= 4639 AccDes= 0.00D+00 IRadAn=         5 IDoV= 1 UseB2=F ITyADJ=14
 ICtDFT=  3500011 ScaDFX=  1.000000  1.000000  1.000000  1.000000
 FoFCou: FMM=F IPFlag=           0 FMFlag=      100000 FMFlg1=           0
         NFxFlg=           0 DoJE=T BraDBF=F KetDBF=T FulRan=T
         wScrn=  0.000000 ICntrl=       500 IOpCl=  0 I1Cent=   200000004 NGrid=           0
         NMat0=    1 NMatS0=      1 NMatT0=    0 NMatD0=    1 NMtDS0=    0 NMtDT0=    0
 Petite list used in FoFCou.
     Accept linear search using points  3 and  4.
     Minimum is close to point  3 DX=  2.17D-02 DF= -3.34D-08 DXR=  1.93D-02 DFR=  3.73D-04 which will be used.
     Minimum is close to point  2 DX=  1.12D-05 DF=  0.00D+00 DXR=  1.12D-05 DFR=  0.00D+00 which will be used.
 SCF Done:  E(RwB97XD) =  -556.335891389     a.u. after    5 cycles
            Convg  =    0.5614D-09                    29 Fock formations.
              S**2 =  0.0000                  -V/T =  2.0051
   1 Symmetry operations used in ECPInt.
 ECPInt:  NShTT=    1378 NPrTT=    5776 LenC2=    1376 LenP2D=    4773.
 LDataN:  DoStor=T MaxTD1= 5 Len=  102
 Calling FoFJK, ICntrl=      2127 FMM=F ISym2X=0 I1Cent= 0 IOpClX= 0 NMat=1 NMatS=1 NMatT=0.

 GradGradGradGradGradGradGradGradGradGradGradGradGradGradGradGradGradGrad
 Using GEDIIS/GDIIS optimizer.
 FormGI is forming the generalized inverse of G from B-inverse, IUseBI=4.
 Internal  Forces:  Max     0.002972708 RMS     0.000585073
 Step number   2 out of a maximum of   79
 All quantities printed in internal units (Hartrees-Bohrs-Radians)
 Mixed Optimization -- En-DIIS/RFO-DIIS
 Trust test= 9.07D-01 RLast= 1.38D-01 DXMaxT set to 4.14D-01
 ITU=  1  0
 Use linear search instead of GDIIS.
     Eigenvalues ---    0.00230   0.00350   0.00352   0.00357   0.04566
     Eigenvalues ---    0.05415   0.05478   0.05486   0.05565   0.05574
     Eigenvalues ---    0.05671   0.06009   0.06438   0.14933   0.15925
     Eigenvalues ---    0.16000   0.16000   0.16000   0.16000   0.16000
     Eigenvalues ---    0.16000   0.16000   0.16000   0.16194   0.17573
     Eigenvalues ---    0.23140   0.26099   0.29294   0.29336   0.29713
     Eigenvalues ---    0.33894   0.34003   0.34060   0.34061   0.34067
     Eigenvalues ---    0.34089   0.34104   0.34190   0.35499
 Quartic linear search produced a step of -0.06182.
 Iteration  1 RMS(Cart)=  0.00571505 RMS(Int)=  0.00003475
 Iteration  2 RMS(Cart)=  0.00003290 RMS(Int)=  0.00000894
 Iteration  3 RMS(Cart)=  0.00000000 RMS(Int)=  0.00000894
 Variable       Old X    -DE/DX   Delta X   Delta X   Delta X     New X
                                 (Linear)    (Quad)   (Total)
    R1        2.89565  -0.00068  -0.00011  -0.00200  -0.00211   2.89355
    R2        2.09189  -0.00062  -0.00114   0.00030  -0.00084   2.09105
    R3        2.08459  -0.00019  -0.00091   0.00108   0.00017   2.08475
    R4        2.08664   0.00008  -0.00089   0.00177   0.00088   2.08753
    R5        2.89549  -0.00065  -0.00016  -0.00181  -0.00197   2.89352
    R6        2.88722   0.00297   0.00040   0.00881   0.00921   2.89643
    R7        3.49288   0.00062  -0.00157   0.00523   0.00366   3.49654
    R8        2.09184  -0.00060  -0.00116   0.00038  -0.00078   2.09106
    R9        2.08661   0.00009  -0.00089   0.00180   0.00091   2.08753
   R10        2.08463  -0.00020  -0.00081   0.00088   0.00007   2.08470
   R11        2.08735   0.00013  -0.00094   0.00202   0.00107   2.08843
   R12        2.08677  -0.00025  -0.00090   0.00089  -0.00002   2.08676
   R13        2.08680  -0.00026  -0.00094   0.00094  -0.00000   2.08680
   R14        2.55900   0.00014  -0.00155   0.00323   0.00167   2.56067
    A1        1.92763  -0.00086   0.00021  -0.00545  -0.00525   1.92238
    A2        1.93864   0.00002   0.00084  -0.00108  -0.00023   1.93841
    A3        1.94147   0.00010   0.00060  -0.00076  -0.00016   1.94132
    A4        1.88834   0.00050  -0.00111   0.00538   0.00426   1.89260
    A5        1.87917   0.00034  -0.00063   0.00254   0.00190   1.88106
    A6        1.88653  -0.00006  -0.00003  -0.00023  -0.00025   1.88628
    A7        1.92877   0.00012  -0.00020   0.00185   0.00165   1.93041
    A8        1.92129   0.00018   0.00020   0.00385   0.00402   1.92531
    A9        1.92370  -0.00029  -0.00148  -0.00242  -0.00387   1.91983
   A10        1.92135   0.00017   0.00020   0.00377   0.00395   1.92531
   A11        1.92387  -0.00030  -0.00145  -0.00260  -0.00402   1.91985
   A12        1.84319   0.00010   0.00279  -0.00468  -0.00190   1.84129
   A13        1.92768  -0.00087   0.00022  -0.00554  -0.00532   1.92236
   A14        1.94160   0.00009   0.00061  -0.00086  -0.00024   1.94135
   A15        1.93859   0.00002   0.00078  -0.00089  -0.00011   1.93848
   A16        1.87936   0.00033  -0.00060   0.00231   0.00171   1.88107
   A17        1.88816   0.00051  -0.00111   0.00550   0.00439   1.89255
   A18        1.88638  -0.00005  -0.00002  -0.00013  -0.00014   1.88624
   A19        1.91048   0.00066   0.00139   0.00208   0.00347   1.91395
   A20        1.94527  -0.00018   0.00032  -0.00200  -0.00167   1.94359
   A21        1.94536  -0.00020   0.00036  -0.00215  -0.00179   1.94357
   A22        1.88535  -0.00019  -0.00092   0.00111   0.00019   1.88554
   A23        1.88511  -0.00017  -0.00100   0.00139   0.00040   1.88551
   A24        1.89033   0.00008  -0.00027  -0.00025  -0.00053   1.88980
   A25        1.67169   0.00287   0.00127   0.01461   0.01588   1.68757
    D1       -1.05033  -0.00025  -0.00104  -0.00297  -0.00401  -1.05434
    D2        1.07572   0.00017  -0.00079   0.00556   0.00477   1.08049
    D3        3.10203   0.00023   0.00184   0.00070   0.00254   3.10457
    D4        3.13756  -0.00032  -0.00033  -0.00541  -0.00575   3.13181
    D5       -1.01957   0.00010  -0.00008   0.00312   0.00304  -1.01654
    D6        1.00673   0.00016   0.00254  -0.00174   0.00081   1.00754
    D7        1.03530  -0.00033  -0.00130  -0.00387  -0.00517   1.03013
    D8       -3.12183   0.00009  -0.00105   0.00466   0.00361  -3.11822
    D9       -1.09552   0.00015   0.00157  -0.00020   0.00138  -1.09414
   D10        1.05086   0.00024   0.00111   0.00256   0.00368   1.05454
   D11       -1.03513   0.00034   0.00132   0.00387   0.00519  -1.02995
   D12       -3.13725   0.00032   0.00037   0.00522   0.00560  -3.13165
   D13       -1.07515  -0.00018   0.00086  -0.00601  -0.00515  -1.08030
   D14        3.12204  -0.00009   0.00107  -0.00470  -0.00364   3.11840
   D15        1.01992  -0.00010   0.00012  -0.00335  -0.00323   1.01670
   D16       -3.10160  -0.00024  -0.00178  -0.00101  -0.00279  -3.10439
   D17        1.09560  -0.00014  -0.00158   0.00030  -0.00129   1.09431
   D18       -1.00652  -0.00016  -0.00253   0.00165  -0.00087  -1.00739
   D19       -1.06511  -0.00019   0.00000  -0.00362  -0.00363  -1.06874
   D20        3.13352  -0.00028   0.00003  -0.00509  -0.00507   3.12845
   D21        1.01920  -0.00010  -0.00010  -0.00188  -0.00199   1.01721
   D22        1.06534   0.00019   0.00002   0.00373   0.00376   1.06910
   D23       -1.01922   0.00011   0.00004   0.00226   0.00232  -1.01690
   D24       -3.13353   0.00028  -0.00009   0.00547   0.00539  -3.12814
   D25       -3.14136  -0.00001   0.00003  -0.00007  -0.00004  -3.14140
   D26        1.05727  -0.00009   0.00006  -0.00154  -0.00148   1.05579
   D27       -1.05705   0.00008  -0.00007   0.00167   0.00160  -1.05545
   D28        1.06816  -0.00012  -0.00112  -0.00266  -0.00380   1.06436
   D29       -1.06556   0.00011   0.00097  -0.00163  -0.00064  -1.06620
   D30       -3.14038  -0.00000  -0.00009  -0.00206  -0.00214   3.14067
         Item               Value     Threshold  Converged?
 Maximum Force            0.002973     0.000015     NO 
 RMS     Force            0.000585     0.000010     NO 
 Maximum Displacement     0.023496     0.000060     NO 
 RMS     Displacement     0.005716     0.000040     NO 
 GradGradGradGradGradGradGradGradGradGradGradGradGradGradGradGradGradGrad

                    Distance matrix (angstroms):
                    1          2          3          4          5
     1  C    0.000000
     2  C    1.531199   0.000000
     3  C    2.517788   1.531185   0.000000
     4  C    2.514594   1.532725   2.514582   0.000000
     5  S    2.775959   1.850288   2.775967   2.699706   0.000000
     6  H    1.106537   2.176236   2.769642   2.777373   3.766924
     7  H    1.103205   2.185363   3.485494   2.760188   2.954222
     8  H    1.104672   2.188569   2.774233   3.486190   3.002424
     9  H    2.769709   2.176209   1.106539   2.777249   3.766918
    10  H    2.774178   2.188583   1.104671   3.486198   3.002559
    11  H    3.485501   2.185380   1.103175   2.760297   2.954212
    12  H    2.764290   2.170354   2.764453   1.105147   3.705198
    13  H    3.486600   2.191247   2.765757   1.104264   2.886539
    14  H    2.765894   2.191246   3.486594   1.104287   2.886343
    15  H    2.900525   2.417427   2.901614   3.716673   1.355050
                    6          7          8          9         10
     6  H    0.000000
     7  H    1.792673   0.000000
     8  H    1.786374   1.787066   0.000000
     9  H    2.560452   3.785568   3.126903   0.000000
    10  H    3.126668   3.789580   2.572066   1.786377   0.000000
    11  H    3.785557   4.341774   3.789562   1.792617   1.787016
    12  H    2.566887   3.114088   3.784037   2.566940   3.784124
    13  H    3.793863   3.779110   4.348667   3.131969   3.782470
    14  H    3.132346   2.551565   3.782512   3.793849   4.348680
    15  H    3.915672   3.260556   2.601808   3.916545   2.603179
                   11         12         13         14         15
    11  H    0.000000
    12  H    3.114484   0.000000
    13  H    2.551570   1.787829   0.000000
    14  H    3.779145   1.787826   1.789892   0.000000
    15  H    3.262132   4.562643   4.018323   4.017638   0.000000
 Framework group  C1[X(C4H10S)]
 Deg. of freedom    39
                         Standard orientation:                         
 ---------------------------------------------------------------------
 Center     Atomic      Atomic             Coordinates (Angstroms)
 Number     Number       Type             X           Y           Z
 ---------------------------------------------------------------------
      1          6           0        0.836957   -0.727053   -1.258266
      2          6           0        0.346622   -0.005324    0.000007
      3          6           0        0.837189   -0.724697    1.259521
      4          6           0        0.824915    1.450863   -0.001396
      5         16           0       -1.501635    0.081345    0.000079
      6          1           0        1.943112   -0.746753   -1.279645
      7          1           0        0.479300   -0.220470   -2.170689
      8          1           0        0.480448   -1.772288   -1.284424
      9          1           0        1.943352   -0.744169    1.280806
     10          1           0        0.480859   -1.769942    1.287641
     11          1           0        0.479616   -0.216573    2.171083
     12          1           0        1.929694    1.479371   -0.001717
     13          1           0        0.469252    1.991882    0.893144
     14          1           0        0.468801    1.990287   -0.896748
     15          1           0       -1.722376   -1.255604    0.000104
 ---------------------------------------------------------------------
 Rotational constants (GHZ):           4.4667341           2.9802266           2.9528883
    94 basis functions,   177 primitive gaussians,    99 cartesian basis functions
    25 alpha electrons       25 beta electrons
       nuclear repulsion energy       244.0491052541 Hartrees.
 NAtoms=   15 NActive=   15 NUniq=   15 SFac= 1.00D+00 NAtFMM=   60 NAOKFM=F Big=F
 Nuclear repulsion after empirical dispersion term =      244.0409091471 Hartrees.
   1 Symmetry operations used in ECPInt.
 ECPInt:  NShTT=    1378 NPrTT=    5776 LenC2=    1376 LenP2D=    4777.
 LDataN:  DoStor=T MaxTD1= 4 Len=   56
 Initial guess from the checkpoint file:  "/scratch/user/peterchao1/peterchao1/6097808_1659647584000000839197405/Gau-85701.chk"
 B after Tr=     0.000000   -0.000000   -0.000000
         Rot=    0.999996    0.001280   -0.000043    0.002367 Ang=   0.31 deg.
 ExpMin= 1.22D-01 ExpMax= 9.18D+03 ExpMxC= 1.38D+03 IAcc=3 IRadAn=         5 AccDes= 0.00D+00
 Harris functional with IExCor= 4639 and IRadAn=       5 diagonalized for initial guess.
 HarFok:  IExCor= 4639 AccDes= 0.00D+00 IRadAn=         5 IDoV= 1 UseB2=F ITyADJ=14
 ICtDFT=  3500011 ScaDFX=  1.000000  1.000000  1.000000  1.000000
 FoFCou: FMM=F IPFlag=           0 FMFlag=      100000 FMFlg1=           0
         NFxFlg=           0 DoJE=T BraDBF=F KetDBF=T FulRan=T
         wScrn=  0.000000 ICntrl=       500 IOpCl=  0 I1Cent=   200000004 NGrid=           0
         NMat0=    1 NMatS0=      1 NMatT0=    0 NMatD0=    1 NMtDS0=    0 NMtDT0=    0
 Petite list used in FoFCou.
     Accept linear search using points  1 and  2.
     Minimum is close to point  2 DX= -9.26D-06 DF=  0.00D+00 DXR=  9.26D-06 DFR=  0.00D+00 which will be used.
 SCF Done:  E(RwB97XD) =  -556.335946092     a.u. after    3 cycles
            Convg  =    0.2716D-09                    22 Fock formations.
              S**2 =  0.0000                  -V/T =  2.0051
   1 Symmetry operations used in ECPInt.
 ECPInt:  NShTT=    1378 NPrTT=    5776 LenC2=    1376 LenP2D=    4777.
 LDataN:  DoStor=T MaxTD1= 5 Len=  102
 Calling FoFJK, ICntrl=      2127 FMM=F ISym2X=0 I1Cent= 0 IOpClX= 0 NMat=1 NMatS=1 NMatT=0.

 GradGradGradGradGradGradGradGradGradGradGradGradGradGradGradGradGradGrad
 Using GEDIIS/GDIIS optimizer.
 FormGI is forming the generalized inverse of G from B-inverse, IUseBI=4.
 Internal  Forces:  Max     0.000532282 RMS     0.000144075
 Step number   3 out of a maximum of   79
 All quantities printed in internal units (Hartrees-Bohrs-Radians)
 Mixed Optimization -- En-DIIS/RFO-DIIS
 Swapping is turned off.
 Trust test= 9.10D-01 RLast= 3.05D-02 DXMaxT set to 4.14D-01
 ITU=  1  1  0
     Eigenvalues ---    0.00230   0.00350   0.00352   0.00357   0.04214
     Eigenvalues ---    0.05423   0.05487   0.05493   0.05578   0.05605
     Eigenvalues ---    0.05653   0.06073   0.06452   0.14975   0.15952
     Eigenvalues ---    0.16000   0.16000   0.16000   0.16000   0.16000
     Eigenvalues ---    0.16000   0.16000   0.16058   0.16269   0.19435
     Eigenvalues ---    0.22953   0.26491   0.29230   0.29329   0.31013
     Eigenvalues ---    0.34001   0.34054   0.34060   0.34066   0.34083
     Eigenvalues ---    0.34102   0.34181   0.34223   0.35114
 En-DIIS/RFO-DIIS/Sim-DIIS IScMMF=       -3 using points:     3    2
 RFO step:  Lambda=-6.26981897D-06.
 DidBck=F Rises=F RFO-DIIS coefs:    1.00561   -0.00561
 Iteration  1 RMS(Cart)=  0.00124336 RMS(Int)=  0.00000090
 Iteration  2 RMS(Cart)=  0.00000101 RMS(Int)=  0.00000023
 Iteration  3 RMS(Cart)=  0.00000000 RMS(Int)=  0.00000023
 Variable       Old X    -DE/DX   Delta X   Delta X   Delta X     New X
                                 (Linear)    (Quad)   (Total)
    R1        2.89355  -0.00009  -0.00001  -0.00039  -0.00040   2.89315
    R2        2.09105  -0.00028  -0.00000  -0.00082  -0.00083   2.09022
    R3        2.08475  -0.00031   0.00000  -0.00086  -0.00086   2.08389
    R4        2.08753  -0.00029   0.00000  -0.00078  -0.00077   2.08675
    R5        2.89352  -0.00009  -0.00001  -0.00037  -0.00038   2.89314
    R6        2.89643  -0.00017   0.00005  -0.00013  -0.00007   2.89636
    R7        3.49654   0.00012   0.00002   0.00057   0.00059   3.49713
    R8        2.09106  -0.00028  -0.00000  -0.00082  -0.00082   2.09023
    R9        2.08753  -0.00029   0.00001  -0.00078  -0.00077   2.08675
   R10        2.08470  -0.00029   0.00000  -0.00081  -0.00081   2.08388
   R11        2.08843  -0.00028   0.00001  -0.00074  -0.00074   2.08769
   R12        2.08676  -0.00029  -0.00000  -0.00082  -0.00083   2.08593
   R13        2.08680  -0.00031  -0.00000  -0.00087  -0.00087   2.08593
   R14        2.56067  -0.00033   0.00001  -0.00115  -0.00114   2.55954
    A1        1.92238   0.00005  -0.00003   0.00011   0.00008   1.92246
    A2        1.93841   0.00008  -0.00000   0.00053   0.00053   1.93894
    A3        1.94132  -0.00006  -0.00000  -0.00042  -0.00042   1.94089
    A4        1.89260  -0.00005   0.00002   0.00004   0.00007   1.89267
    A5        1.88106  -0.00001   0.00001  -0.00015  -0.00014   1.88093
    A6        1.88628  -0.00001  -0.00000  -0.00013  -0.00013   1.88614
    A7        1.93041   0.00005   0.00001   0.00139   0.00140   1.93181
    A8        1.92531   0.00001   0.00002   0.00018   0.00020   1.92551
    A9        1.91983   0.00004  -0.00002   0.00011   0.00009   1.91992
   A10        1.92531   0.00001   0.00002   0.00018   0.00020   1.92551
   A11        1.91985   0.00003  -0.00002   0.00009   0.00007   1.91992
   A12        1.84129  -0.00015  -0.00001  -0.00211  -0.00212   1.83917
   A13        1.92236   0.00006  -0.00003   0.00015   0.00012   1.92247
   A14        1.94135  -0.00007  -0.00000  -0.00047  -0.00047   1.94088
   A15        1.93848   0.00007  -0.00000   0.00047   0.00047   1.93896
   A16        1.88107  -0.00001   0.00001  -0.00014  -0.00013   1.88093
   A17        1.89255  -0.00004   0.00002   0.00009   0.00012   1.89267
   A18        1.88624  -0.00001  -0.00000  -0.00011  -0.00011   1.88613
   A19        1.91395  -0.00002   0.00002   0.00003   0.00005   1.91400
   A20        1.94359  -0.00013  -0.00001  -0.00077  -0.00078   1.94282
   A21        1.94357  -0.00013  -0.00001  -0.00075  -0.00076   1.94281
   A22        1.88554   0.00007   0.00000   0.00031   0.00031   1.88584
   A23        1.88551   0.00007   0.00000   0.00035   0.00036   1.88586
   A24        1.88980   0.00015  -0.00000   0.00090   0.00090   1.89069
   A25        1.68757  -0.00053   0.00009  -0.00234  -0.00225   1.68532
    D1       -1.05434   0.00003  -0.00002   0.00008   0.00006  -1.05428
    D2        1.08049   0.00008   0.00003   0.00138   0.00140   1.08190
    D3        3.10457  -0.00007   0.00001  -0.00102  -0.00101   3.10356
    D4        3.13181   0.00001  -0.00003  -0.00039  -0.00042   3.13139
    D5       -1.01654   0.00006   0.00002   0.00090   0.00092  -1.01562
    D6        1.00754  -0.00010   0.00000  -0.00150  -0.00149   1.00605
    D7        1.03013   0.00001  -0.00003  -0.00030  -0.00033   1.02980
    D8       -3.11822   0.00006   0.00002   0.00099   0.00101  -3.11721
    D9       -1.09414  -0.00009   0.00001  -0.00141  -0.00140  -1.09554
   D10        1.05454  -0.00003   0.00002  -0.00033  -0.00031   1.05423
   D11       -1.02995  -0.00001   0.00003   0.00006   0.00009  -1.02986
   D12       -3.13165  -0.00001   0.00003   0.00019   0.00022  -3.13143
   D13       -1.08030  -0.00008  -0.00003  -0.00162  -0.00165  -1.08195
   D14        3.11840  -0.00006  -0.00002  -0.00123  -0.00125   3.11715
   D15        1.01670  -0.00006  -0.00002  -0.00110  -0.00112   1.01558
   D16       -3.10439   0.00007  -0.00002   0.00079   0.00078  -3.10361
   D17        1.09431   0.00009  -0.00001   0.00118   0.00117   1.09549
   D18       -1.00739   0.00010  -0.00000   0.00131   0.00131  -1.00609
   D19       -1.06874  -0.00004  -0.00002  -0.00121  -0.00123  -1.06997
   D20        3.12845  -0.00003  -0.00003  -0.00113  -0.00116   3.12729
   D21        1.01721  -0.00005  -0.00001  -0.00123  -0.00124   1.01597
   D22        1.06910   0.00004   0.00002   0.00078   0.00080   1.06991
   D23       -1.01690   0.00005   0.00001   0.00087   0.00088  -1.01602
   D24       -3.12814   0.00003   0.00003   0.00077   0.00080  -3.12734
   D25       -3.14140  -0.00000  -0.00000  -0.00023  -0.00023   3.14156
   D26        1.05579   0.00001  -0.00001  -0.00014  -0.00015   1.05564
   D27       -1.05545  -0.00001   0.00001  -0.00024  -0.00023  -1.05569
   D28        1.06436   0.00006  -0.00002   0.00271   0.00269   1.06704
   D29       -1.06620  -0.00005  -0.00000   0.00083   0.00083  -1.06537
   D30        3.14067   0.00000  -0.00001   0.00178   0.00176  -3.14075
         Item               Value     Threshold  Converged?
 Maximum Force            0.000532     0.000015     NO 
 RMS     Force            0.000144     0.000010     NO 
 Maximum Displacement     0.004342     0.000060     NO 
 RMS     Displacement     0.001244     0.000040     NO 
 GradGradGradGradGradGradGradGradGradGradGradGradGradGradGradGradGradGrad

                    Distance matrix (angstroms):
                    1          2          3          4          5
     1  C    0.000000
     2  C    1.530987   0.000000
     3  C    2.518667   1.530986   0.000000
     4  C    2.514566   1.532686   2.514564   0.000000
     5  S    2.776148   1.850601   2.776145   2.697786   0.000000
     6  H    1.106098   2.175777   2.770708   2.777927   3.766743
     7  H    1.102749   2.185216   3.485868   2.760059   2.953911
     8  H    1.104263   2.187768   2.774768   3.485562   3.002797
     9  H    2.770699   2.175790   1.106104   2.777964   3.766752
    10  H    2.774784   2.187759   1.104263   3.485556   3.002754
    11  H    3.485870   2.185220   1.102744   2.760049   2.953936
    12  H    2.764807   2.170064   2.764776   1.104758   3.703457
    13  H    3.485759   2.190324   2.764563   1.103828   2.883093
    14  H    2.764530   2.190315   3.485752   1.103828   2.883112
    15  H    2.899596   2.414981   2.898614   3.713261   1.354448
                    6          7          8          9         10
     6  H    0.000000
     7  H    1.791992   0.000000
     8  H    1.785601   1.786281   0.000000
     9  H    2.562203   3.786227   3.127330   0.000000
    10  H    3.127389   3.789586   2.572784   1.785607   0.000000
    11  H    3.786218   4.341674   3.789586   1.791989   1.786267
    12  H    2.568461   3.114356   3.784139   2.568466   3.784127
    13  H    3.793886   3.778208   4.347051   3.131807   3.780502
    14  H    3.131718   2.550354   3.780492   3.793902   4.347036
    15  H    3.914112   3.259953   2.601607   3.913365   2.600448
                   11         12         13         14         15
    11  H    0.000000
    12  H    3.114287   0.000000
    13  H    2.550382   1.787360   0.000000
    14  H    3.778213   1.787371   1.789747   0.000000
    15  H    3.258481   4.559512   4.013085   4.013595   0.000000
 Framework group  C1[X(C4H10S)]
 Deg. of freedom    39
                         Standard orientation:                         
 ---------------------------------------------------------------------
 Center     Atomic      Atomic             Coordinates (Angstroms)
 Number     Number       Type             X           Y           Z
 ---------------------------------------------------------------------
      1          6           0        0.838583   -0.723294   -1.259959
      2          6           0        0.347261   -0.005632   -0.000004
      3          6           0        0.838405   -0.725592    1.258707
      4          6           0        0.821071    1.451978    0.001360
      5         16           0       -1.501390    0.079308   -0.000054
      6          1           0        1.944327   -0.740966   -1.281672
      7          1           0        0.479838   -0.216026   -2.171023
      8          1           0        0.484211   -1.768775   -1.287987
      9          1           0        1.944151   -0.743357    1.280531
     10          1           0        0.483975   -1.771104    1.284795
     11          1           0        0.479574   -0.219977    2.170649
     12          1           0        1.925368    1.483916    0.001500
     13          1           0        0.463238    1.989366    0.896684
     14          1           0        0.463401    1.990975   -0.893062
     15          1           0       -1.717769   -1.257744   -0.000162
 ---------------------------------------------------------------------
 Rotational constants (GHZ):           4.4665176           2.9808306           2.9545001
    94 basis functions,   177 primitive gaussians,    99 cartesian basis functions
    25 alpha electrons       25 beta electrons
       nuclear repulsion energy       244.0858893576 Hartrees.
 NAtoms=   15 NActive=   15 NUniq=   15 SFac= 1.00D+00 NAtFMM=   60 NAOKFM=F Big=F
 Nuclear repulsion after empirical dispersion term =      244.0776949802 Hartrees.
   1 Symmetry operations used in ECPInt.
 ECPInt:  NShTT=    1378 NPrTT=    5776 LenC2=    1376 LenP2D=    4777.
 LDataN:  DoStor=T MaxTD1= 4 Len=   56
 Initial guess from the checkpoint file:  "/scratch/user/peterchao1/peterchao1/6097808_1659647584000000839197405/Gau-85701.chk"
 B after Tr=     0.000000    0.000000    0.000000
         Rot=    0.999999   -0.000901    0.000062   -0.000914 Ang=  -0.15 deg.
     Minimum is close to point  2 DX=  9.15D-07 DF=  0.00D+00 DXR=  9.15D-07 DFR=  0.00D+00 which will be used.
 SCF Done:  E(RwB97XD) =  -556.335949436     a.u. after    2 cycles
            Convg  =    0.1671D-06                    14 Fock formations.
              S**2 =  0.0000                  -V/T =  2.0051
   1 Symmetry operations used in ECPInt.
 ECPInt:  NShTT=    1378 NPrTT=    5776 LenC2=    1376 LenP2D=    4777.
 LDataN:  DoStor=T MaxTD1= 5 Len=  102
 Calling FoFJK, ICntrl=      2127 FMM=F ISym2X=0 I1Cent= 0 IOpClX= 0 NMat=1 NMatS=1 NMatT=0.

 GradGradGradGradGradGradGradGradGradGradGradGradGradGradGradGradGradGrad
 Using GEDIIS/GDIIS optimizer.
 FormGI is forming the generalized inverse of G from B-inverse, IUseBI=4.
 Internal  Forces:  Max     0.000156371 RMS     0.000025873
 Step number   4 out of a maximum of   79
 All quantities printed in internal units (Hartrees-Bohrs-Radians)
 Mixed Optimization -- En-DIIS/RFO-DIIS
 Swapping is turned off.
 Trust test= 1.07D+00 RLast= 7.68D-03 DXMaxT set to 4.14D-01
 ITU=  1  1  1  0
     Eigenvalues ---    0.00232   0.00351   0.00352   0.00357   0.04392
     Eigenvalues ---    0.05442   0.05486   0.05493   0.05580   0.05605
     Eigenvalues ---    0.05657   0.06079   0.06474   0.14790   0.15643
     Eigenvalues ---    0.15955   0.16000   0.16000   0.16000   0.16000
     Eigenvalues ---    0.16000   0.16000   0.16171   0.16330   0.19120
     Eigenvalues ---    0.22375   0.26494   0.28886   0.29320   0.31049
     Eigenvalues ---    0.33884   0.34005   0.34060   0.34065   0.34080
     Eigenvalues ---    0.34102   0.34168   0.34184   0.35015
 En-DIIS/RFO-DIIS/Sim-DIIS IScMMF=       -3 using points:     4    3    2
 RFO step:  Lambda=-2.55042692D-07.
 DidBck=F Rises=F RFO-DIIS coefs:    0.84530    0.15452    0.00018
 Iteration  1 RMS(Cart)=  0.00051319 RMS(Int)=  0.00000044
 Iteration  2 RMS(Cart)=  0.00000040 RMS(Int)=  0.00000003
 Variable       Old X    -DE/DX   Delta X   Delta X   Delta X     New X
                                 (Linear)    (Quad)   (Total)
    R1        2.89315  -0.00006   0.00006  -0.00031  -0.00024   2.89290
    R2        2.09022   0.00001   0.00013  -0.00014  -0.00001   2.09021
    R3        2.08389  -0.00003   0.00013  -0.00027  -0.00014   2.08376
    R4        2.08675  -0.00001   0.00012  -0.00018  -0.00006   2.08669
    R5        2.89314  -0.00006   0.00006  -0.00030  -0.00024   2.89290
    R6        2.89636   0.00001   0.00001   0.00007   0.00008   2.89644
    R7        3.49713   0.00016  -0.00009   0.00082   0.00073   3.49786
    R8        2.09023   0.00000   0.00013  -0.00015  -0.00002   2.09021
    R9        2.08675  -0.00001   0.00012  -0.00018  -0.00006   2.08669
   R10        2.08388  -0.00003   0.00013  -0.00025  -0.00012   2.08376
   R11        2.08769  -0.00001   0.00011  -0.00018  -0.00007   2.08762
   R12        2.08593  -0.00003   0.00013  -0.00024  -0.00011   2.08582
   R13        2.08593  -0.00002   0.00013  -0.00024  -0.00011   2.08582
   R14        2.55954  -0.00001   0.00018  -0.00027  -0.00009   2.55944
    A1        1.92246   0.00004  -0.00001   0.00024   0.00023   1.92269
    A2        1.93894  -0.00001  -0.00008   0.00000  -0.00008   1.93886
    A3        1.94089   0.00000   0.00007  -0.00005   0.00001   1.94090
    A4        1.89267  -0.00001  -0.00001  -0.00007  -0.00009   1.89259
    A5        1.88093  -0.00002   0.00002  -0.00013  -0.00011   1.88082
    A6        1.88614   0.00001   0.00002   0.00000   0.00002   1.88617
    A7        1.93181  -0.00001  -0.00022   0.00014  -0.00008   1.93173
    A8        1.92551  -0.00000  -0.00003  -0.00002  -0.00006   1.92545
    A9        1.91992   0.00000  -0.00001   0.00008   0.00006   1.91998
   A10        1.92551  -0.00000  -0.00003  -0.00002  -0.00005   1.92545
   A11        1.91992   0.00000  -0.00001   0.00008   0.00007   1.91998
   A12        1.83917   0.00001   0.00033  -0.00027   0.00006   1.83923
   A13        1.92247   0.00004  -0.00002   0.00022   0.00020   1.92268
   A14        1.94088   0.00001   0.00007  -0.00004   0.00004   1.94092
   A15        1.93896  -0.00002  -0.00007  -0.00001  -0.00009   1.93887
   A16        1.88093  -0.00002   0.00002  -0.00015  -0.00013   1.88080
   A17        1.89267  -0.00001  -0.00002  -0.00006  -0.00008   1.89258
   A18        1.88613   0.00001   0.00002   0.00003   0.00005   1.88618
   A19        1.91400   0.00001  -0.00001   0.00003   0.00003   1.91402
   A20        1.94282  -0.00003   0.00012  -0.00035  -0.00023   1.94259
   A21        1.94281  -0.00003   0.00012  -0.00033  -0.00021   1.94259
   A22        1.88584   0.00001  -0.00005   0.00010   0.00005   1.88589
   A23        1.88586   0.00001  -0.00006   0.00007   0.00002   1.88588
   A24        1.89069   0.00004  -0.00014   0.00051   0.00037   1.89106
   A25        1.68532   0.00000   0.00034  -0.00036  -0.00001   1.68531
    D1       -1.05428   0.00000  -0.00001   0.00021   0.00020  -1.05408
    D2        1.08190  -0.00001  -0.00022   0.00026   0.00004   1.08194
    D3        3.10356   0.00000   0.00016  -0.00003   0.00013   3.10369
    D4        3.13139   0.00000   0.00007   0.00014   0.00021   3.13160
    D5       -1.01562  -0.00001  -0.00014   0.00019   0.00005  -1.01557
    D6        1.00605   0.00000   0.00023  -0.00010   0.00013   1.00618
    D7        1.02980   0.00001   0.00005   0.00018   0.00023   1.03003
    D8       -3.11721  -0.00001  -0.00016   0.00023   0.00007  -3.11714
    D9       -1.09554   0.00000   0.00022  -0.00007   0.00015  -1.09539
   D10        1.05423  -0.00000   0.00005  -0.00012  -0.00007   1.05416
   D11       -1.02986  -0.00000  -0.00001  -0.00005  -0.00007  -1.02993
   D12       -3.13143  -0.00001  -0.00004  -0.00006  -0.00010  -3.13153
   D13       -1.08195   0.00001   0.00026  -0.00017   0.00009  -1.08186
   D14        3.11715   0.00001   0.00019  -0.00010   0.00009   3.11724
   D15        1.01558   0.00001   0.00017  -0.00011   0.00006   1.01564
   D16       -3.10361  -0.00000  -0.00012   0.00012   0.00000  -3.10361
   D17        1.09549  -0.00000  -0.00018   0.00019   0.00001   1.09549
   D18       -1.00609  -0.00001  -0.00020   0.00018  -0.00002  -1.00611
   D19       -1.06997   0.00001   0.00019  -0.00001   0.00018  -1.06978
   D20        3.12729   0.00001   0.00018   0.00007   0.00025   3.12754
   D21        1.01597   0.00000   0.00019  -0.00011   0.00009   1.01605
   D22        1.06991  -0.00001  -0.00013   0.00014   0.00001   1.06992
   D23       -1.01602  -0.00000  -0.00014   0.00022   0.00008  -1.01594
   D24       -3.12734  -0.00001  -0.00012   0.00004  -0.00009  -3.12743
   D25        3.14156   0.00000   0.00004   0.00007   0.00010  -3.14152
   D26        1.05564   0.00000   0.00002   0.00015   0.00017   1.05581
   D27       -1.05569  -0.00000   0.00004  -0.00003   0.00000  -1.05569
   D28        1.06704  -0.00001  -0.00041  -0.00135  -0.00177   1.06527
   D29       -1.06537  -0.00000  -0.00013  -0.00163  -0.00176  -1.06713
   D30       -3.14075  -0.00000  -0.00027  -0.00150  -0.00177   3.14066
         Item               Value     Threshold  Converged?
 Maximum Force            0.000156     0.000015     NO 
 RMS     Force            0.000026     0.000010     NO 
 Maximum Displacement     0.002619     0.000060     NO 
 RMS     Displacement     0.000513     0.000040     NO 
 GradGradGradGradGradGradGradGradGradGradGradGradGradGradGradGradGradGrad

                    Distance matrix (angstroms):
                    1          2          3          4          5
     1  C    0.000000
     2  C    1.530858   0.000000
     3  C    2.518388   1.530857   0.000000
     4  C    2.514444   1.532728   2.514444   0.000000
     5  S    2.776438   1.850986   2.776439   2.698204   0.000000
     6  H    1.106094   2.175830   2.770537   2.777998   3.767153
     7  H    1.102676   2.184989   3.485509   2.759785   2.954111
     8  H    1.104229   2.187636   2.774588   3.485446   3.002947
     9  H    2.770559   2.175815   1.106092   2.777944   3.767143
    10  H    2.774554   2.187647   1.104231   3.485455   3.003016
    11  H    3.485514   2.184994   1.102679   2.759826   2.954082
    12  H    2.764622   2.170093   2.764686   1.104722   3.703859
    13  H    3.485479   2.190149   2.764195   1.103768   2.883337
    14  H    2.764254   2.190155   3.485483   1.103770   2.883276
    15  H    2.898865   2.415254   2.899951   3.713539   1.354400
                    6          7          8          9         10
     6  H    0.000000
     7  H    1.791874   0.000000
     8  H    1.785499   1.786209   0.000000
     9  H    2.562152   3.785982   3.127275   0.000000
    10  H    3.127164   3.789325   2.572646   1.785488   0.000000
    11  H    3.785992   4.341227   3.789331   1.791873   1.786220
    12  H    2.568478   3.113973   3.783984   2.568490   3.784013
    13  H    3.793788   3.777881   4.346753   3.131504   3.780149
    14  H    3.131660   2.549929   3.780162   3.793775   4.346769
    15  H    3.913667   3.258612   2.600679   3.914504   2.601984
                   11         12         13         14         15
    11  H    0.000000
    12  H    3.114129   0.000000
    13  H    2.549910   1.787314   0.000000
    14  H    3.777888   1.787305   1.789890   0.000000
    15  H    3.260226   4.559797   4.013679   4.013086   0.000000
 Framework group  C1[X(C4H10S)]
 Deg. of freedom    39
                         Standard orientation:                         
 ---------------------------------------------------------------------
 Center     Atomic      Atomic             Coordinates (Angstroms)
 Number     Number       Type             X           Y           Z
 ---------------------------------------------------------------------
      1          6           0        0.838525   -0.725658   -1.258516
      2          6           0        0.347350   -0.005661    0.000005
      3          6           0        0.838719   -0.723168    1.259871
      4          6           0        0.821296    1.451950   -0.001474
      5         16           0       -1.501683    0.079335    0.000062
      6          1           0        1.944256   -0.743602   -1.280453
      7          1           0        0.479787   -0.220030   -2.170406
      8          1           0        0.484051   -1.771120   -1.284603
      9          1           0        1.944452   -0.740985    1.281698
     10          1           0        0.484344   -1.768611    1.288042
     11          1           0        0.480062   -0.215785    2.170820
     12          1           0        1.925558    1.483823   -0.001661
     13          1           0        0.463684    1.990783    0.892996
     14          1           0        0.463448    1.989051   -0.896893
     15          1           0       -1.718063   -1.257668    0.000151
 ---------------------------------------------------------------------
 Rotational constants (GHZ):           4.4671165           2.9802785           2.9538532
    94 basis functions,   177 primitive gaussians,    99 cartesian basis functions
    25 alpha electrons       25 beta electrons
       nuclear repulsion energy       244.0777786204 Hartrees.
 NAtoms=   15 NActive=   15 NUniq=   15 SFac= 1.00D+00 NAtFMM=   60 NAOKFM=F Big=F
 Nuclear repulsion after empirical dispersion term =      244.0695841476 Hartrees.
   1 Symmetry operations used in ECPInt.
 ECPInt:  NShTT=    1378 NPrTT=    5776 LenC2=    1376 LenP2D=    4777.
 LDataN:  DoStor=T MaxTD1= 4 Len=   56
 Initial guess from the checkpoint file:  "/scratch/user/peterchao1/peterchao1/6097808_1659647584000000839197405/Gau-85701.chk"
 B after Tr=     0.000000   -0.000000   -0.000000
         Rot=    1.000000    0.000930   -0.000054    0.000014 Ang=   0.11 deg.
     Accept linear search using points  1 and  2.
     Minimum is close to point  2 DX= -3.01D-06 DF=  0.00D+00 DXR=  3.01D-06 DFR=  0.00D+00 which will be used.
 SCF Done:  E(RwB97XD) =  -556.335949542     a.u. after    2 cycles
            Convg  =    0.1370D-06                    11 Fock formations.
              S**2 =  0.0000                  -V/T =  2.0051
   1 Symmetry operations used in ECPInt.
 ECPInt:  NShTT=    1378 NPrTT=    5776 LenC2=    1376 LenP2D=    4777.
 LDataN:  DoStor=T MaxTD1= 5 Len=  102
 Calling FoFJK, ICntrl=      2127 FMM=F ISym2X=0 I1Cent= 0 IOpClX= 0 NMat=1 NMatS=1 NMatT=0.

 GradGradGradGradGradGradGradGradGradGradGradGradGradGradGradGradGradGrad
 Using GEDIIS/GDIIS optimizer.
 FormGI is forming the generalized inverse of G from B-inverse, IUseBI=4.
 Internal  Forces:  Max     0.000017140 RMS     0.000006843
 Step number   5 out of a maximum of   79
 All quantities printed in internal units (Hartrees-Bohrs-Radians)
 Mixed Optimization -- En-DIIS/RFO-DIIS
 Swapping is turned off.
 Trust test= 8.33D-01 RLast= 3.30D-03 DXMaxT set to 4.14D-01
 ITU=  0  1  1  1  0
     Eigenvalues ---    0.00267   0.00351   0.00354   0.00358   0.04424
     Eigenvalues ---    0.05345   0.05493   0.05518   0.05586   0.05605
     Eigenvalues ---    0.05660   0.06195   0.06473   0.14214   0.15081
     Eigenvalues ---    0.15955   0.16000   0.16000   0.16000   0.16000
     Eigenvalues ---    0.16000   0.16095   0.16220   0.17024   0.18342
     Eigenvalues ---    0.21682   0.26554   0.29086   0.29333   0.31042
     Eigenvalues ---    0.33998   0.34010   0.34061   0.34072   0.34082
     Eigenvalues ---    0.34116   0.34175   0.34325   0.36358
 En-DIIS/RFO-DIIS/Sim-DIIS IScMMF=       -3 using points:     5    4    3    2
 RFO step:  Lambda=-4.16956126D-08.
 DidBck=T Rises=F RFO-DIIS coefs:    0.39202    0.67940   -0.07354    0.00212
 Iteration  1 RMS(Cart)=  0.00037149 RMS(Int)=  0.00000025
 Iteration  2 RMS(Cart)=  0.00000023 RMS(Int)=  0.00000002
 Variable       Old X    -DE/DX   Delta X   Delta X   Delta X     New X
                                 (Linear)    (Quad)   (Total)
    R1        2.89290   0.00000   0.00012  -0.00015  -0.00002   2.89288
    R2        2.09021   0.00001  -0.00005   0.00007   0.00002   2.09023
    R3        2.08376   0.00002   0.00002   0.00000   0.00002   2.08378
    R4        2.08669   0.00001  -0.00002   0.00004   0.00002   2.08671
    R5        2.89290   0.00000   0.00013  -0.00015  -0.00002   2.89288
    R6        2.89644   0.00000  -0.00007   0.00009   0.00002   2.89646
    R7        3.49786   0.00001  -0.00041   0.00053   0.00012   3.49798
    R8        2.09021   0.00001  -0.00004   0.00007   0.00003   2.09024
    R9        2.08669   0.00001  -0.00002   0.00004   0.00002   2.08671
   R10        2.08376   0.00001   0.00002   0.00000   0.00002   2.08378
   R11        2.08762   0.00001  -0.00001   0.00002   0.00001   2.08763
   R12        2.08582   0.00001   0.00001   0.00000   0.00001   2.08583
   R13        2.08582   0.00001   0.00000   0.00000   0.00001   2.08583
   R14        2.55944   0.00001  -0.00003   0.00005   0.00002   2.55946
    A1        1.92269  -0.00000  -0.00012   0.00011  -0.00001   1.92268
    A2        1.93886   0.00001   0.00009  -0.00005   0.00004   1.93890
    A3        1.94090   0.00001  -0.00004   0.00010   0.00007   1.94097
    A4        1.89259  -0.00001   0.00005  -0.00010  -0.00005   1.89253
    A5        1.88082  -0.00001   0.00005  -0.00011  -0.00005   1.88077
    A6        1.88617  -0.00001  -0.00002   0.00003   0.00000   1.88617
    A7        1.93173   0.00001   0.00014  -0.00009   0.00006   1.93179
    A8        1.92545   0.00000   0.00004   0.00002   0.00006   1.92551
    A9        1.91998  -0.00001  -0.00002  -0.00005  -0.00008   1.91990
   A10        1.92545   0.00000   0.00004   0.00001   0.00005   1.92551
   A11        1.91998  -0.00001  -0.00003  -0.00005  -0.00008   1.91990
   A12        1.83923   0.00000  -0.00019   0.00018  -0.00001   1.83922
   A13        1.92268  -0.00000  -0.00010   0.00012   0.00001   1.92269
   A14        1.94092   0.00001  -0.00006   0.00010   0.00005   1.94097
   A15        1.93887   0.00001   0.00009  -0.00006   0.00003   1.93890
   A16        1.88080  -0.00000   0.00006  -0.00010  -0.00003   1.88077
   A17        1.89258  -0.00001   0.00005  -0.00010  -0.00005   1.89254
   A18        1.88618  -0.00001  -0.00004   0.00003  -0.00001   1.88617
   A19        1.91402  -0.00001  -0.00002  -0.00004  -0.00006   1.91396
   A20        1.94259   0.00001   0.00009  -0.00009   0.00000   1.94259
   A21        1.94259   0.00000   0.00008  -0.00008  -0.00000   1.94259
   A22        1.88589   0.00000  -0.00001  -0.00000  -0.00001   1.88588
   A23        1.88588   0.00000   0.00002   0.00000   0.00002   1.88589
   A24        1.89106  -0.00000  -0.00016   0.00022   0.00006   1.89113
   A25        1.68531  -0.00001  -0.00019   0.00012  -0.00007   1.68524
    D1       -1.05408  -0.00001  -0.00011  -0.00006  -0.00017  -1.05424
    D2        1.08194   0.00000   0.00006  -0.00009  -0.00002   1.08192
    D3        3.10369   0.00000  -0.00015   0.00010  -0.00005   3.10364
    D4        3.13160  -0.00000  -0.00014   0.00002  -0.00012   3.13148
    D5       -1.01557   0.00001   0.00003  -0.00001   0.00002  -1.01555
    D6        1.00618   0.00001  -0.00019   0.00018  -0.00000   1.00618
    D7        1.03003  -0.00001  -0.00015  -0.00005  -0.00020   1.02983
    D8       -3.11714  -0.00000   0.00002  -0.00008  -0.00006  -3.11720
    D9       -1.09539  -0.00000  -0.00019   0.00011  -0.00008  -1.09547
   D10        1.05416   0.00001   0.00001   0.00004   0.00005   1.05421
   D11       -1.02993   0.00001   0.00004   0.00002   0.00005  -1.02987
   D12       -3.13153   0.00000   0.00006  -0.00004   0.00002  -3.13151
   D13       -1.08186  -0.00000  -0.00016   0.00006  -0.00010  -1.08195
   D14        3.11724  -0.00000  -0.00014   0.00005  -0.00009   3.11715
   D15        1.01564  -0.00000  -0.00011  -0.00002  -0.00013   1.01551
   D16       -3.10361  -0.00000   0.00006  -0.00013  -0.00007  -3.10367
   D17        1.09549  -0.00000   0.00008  -0.00014  -0.00006   1.09543
   D18       -1.00611  -0.00000   0.00011  -0.00021  -0.00010  -1.00621
   D19       -1.06978  -0.00001  -0.00019   0.00002  -0.00017  -1.06996
   D20        3.12754  -0.00000  -0.00022   0.00011  -0.00012   3.12743
   D21        1.01605  -0.00001  -0.00014  -0.00006  -0.00020   1.01586
   D22        1.06992   0.00000   0.00004  -0.00007  -0.00003   1.06989
   D23       -1.01594   0.00001   0.00001   0.00002   0.00003  -1.01591
   D24       -3.12743   0.00000   0.00010  -0.00015  -0.00005  -3.12748
   D25       -3.14152  -0.00000  -0.00008  -0.00002  -0.00010   3.14156
   D26        1.05581   0.00000  -0.00011   0.00006  -0.00005   1.05576
   D27       -1.05569  -0.00000  -0.00002  -0.00011  -0.00013  -1.05581
   D28        1.06527   0.00000   0.00128   0.00006   0.00133   1.06660
   D29       -1.06713   0.00000   0.00113   0.00023   0.00137  -1.06576
   D30        3.14066   0.00000   0.00121   0.00014   0.00135  -3.14117
         Item               Value     Threshold  Converged?
 Maximum Force            0.000017     0.000015     NO 
 RMS     Force            0.000007     0.000010     YES
 Maximum Displacement     0.002032     0.000060     NO 
 RMS     Displacement     0.000371     0.000040     NO 
 GradGradGradGradGradGradGradGradGradGradGradGradGradGradGradGradGradGrad

                    Distance matrix (angstroms):
                    1          2          3          4          5
     1  C    0.000000
     2  C    1.530845   0.000000
     3  C    2.518418   1.530846   0.000000
     4  C    2.514491   1.532739   2.514492   0.000000
     5  S    2.776408   1.851051   2.776407   2.698256   0.000000
     6  H    1.106105   2.175818   2.770652   2.778036   3.767151
     7  H    1.102689   2.185017   3.485556   2.759872   2.954084
     8  H    1.104241   2.187683   2.774605   3.485524   3.002991
     9  H    2.770642   2.175825   1.106106   2.778062   3.767156
    10  H    2.774619   2.187678   1.104240   3.485520   3.002961
    11  H    3.485554   2.185014   1.102689   2.759855   2.954094
    12  H    2.764711   2.170058   2.764681   1.104726   3.703895
    13  H    3.485517   2.190165   2.764251   1.103775   2.883353
    14  H    2.764224   2.190163   3.485516   1.103773   2.883383
    15  H    2.899530   2.415245   2.899038   3.713542   1.354410
                    6          7          8          9         10
     6  H    0.000000
     7  H    1.791860   0.000000
     8  H    1.785482   1.786232   0.000000
     9  H    2.562329   3.786104   3.127283   0.000000
    10  H    3.127330   3.789384   2.572696   1.785485   0.000000
    11  H    3.786099   4.341285   3.789382   1.791862   1.786229
    12  H    2.568563   3.114144   3.784057   2.568558   3.784043
    13  H    3.793855   3.777943   4.346824   3.131641   3.780200
    14  H    3.131568   2.549938   3.780192   3.793862   4.346818
    15  H    3.914168   3.259713   2.601512   3.913789   2.600922
                   11         12         13         14         15
    11  H    0.000000
    12  H    3.114073   0.000000
    13  H    2.549948   1.787317   0.000000
    14  H    3.777941   1.787321   1.789940   0.000000
    15  H    3.258979   4.559759   4.013267   4.013538   0.000000
 Framework group  C1[X(C4H10S)]
 Deg. of freedom    39
                         Standard orientation:                         
 ---------------------------------------------------------------------
 Center     Atomic      Atomic             Coordinates (Angstroms)
 Number     Number       Type             X           Y           Z
 ---------------------------------------------------------------------
      1          6           0        0.838588   -0.723887   -1.259520
      2          6           0        0.347414   -0.005659   -0.000002
      3          6           0        0.838498   -0.725031    1.258898
      4          6           0        0.821394    1.451952    0.000677
      5         16           0       -1.501681    0.079397   -0.000028
      6          1           0        1.944329   -0.741824   -1.281449
      7          1           0        0.479936   -0.216959   -2.170737
      8          1           0        0.484144   -1.769332   -1.287139
      9          1           0        1.944239   -0.743026    1.280880
     10          1           0        0.484013   -1.770486    1.285557
     11          1           0        0.479806   -0.218910    2.170547
     12          1           0        1.925663    1.483732    0.000764
     13          1           0        0.463652    1.989519    0.895864
     14          1           0        0.463763    1.990314   -0.894075
     15          1           0       -1.718012   -1.257625   -0.000077
 ---------------------------------------------------------------------
 Rotational constants (GHZ):           4.4669554           2.9802687           2.9538364
    94 basis functions,   177 primitive gaussians,    99 cartesian basis functions
    25 alpha electrons       25 beta electrons
       nuclear repulsion energy       244.0758026374 Hartrees.
 NAtoms=   15 NActive=   15 NUniq=   15 SFac= 1.00D+00 NAtFMM=   60 NAOKFM=F Big=F
 Nuclear repulsion after empirical dispersion term =      244.0676081734 Hartrees.
   1 Symmetry operations used in ECPInt.
 ECPInt:  NShTT=    1378 NPrTT=    5776 LenC2=    1376 LenP2D=    4777.
 LDataN:  DoStor=T MaxTD1= 4 Len=   56
 Initial guess from the checkpoint file:  "/scratch/user/peterchao1/peterchao1/6097808_1659647584000000839197405/Gau-85701.chk"
 B after Tr=    -0.000000    0.000000   -0.000000
         Rot=    1.000000   -0.000705    0.000042    0.000027 Ang=  -0.08 deg.
     Accept linear search using points  1 and  2.
     Minimum is close to point  2 DX= -1.44D-06 DF=  0.00D+00 DXR=  1.44D-06 DFR=  0.00D+00 which will be used.
 SCF Done:  E(RwB97XD) =  -556.335949556     a.u. after    2 cycles
            Convg  =    0.7965D-07                    11 Fock formations.
              S**2 =  0.0000                  -V/T =  2.0051
   1 Symmetry operations used in ECPInt.
 ECPInt:  NShTT=    1378 NPrTT=    5776 LenC2=    1376 LenP2D=    4777.
 LDataN:  DoStor=T MaxTD1= 5 Len=  102
 Calling FoFJK, ICntrl=      2127 FMM=F ISym2X=0 I1Cent= 0 IOpClX= 0 NMat=1 NMatS=1 NMatT=0.

 GradGradGradGradGradGradGradGradGradGradGradGradGradGradGradGradGradGrad
[...]
 ! D22   D(3,2,4,12)            61.3042         -DE/DX =    0.0                 !
 ! D23   D(3,2,4,13)           -58.2035         -DE/DX =    0.0                 !
 ! D24   D(3,2,4,14)          -179.188          -DE/DX =    0.0                 !
 ! D25   D(5,2,4,12)           180.0            -DE/DX =    0.0                 !
 ! D26   D(5,2,4,13)            60.4922         -DE/DX =    0.0                 !
 ! D27   D(5,2,4,14)           -60.4922         -DE/DX =    0.0                 !
 ! D28   D(1,2,5,15)            61.0872         -DE/DX =    0.0                 !
 ! D29   D(3,2,5,15)           -61.0872         -DE/DX =    0.0                 !
 ! D30   D(4,2,5,15)           180.0            -DE/DX =    0.0                 !
 --------------------------------------------------------------------------------
 GradGradGradGradGradGradGradGradGradGradGradGradGradGradGradGradGradGrad


 ----------------------------------------------------------------------

 Electric dipole moment (input orientation):
 (Debye = 10**-18 statcoulomb cm , SI units = C m)
                  (au)            (Debye)         (10**-30 SI)
   Tot        0.651082D+00      0.165488D+01      0.552010D+01
   x         -0.341027D+00     -0.866804D+00     -0.289135D+01
   y          0.375065D-01      0.953320D-01      0.317993D+00
   z         -0.553355D+00     -0.140649D+01     -0.469154D+01

 Dipole polarizability, Alpha (input orientation).
 (esu units = cm**3 , SI units = C**2 m**2 J**-1)
 Alpha(0;0):
               (au)            (10**-24 esu)      (10**-40 SI)
   iso        0.584351D+02      0.865918D+01      0.963464D+01
   aniso      0.107180D+02      0.158825D+01      0.176716D+01
   xx         0.547675D+02      0.811570D+01      0.902994D+01
   yx        -0.349723D+00     -0.518235D-01     -0.576615D-01
   yy         0.607487D+02      0.900203D+01      0.100161D+02
   zx         0.303833D+01      0.450234D+00      0.500953D+00
   zy        -0.431505D+01     -0.639424D+00     -0.711455D+00
   zz         0.597890D+02      0.885981D+01      0.985787D+01

 ----------------------------------------------------------------------

 Dipole orientation:
     6          1.39811447         -0.07400713         -0.96267708
     6          3.88459813         -0.13618942         -2.43992271
     6          5.98446327          1.19686582         -0.96267774
     6          4.64241165         -2.87100101         -3.01938457
    16          3.46167590          1.39005859         -5.55887362
     1          1.62540625         -1.04984717          0.87178462
     1         -0.12864660         -1.01420078         -2.02440698
     1          0.80153724          1.88686896         -0.57091763
     1          6.29183155          0.24321560          0.87178432
     1          5.48673710          3.18513363         -0.57091936
     1          7.77737999          1.17655093         -2.02440780
     1          4.93121133         -3.91322243         -1.23370838
     1          6.41937714         -2.95036812         -4.10880703
     1          3.15971948         -3.85361630         -4.10880546
     1          2.82092247          3.70241943         -4.66817399

 Electric dipole moment (dipole orientation):
 (Debye = 10**-18 statcoulomb cm , SI units = C m)
                  (au)            (Debye)         (10**-30 SI)
   Tot        0.651082D+00      0.165488D+01      0.552010D+01
   x          0.000000D+00      0.000000D+00      0.000000D+00
   y          0.000000D+00      0.000000D+00      0.000000D+00
   z          0.651082D+00      0.165488D+01      0.552010D+01

 Dipole polarizability, Alpha (dipole orientation).
 (esu units = cm**3 , SI units = C**2 m**2 J**-1)
 Alpha(0;0):
               (au)            (10**-24 esu)      (10**-40 SI)
   iso        0.584351D+02      0.865918D+01      0.963464D+01
   aniso      0.107180D+02      0.158825D+01      0.176716D+01
   xx         0.534999D+02      0.792787D+01      0.882094D+01
   yx        -0.202361D+01     -0.299868D+00     -0.333649D+00
   yy         0.602420D+02      0.892695D+01      0.993257D+01
   zx         0.105111D+01      0.155759D+00      0.173305D+00
   zy        -0.379328D+01     -0.562106D+00     -0.625427D+00
   zz         0.615633D+02      0.912273D+01      0.101504D+02

 ----------------------------------------------------------------------
 1\1\GINC-C624\Freq\RwB97XD\def2SVPP\C4H10S1\PETERCHAO1\04-Aug-2022\0\\
 #T Geom=AllCheck Guess=TCheck SCRF=Check GenChk RwB97XD/def2SVPP Freq\
 \Comment gs min\\0,1\C,0.8975951908,0.0218139241,0.0476957505\C,2.4282
 388906,0.0310895742,0.0247884858\C,2.9536810154,-0.609910472,-1.262266
 4946\C,2.9540007396,1.4645700327,0.1587214007\S,3.0889506812,-0.873845
 8043,1.4982277069\H,0.4999908407,0.5951634912,-0.8106018003\H,0.511888
 2138,0.4729067183,0.9770475333\H,0.5032085935,-1.0071824331,-0.0229163
 772\H,2.5919752995,-0.0475910151,-2.143435849\H,2.603610191,-1.6525227
 189,-1.3611121988\H,4.0562040833,-0.6160701617,-1.281087935\H,2.598212
 9149,2.0720278082,-0.692659848\H,4.0575199718,1.4886215184,0.158575993
 2\H,2.5961968977,1.9376073561,1.0896055357\H,2.5333264762,-2.073677818
 ,1.2047480969\\Version=ES64L-G16RevB.01\State=1-A\HF=-556.3359496\RMSD
 =6.852e-10\RMSF=7.519e-07\ZeroPoint=0.1315398\Thermal=0.1385276\Dipole
 =-0.3410268,0.0375065,-0.5533547\DipoleDeriv=-0.0227121,-0.0004486,0.0
 163474,0.0195816,-0.0040631,0.0125494,-0.0078183,0.0243742,-0.0307744,
 0.1797656,-0.0784193,0.0615519,-0.1235995,0.2129917,-0.2173143,0.08333
 99,-0.1464005,0.3660534,-0.0175777,0.0273352,-0.0095441,0.0144065,-0.0
 114943,0.0227964,0.011197,-0.0001747,-0.0284776,0.0002503,0.0271109,-0
 .0206424,-0.0151102,-0.0038028,-0.0194367,-0.0002814,0.0468325,-0.0179
 543,-0.2281553,0.0998949,0.073205,0.1335895,-0.1100491,0.1154294,0.056
 9559,0.0625431,-0.2462523,-0.0113086,0.0419533,-0.057471,0.0577645,0.0
 184533,0.0941174,-0.0899267,0.0980884,-0.0605176,0.0233065,0.0103859,0
 .0231131,0.0350011,0.0459389,-0.0633962,0.0773088,-0.0706563,-0.047744
 1,0.0139911,-0.024563,-0.0039,-0.0921651,-0.1101073,-0.0171574,-0.0063
 292,-0.0112872,0.0749963,0.0531393,0.045526,-0.0587517,0.0433669,0.015
 6954,0.091068,-0.0328797,0.0656689,-0.1222076,0.0460997,-0.075348,-0.0
 018479,-0.0486776,-0.1108963,-0.0517796,0.0203204,0.0065955,0.0436767,
 -0.1053753,0.0099166,0.0389436,-0.0093552,0.071859,-0.0148104,-0.01782
 89,-0.015937,0.0550176,0.0554653,0.0347121,-0.0628774,0.009138,-0.0252
 077,0.0674226,-0.0505443,0.1075632,-0.0463451,-0.1110753,-0.0408589,0.
 0047439,0.0191839,0.0494755,-0.0043373,0.0018996,-0.0109367,0.0821884,
 0.0510274,0.0231817,0.0635398,0.0019755,0.019784,-0.0431702,0.0476553,
 -0.0975278,-0.0502228,0.0731593,-0.1003788,-0.0664102,-0.0451,-0.05857
 73,0.0280188,-0.0930682,-0.0587455,0.0285634\Polar=54.7674844,-0.34972
 26,60.7487279,3.0383303,-4.3150474,59.7889774\Quadrupole=-0.7292472,2.
 0980184,-1.3687712,0.7610274,-0.501147,-0.1277332\PG=C01 [X(C4H10S1)]\
 NImag=0\\0.48394828,0.00485401,0.59145581,-0.00930907,0.00722579,0.593
 67026,-0.20105520,-0.00115105,0.00284594,0.47955203,-0.00278990,-0.078
 13433,-0.00389251,0.02431089,0.46221883,0.00808121,-0.00566098,-0.0743
 6767,-0.02373622,0.05020741,0.42573710,-0.01765248,0.01610577,0.031748
 20,-0.09492883,0.01595949,0.03621155,0.59009711,0.00171430,0.00032748,
 -0.00117597,0.01507157,-0.09889769,-0.04541392,0.01412056,0.57574114,0
 .00622610,-0.00250343,-0.00179807,0.04108467,-0.04836105,-0.15973064,0
 .02784811,-0.03087324,0.50323608,-0.01799351,-0.03564891,-0.00264543,-
 0.09320669,-0.03711878,-0.00241184,0.00394412,0.01039164,0.00028443,0.
 58414209,-0.00641932,-0.00318422,-0.00074619,-0.04029463,-0.18267888,-
 0.01385702,-0.00434689,-0.02003765,-0.00726106,-0.03352944,0.49351391,
 -0.00021132,0.00006632,0.00022746,-0.00088030,-0.00887228,-0.07736855,
 -0.00913794,-0.03081841,-0.00485672,-0.00409833,-0.00269472,0.59192193
 ,-0.01366464,0.01759346,-0.02734384,-0.05069185,-0.00293338,-0.0265792
 0,0.00211433,-0.00130575,0.00071328,0.00445956,-0.00361054,0.00630620,
 0.11524817,0.00396469,-0.00526674,0.00710937,0.01242034,-0.05022196,0.
 02786906,-0.00161217,0.00076390,-0.00104672,0.00858466,-0.02124927,0.0
 2446968,0.07967326,0.27726058,-0.00801604,0.00889560,-0.01125035,-0.03
 398348,0.00377023,-0.08801441,-0.01189433,0.01903940,-0.03305997,0.000
 42511,0.00532839,-0.00035124,0.08664285,0.00849756,0.16746202,-0.08069
 381,0.04711955,-0.06982544,-0.01061602,0.01617576,-0.02439784,0.001007
 79,0.00005909,-0.00086448,0.00134785,0.00111762,-0.00052169,-0.0059609
 2,0.00136880,-0.00242703,0.08696071,0.04779137,-0.12088314,0.10611632,
 -0.00044671,-0.00101962,-0.00014528,-0.00004801,-0.00006292,0.00020234
 ,-0.00064075,0.00047422,-0.00089262,0.00029554,0.00091418,-0.00028257,
 -0.05205118,0.12382588,-0.07092400,0.10620679,-0.20888850,0.00072636,-
 0.00045345,-0.00105446,0.00068505,-0.00046112,0.00027630,0.00036898,0.
 00002329,0.00022325,-0.00129829,0.00013040,0.00126211,0.07806557,-0.11
 672387,0.22051472,-0.07816213,0.03671382,0.07610460,-0.01077982,0.0137
 4334,0.02851505,-0.00688222,-0.00071614,-0.00126878,0.00120482,0.00126
 771,0.00066297,0.00125928,-0.00040703,0.00057587,0.00382292,-0.0061251
 8,-0.00962146,0.08630275,0.03792960,-0.09539024,-0.09518969,-0.0003315
 1,-0.00108893,0.00081189,0.00027275,0.00030375,0.00037723,-0.00058900,
 0.00047735,0.00102643,-0.00019478,-0.00009200,0.00001508,-0.00726275,0
 .00820416,0.01471438,-0.04064613,0.09613979,0.07993236,-0.09564852,-0.
 24487422,-0.00199762,0.00096957,-0.00064314,0.00049675,0.00030600,0.00
 094395,-0.00046010,0.00014609,0.00018989,-0.00077762,0.00020648,0.0012
 8657,0.00816310,-0.01053787,-0.01611006,-0.08506374,0.10311395,0.25784
 188,-0.07910204,-0.08442745,-0.00559099,-0.01079256,-0.03131435,-0.002
 41616,0.00133884,-0.00097495,-0.00103589,-0.00696892,0.00141145,0.0001
 2710,0.00097676,-0.00096731,0.00086745,0.00391727,0.01118528,0.0019455
 0,0.00385547,0.01102979,-0.00048706,0.08749060,-0.08741194,-0.28466505
 ,-0.01607698,0.00213121,-0.00017812,0.00055407,0.00049981,0.00063779,-
 0.00001393,-0.00058001,0.00126134,-0.00006001,0.00041579,0.00118638,-0
 .00019429,-0.00515601,-0.01205373,-0.00269954,-0.00382531,-0.00930644,
 0.00125644,0.09402718,0.30189645,-0.00533463,-0.01623340,-0.05008361,-
 0.00052963,0.00047617,-0.00167898,0.00035034,0.00092977,-0.00001307,-0
 .00010896,0.00005346,0.00017382,-0.00003485,-0.00074970,-0.00029251,0.
 00986953,0.02276577,0.00319461,-0.01056223,-0.02435885,0.00056314,0.00
 652416,0.01713204,0.04694414,0.00025976,-0.00044730,0.00058427,0.00223
 272,-0.00565646,0.00827734,-0.07918157,0.04509045,-0.06902851,0.000065
 84,-0.00030072,-0.00029773,0.00117633,-0.00002374,0.00165454,-0.000380
 99,0.00033527,0.00037878,0.00013729,-0.00005348,-0.00020867,-0.0000462
 8,-0.00006953,0.00001617,0.07831119,-0.00023901,0.00022197,0.00002534,
 -0.00432286,0.00566624,-0.01023021,0.04499199,-0.11954229,0.10735891,-
 0.00050412,0.00098904,-0.00079752,-0.00017652,0.00081332,-0.00263298,0
 .00003524,0.00018884,-0.00003228,-0.00024223,0.00000404,-0.00003459,0.
 00007488,-0.00008244,0.00012437,-0.05022128,0.12351784,-0.00101406,0.0
 0052998,0.00073945,-0.00947388,0.01407499,-0.02058907,-0.06820645,0.10
 636852,-0.21174160,-0.00024234,0.00136572,0.00099044,0.00111704,-0.001
 12161,-0.00577427,0.00092995,-0.00039277,0.00027475,-0.00008760,-0.000
 21814,0.00036080,0.00001527,-0.00009818,-0.00005617,0.07379127,-0.1148
 8324,0.22947227,0.00082339,0.00113993,-0.00016049,0.00273439,0.0111550
 6,0.00042320,-0.07736209,-0.08278836,-0.00688197,-0.00055688,0.0008747
 3,0.00170396,-0.00039228,0.00023516,-0.00048460,-0.00006000,0.00006556
 ,-0.00005435,0.00010604,-0.00014817,-0.00014004,-0.00019947,-0.0001558
 6,0.00036889,0.00353247,0.01111334,0.00187280,0.07678588,-0.00070006,0
 .00040532,0.00058246,-0.00461902,-0.01242965,0.00133444,-0.08135285,-0
 .28719458,-0.01988111,0.00175383,0.00010388,-0.00328657,0.00030763,0.0
 0097940,0.00055802,-0.00005742,-0.00008201,-0.00008182,0.00006814,0.00
 035642,0.00004023,0.00074929,0.00030108,-0.00022131,-0.00508338,-0.012
 01759,-0.00264815,0.08787343,0.30668845,-0.00137059,0.00021200,0.00073
 486,-0.00998532,-0.02632440,-0.00295440,-0.00639134,-0.01729346,-0.049
 29404,0.00247646,-0.00165411,-0.00508077,-0.00028425,-0.00117119,0.001
 28352,0.00007369,0.00011531,-0.00004289,-0.00022576,0.00021589,-0.0000
 0218,0.00051235,0.00031129,0.00009853,0.00964009,0.02295743,0.00354329
 ,0.00529392,0.02352597,0.05285686,0.00048497,0.00134201,0.00287012,-0.
 01055299,-0.00041733,-0.00186729,-0.32200916,0.00003320,0.00258393,0.0
 0060859,-0.00060709,-0.00068519,0.00126852,-0.00047278,-0.00063993,0.0
 0031238,-0.00011825,-0.00010877,-0.00067642,0.00006631,0.00018012,0.00
 027346,0.00000740,-0.00014941,-0.00612867,-0.00084167,0.00116408,-0.00
 662091,0.00143006,0.00003409,0.34263784,0.00048800,-0.00109021,-0.0024
 7371,0.01386979,-0.00112282,0.00105449,-0.00113387,-0.04909902,0.00002
 040,0.00128569,0.00053367,0.00036297,-0.00037956,-0.00001589,0.0005045
 5,-0.00032918,0.00003412,-0.00007026,0.00086375,0.00049289,-0.00021227
 ,0.00023348,0.00024202,-0.00008350,0.01648646,0.00022340,-0.00178238,-
 0.02977119,0.00260376,0.00043113,-0.00092805,0.04753533,0.00103955,-0.
 00261418,-0.00502928,0.02854302,0.00056365,-0.00083608,-0.00126733,0.0
 0040276,-0.04731842,0.00042050,0.00118670,0.00072980,0.00056625,-0.000
 16633,0.00120122,0.00002299,-0.00021903,0.00015561,0.00187981,-0.00022
 643,0.00024689,-0.00023984,0.00007683,-0.00005520,-0.02442832,-0.00194
 247,0.00182227,-0.00215820,0.00047238,-0.00087069,-0.00369666,0.002631
 47,0.05011126,0.00062123,-0.00056451,0.00100951,0.00238156,-0.00615183
 ,0.00885093,0.00005235,0.00037248,0.00016419,-0.07732804,0.04818547,-0
 .06830460,-0.00085490,-0.00163867,0.00017542,-0.00025479,-0.00025342,-
 0.00031204,-0.00003518,0.00002561,0.00008515,0.00012207,0.00022416,-0.
 00001837,0.00020218,0.00019843,0.00004969,-0.00010037,-0.00000115,0.00
 020033,-0.00010348,0.00006744,-0.00015222,0.07737853,0.00129102,0.0009
 7978,0.00039915,0.01024056,-0.01718848,0.02370304,0.00042306,0.0010122
 8,0.00132322,0.04719211,-0.12520625,0.11100756,-0.00248003,-0.00430138
 ,-0.00204165,-0.00083448,0.00015194,-0.00037753,-0.00003817,-0.0000415
 1,-0.00009023,0.00019822,0.00023982,-0.00031417,-0.00012985,-0.0002465
 3,-0.00102706,-0.00019286,0.00045020,-0.00008866,-0.00002009,-0.000053
 47,-0.00001545,-0.04942415,0.13651742,-0.00005569,-0.00033569,0.000230
 00,0.00094575,-0.00202609,0.00109414,0.00031017,-0.00093371,0.00076639
 ,-0.06782556,0.11256671,-0.20935745,0.00058116,-0.00072106,0.00079671,
 0.00036861,0.00011382,0.00022776,-0.00007450,0.00009633,-0.00012954,0.
 00019141,-0.00013889,0.00015252,-0.00019244,-0.00009113,0.00016925,0.0
 0009550,0.00007767,0.00016458,0.00008040,0.00003546,-0.00004928,0.0741
 8643,-0.12156498,0.22036439,0.00048373,-0.00307691,-0.00012166,-0.0100
 2005,0.00162121,-0.00000341,0.00062600,0.00083861,0.00032024,-0.318771
 44,-0.00311211,0.00040816,-0.00005355,0.00001080,0.00046749,0.00029476
 ,0.00013947,0.00007025,0.00026910,0.00013220,-0.00008878,-0.00064674,-
 0.00021339,-0.00000573,-0.00007908,-0.00006874,0.00004441,0.00030457,-
 0.00000778,0.00003335,0.00036992,-0.00032082,-0.00042238,-0.00661816,-
 0.00076684,0.00129085,0.34008692,-0.00103950,-0.00623903,-0.00055951,-
 0.03179578,0.00071988,0.00005168,-0.00087698,0.00121454,0.00091563,0.0
 0006981,-0.04842255,-0.00040649,-0.00063389,0.00051176,0.00011978,0.00
 007457,-0.00000177,-0.00021430,0.00012347,-0.00002894,0.00016697,-0.00
 207980,0.00009096,-0.00008031,0.00010240,-0.00003829,0.00000013,0.0002
 1978,0.00017066,0.00025018,0.00051024,-0.00033318,-0.00049244,0.016842
 56,0.00041953,-0.00195367,0.00532495,0.05173747,-0.00011417,-0.0005127
 6,0.00009591,-0.00227463,0.00047188,-0.00172959,-0.00106866,0.00008465
 ,-0.00002092,0.00082478,-0.00057947,-0.04980674,0.00104948,0.00056762,
 0.00015227,0.00032758,-0.00004792,0.00014339,-0.00029817,0.00002549,0.
 00018960,-0.00011910,-0.00004769,0.00060187,-0.00010975,0.00001202,-0.
 00008718,0.00017020,0.00014772,-0.00004813,0.00014022,-0.00049917,0.00
 003166,-0.02466594,-0.00191471,0.00172383,-0.00048310,0.00073118,0.046
 41295,0.00082298,-0.00041610,-0.00121367,0.00270433,-0.00424464,-0.010
 57124,-0.00066854,-0.00197077,-0.00011693,-0.07968612,0.03803865,0.076
 27117,0.00008476,0.00086162,0.00038252,-0.00005997,0.00002818,-0.00006
 646,-0.00028298,-0.00030367,0.00027669,0.00007961,0.00021439,0.0000845
 8,-0.00009712,0.00000666,0.00020666,0.00068126,-0.00036811,-0.00042378
 ,0.00030329,-0.00021722,-0.00012047,0.00365315,-0.00596115,-0.00964106
 ,-0.00669018,0.01286961,0.02685533,0.07921112,0.00143936,0.00086977,-0
 .00012742,0.01132602,-0.01192805,-0.02666571,-0.00294738,-0.00588393,0
 .00088013,0.03661667,-0.09486454,-0.09380078,0.00062524,-0.00014957,-0
 .00068340,-0.00002022,-0.00003220,0.00010858,-0.00082613,0.00013377,0.
 00027200,0.00016127,0.00014161,0.00031575,-0.00017201,0.00015179,-0.00
 002240,0.00049025,-0.00077650,-0.00184924,-0.00003842,0.00012494,0.000
 27315,-0.00730176,0.00846410,0.01477718,-0.00051584,-0.00009703,0.0016
 1319,-0.03855629,0.10332888,0.00010777,0.00048403,0.00012688,0.0003063
 1,0.00092530,-0.00180604,-0.00063598,-0.00083162,0.00089307,0.07500581
 ,-0.09639018,-0.24245009,0.00022542,0.00025167,0.00067529,0.00002851,-
 0.00009595,-0.00011238,-0.00043473,-0.00020564,0.00021760,-0.00013639,
 0.00014441,0.00020588,0.00006679,0.00019353,0.00038171,0.00017572,-0.0
 0029965,0.00014133,0.00000690,0.00014769,0.00000154,0.00847017,-0.0107
 9690,-0.01659204,-0.00137201,0.00175787,0.00248029,-0.08162333,0.10468
 522,0.25569735,0.00087946,0.00086367,0.00104795,0.00303898,0.00766092,
 0.00162393,-0.00049565,0.00006408,-0.00002839,-0.00126127,0.00132509,-
 0.00134246,-0.05496955,-0.10199762,-0.03374583,0.00036281,-0.00015718,
 0.00014487,-0.00013891,0.00007323,0.00008947,-0.00029807,-0.00010791,-
 0.00046987,-0.00000408,0.00019589,-0.00016685,0.00032401,0.00000739,0.
 00041677,-0.00016734,-0.00021471,0.00001329,0.00088386,0.00050263,-0.0
 0026104,0.00044421,0.00028857,-0.00023407,-0.00005559,-0.00028076,-0.0
 0019096,0.05145713,-0.00087262,0.00059283,-0.00121645,-0.00640883,-0.0
 1371642,-0.00361298,-0.00005527,0.00071718,-0.00113731,0.00271658,-0.0
 0171006,0.00469644,-0.08719648,-0.20113270,-0.04089373,-0.00023940,0.0
 0034205,-0.00006927,0.00004610,-0.00016412,0.00004575,0.00069303,0.000
 28833,0.00024392,0.00014315,0.00015067,-0.00014540,-0.00011080,0.00044
 115,0.00036186,0.00005447,-0.00007555,0.00006938,-0.00058066,-0.001197
 46,0.00009805,0.00001518,0.00029599,-0.00005202,0.00001885,0.00051697,
 0.00003023,0.09177671,0.21465116,0.00096257,-0.00011155,0.00046691,0.0
 0840902,0.01847057,0.00394179,0.00095187,0.00067035,0.00171766,-0.0020
 1350,0.00251239,-0.00518503,-0.04088363,-0.06412524,-0.03537696,0.0001
 8694,0.00002433,-0.00006420,-0.00010133,-0.00019791,-0.00008117,-0.000
 15782,-0.00014556,0.00024503,-0.00014383,-0.00002717,0.00049407,-0.000
 22454,-0.00032029,-0.00052986,0.00008737,-0.00006687,-0.00014131,0.000
 26137,0.00179836,0.00043873,-0.00013767,-0.00028669,-0.00013921,-0.000
 30000,0.00022375,0.00013961,0.03310319,0.04158153,0.03407395\\0.000000
 31,-0.00000053,0.00000033,0.,-0.00000008,0.00000005,-0.00000005,-0.000
 00044,0.00000053,-0.00000040,0.00000072,-0.00000095,0.00000071,0.00000
 149,0.00000039,-0.00000042,-0.00000117,-0.00000002,0.00000006,0.,0.000
 00012,0.00000044,-0.00000069,0.00000109,-0.00000036,-0.00000118,-0.000
 00006,0.00000051,-0.00000071,0.00000106,0.00000007,0.,0.00000011,-0.00
 000099,-0.00000027,-0.00000144,-0.00000056,0.00000094,-0.00000129,-0.0
 0000052,0.00000092,-0.00000131,0.00000119,0.00000101,0.00000138\\\@


 IF YOU GIVE A BOY AND A PIG EVERYTHING THEY WANT,
 YOU'LL GET A BAD BOY AND A GOOD PIG.
 File lengths (MBytes):  RWF=     22 Int=      0 D2E=      0 Chk=      2 Scr=      1
 Normal termination of Gaussian 16 at Thu Aug  4 16:15:57 2022.
real 172.65
user 640.83
sys 8.30
