 Entering Gaussian System, Link 0=g16
 Input=gaussian_test.inp
 Output=gaussian_test.log
 Initial command:
 /sw/restricted/lms/sw/Gaussian/g16_B01/g16/l1.exe "/scratch/user/peterchao1/peterchao1/7003927_1675700528000000793393685/Gau-58505.inp" -scrdir="/scratch/user/peterchao1/peterchao1/7003927_1675700528000000793393685/"
 Entering Link 1 = /sw/restricted/lms/sw/Gaussian/g16_B01/g16/l1.exe PID=     58506.
  
 Copyright (c) 1988-2017, Gaussian, Inc.  All Rights Reserved.
  
 This is part of the Gaussian(R) 16 program.  It is based on
 the Gaussian(R) 09 system (copyright 2009, Gaussian, Inc.),
 the Gaussian(R) 03 system (copyright 2003, Gaussian, Inc.),
 the Gaussian(R) 98 system (copyright 1998, Gaussian, Inc.),
 the Gaussian(R) 94 system (copyright 1995, Gaussian, Inc.),
 the Gaussian 92(TM) system (copyright 1992, Gaussian, Inc.),
 the Gaussian 90(TM) system (copyright 1990, Gaussian, Inc.),
 the Gaussian 88(TM) system (copyright 1988, Gaussian, Inc.),
 the Gaussian 86(TM) system (copyright 1986, Carnegie Mellon
 University), and the Gaussian 82(TM) system (copyright 1983,
 Carnegie Mellon University). Gaussian is a federally registered
 trademark of Gaussian, Inc.
  
 This software contains proprietary and confidential information,
 including trade secrets, belonging to Gaussian, Inc.
  
 This software is provided under written license and may be
 used, copied, transmitted, or stored only in accord with that
 written license.
  
 The following legend is applicable only to US Government
 contracts under FAR:
  
                    RESTRICTED RIGHTS LEGEND
  
 Use, reproduction and disclosure by the US Government is
 subject to restrictions as set forth in subparagraphs (a)
 and (c) of the Commercial Computer Software - Restricted
 Rights clause in FAR 52.227-19.
  
 Gaussian, Inc.
 340 Quinnipiac St., Bldg. 40, Wallingford CT 06492
  
  
 ---------------------------------------------------------------
 Warning -- This program may not be used in any manner that
 competes with the business of Gaussian, Inc. or will provide
 assistance to any competitor of Gaussian, Inc.  The licensee
 of this program is prohibited from giving any competitor of
 Gaussian, Inc. access to this program.  By using this program,
 the user acknowledges that Gaussian, Inc. is engaged in the
 business of creating and licensing software in the field of
 computational chemistry and represents and warrants to the
 licensee that it is not a competitor of Gaussian, Inc. and that
 it will not use this program in any manner prohibited above.
 ---------------------------------------------------------------
  

 Cite this work as:
 Gaussian 16, Revision B.01,
 M. J. Frisch, G. W. Trucks, H. B. Schlegel, G. E. Scuseria, 
 M. A. Robb, J. R. Cheeseman, G. Scalmani, V. Barone, 
 G. A. Petersson, H. Nakatsuji, X. Li, M. Caricato, A. V. Marenich, 
 J. Bloino, B. G. Janesko, R. Gomperts, B. Mennucci, H. P. Hratchian, 
 J. V. Ortiz, A. F. Izmaylov, J. L. Sonnenberg, D. Williams-Young, 
 F. Ding, F. Lipparini, F. Egidi, J. Goings, B. Peng, A. Petrone, 
 T. Henderson, D. Ranasinghe, V. G. Zakrzewski, J. Gao, N. Rega, 
 G. Zheng, W. Liang, M. Hada, M. Ehara, K. Toyota, R. Fukuda, 
 J. Hasegawa, M. Ishida, T. Nakajima, Y. Honda, O. Kitao, H. Nakai, 
 T. Vreven, K. Throssell, J. A. Montgomery, Jr., J. E. Peralta, 
 F. Ogliaro, M. J. Bearpark, J. J. Heyd, E. N. Brothers, K. N. Kudin, 
 V. N. Staroverov, T. A. Keith, R. Kobayashi, J. Normand, 
 K. Raghavachari, A. P. Rendell, J. C. Burant, S. S. Iyengar, 
 J. Tomasi, M. Cossi, J. M. Millam, M. Klene, C. Adamo, R. Cammi, 
 J. W. Ochterski, R. L. Martin, K. Morokuma, O. Farkas, 
 J. B. Foresman, and D. J. Fox, Gaussian, Inc., Wallingford CT, 2016.
 
 ******************************************
 Gaussian 16:  ES64L-G16RevB.01 20-Dec-2017
                 6-Feb-2023 
 ******************************************
 %nprocshared=4
 Will use up to    4 processors via shared memory.
 %mem=8000mb
 %chk=9.chk
 %nprocshared=4
 Will use up to    4 processors via shared memory.
 %mem=8000mb
 ----------------------------------------------------------------------
 #T wB97XD/def2svpp opt=tight freq int(grid=ultrafine) scf=(verytight,q
 c) Volume=tight
 ----------------------------------------------------------------------
 -------
 Monomer
 -------
 Symbolic Z-matrix:
 Charge =  0 Multiplicity = 1
 O                     1.37215  -0.93164   0.02359 
 C                     1.25473   0.46648   0.23126 
 C                    -0.03338   1.04715  -0.34588 
 C                    -1.2935    0.3992    0.22971 
 O                    -1.40856  -0.95737  -0.1011 
 H                     1.46046  -1.09668  -0.92594 
 H                     2.13769   0.99631  -0.17712 
 H                     1.2715    0.60082   1.32579 
 H                    -0.03681   0.92211  -1.4459 
 H                    -0.04955   2.13469  -0.147 
 H                    -2.1883    0.90362  -0.17171 
 H                    -1.30461   0.55234   1.33208 
 H                    -0.56618  -1.37808   0.1393 
 

 GradGradGradGradGradGradGradGradGradGradGradGradGradGradGradGradGradGrad
 Initialization pass.
                           ----------------------------
                           !    Initial Parameters    !
                           ! (Angstroms and Degrees)  !
 --------------------------                            --------------------------
 ! Name  Definition              Value          Derivative Info.                !
 --------------------------------------------------------------------------------
 ! R1    R(1,2)                  1.4183         estimate D2E/DX2                !
 ! R2    R(1,6)                  0.9678         estimate D2E/DX2                !
 ! R3    R(2,3)                  1.5263         estimate D2E/DX2                !
 ! R4    R(2,7)                  1.1078         estimate D2E/DX2                !
 ! R5    R(2,8)                  1.1029         estimate D2E/DX2                !
 ! R6    R(3,4)                  1.5294         estimate D2E/DX2                !
 ! R7    R(3,9)                  1.1071         estimate D2E/DX2                !
 ! R8    R(3,10)                 1.1057         estimate D2E/DX2                !
 ! R9    R(4,5)                  1.4011         estimate D2E/DX2                !
 ! R10   R(4,11)                 1.1028         estimate D2E/DX2                !
 ! R11   R(4,12)                 1.113          estimate D2E/DX2                !
 ! R12   R(5,13)                 0.9718         estimate D2E/DX2                !
 ! A1    A(2,1,6)              108.6212         estimate D2E/DX2                !
 ! A2    A(1,2,3)              112.9252         estimate D2E/DX2                !
 ! A3    A(1,2,7)              110.5797         estimate D2E/DX2                !
 ! A4    A(1,2,8)              105.3149         estimate D2E/DX2                !
 ! A5    A(3,2,7)              110.5686         estimate D2E/DX2                !
 ! A6    A(3,2,8)              109.985          estimate D2E/DX2                !
 ! A7    A(7,2,8)              107.187          estimate D2E/DX2                !
 ! A8    A(2,3,4)              113.0712         estimate D2E/DX2                !
 ! A9    A(2,3,9)              109.5947         estimate D2E/DX2                !
 ! A10   A(2,3,10)             108.5741         estimate D2E/DX2                !
 ! A11   A(4,3,9)              108.8768         estimate D2E/DX2                !
 ! A12   A(4,3,10)             109.692          estimate D2E/DX2                !
 ! A13   A(9,3,10)             106.8437         estimate D2E/DX2                !
 ! A14   A(3,4,5)              112.8933         estimate D2E/DX2                !
 ! A15   A(3,4,11)             109.7397         estimate D2E/DX2                !
 ! A16   A(3,4,12)             108.8252         estimate D2E/DX2                !
 ! A17   A(5,4,11)             106.8753         estimate D2E/DX2                !
 ! A18   A(5,4,12)             111.4853         estimate D2E/DX2                !
 ! A19   A(11,4,12)            106.8263         estimate D2E/DX2                !
 ! A20   A(4,5,13)             106.8325         estimate D2E/DX2                !
 ! D1    D(6,1,2,3)             66.1083         estimate D2E/DX2                !
 ! D2    D(6,1,2,7)            -58.3817         estimate D2E/DX2                !
 ! D3    D(6,1,2,8)           -173.8541         estimate D2E/DX2                !
 ! D4    D(1,2,3,4)             58.1647         estimate D2E/DX2                !
 ! D5    D(1,2,3,9)            -63.4971         estimate D2E/DX2                !
 ! D6    D(1,2,3,10)          -179.8626         estimate D2E/DX2                !
 ! D7    D(7,2,3,4)           -177.3393         estimate D2E/DX2                !
 ! D8    D(7,2,3,9)             60.9989         estimate D2E/DX2                !
 ! D9    D(7,2,3,10)           -55.3666         estimate D2E/DX2                !
 ! D10   D(8,2,3,4)            -59.1554         estimate D2E/DX2                !
 ! D11   D(8,2,3,9)            179.1828         estimate D2E/DX2                !
 ! D12   D(8,2,3,10)            62.8173         estimate D2E/DX2                !
 ! D13   D(2,3,4,5)            -64.6988         estimate D2E/DX2                !
 ! D14   D(2,3,4,11)           176.2028         estimate D2E/DX2                !
 ! D15   D(2,3,4,12)            59.6349         estimate D2E/DX2                !
 ! D16   D(9,3,4,5)             57.3661         estimate D2E/DX2                !
 ! D17   D(9,3,4,11)           -61.7323         estimate D2E/DX2                !
 ! D18   D(9,3,4,12)          -178.3002         estimate D2E/DX2                !
 ! D19   D(10,3,4,5)           173.9576         estimate D2E/DX2                !
 ! D20   D(10,3,4,11)           54.8592         estimate D2E/DX2                !
 ! D21   D(10,3,4,12)          -61.7087         estimate D2E/DX2                !
 ! D22   D(3,4,5,13)            51.3801         estimate D2E/DX2                !
 ! D23   D(11,4,5,13)          172.1254         estimate D2E/DX2                !
 ! D24   D(12,4,5,13)          -71.4838         estimate D2E/DX2                !
 --------------------------------------------------------------------------------
 Number of steps in this run=     66 maximum allowed number of steps=    100.
 GradGradGradGradGradGradGradGradGradGradGradGradGradGradGradGradGradGrad

                    Distance matrix (angstroms):
                    1          2          3          4          5
     1  O    0.000000
     2  C    1.418331   0.000000
     3  C    2.455117   1.526261   0.000000
     4  C    2.986518   2.549118   1.529396   0.000000
     5  O    2.783618   3.038244   2.443184   1.401054   0.000000
     6  H    0.967805   1.955741   2.676566   3.340278   2.988482
     7  H    2.084069   1.107754   2.178208   3.506441   4.049512
     8  H    2.013523   1.102864   2.167112   2.796654   3.412723
     9  H    2.753348   2.165300   1.107110   2.158789   2.687496
    10  H    3.384181   2.151074   1.105694   2.168238   3.377848
    11  H    4.010377   3.493987   2.166713   1.102838   2.018980
    12  H    3.328572   2.787363   2.162498   1.113009   2.084234
    13  H    1.992437   2.593562   2.530016   1.922463   0.971792
                    6          7          8          9         10
     6  H    0.000000
     7  H    2.323788   0.000000
     8  H    2.826213   1.779166   0.000000
     9  H    2.566643   2.518678   3.081742   0.000000
    10  H    3.650836   2.465930   2.503401   1.776980   0.000000
    11  H    4.228890   4.326989   3.782121   2.500564   2.467877
    12  H    3.932370   3.784738   2.576580   3.075904   2.503329
    13  H    2.306768   3.612306   2.949720   2.843223   3.562074
                   11         12         13
    11  H    0.000000
    12  H    1.779234   0.000000
    13  H    2.816760   2.386319   0.000000
 Framework group  C1[X(C3H8O2)]
 Deg. of freedom    33
                         Standard orientation:                         
 ---------------------------------------------------------------------
 Center     Atomic      Atomic             Coordinates (Angstroms)
 Number     Number       Type             X           Y           Z
 ---------------------------------------------------------------------
      1          8           0        1.372147   -0.931639    0.023588
      2          6           0        1.254728    0.466484    0.231262
      3          6           0       -0.033377    1.047148   -0.345876
      4          6           0       -1.293501    0.399196    0.229710
      5          8           0       -1.408558   -0.957374   -0.101097
      6          1           0        1.460457   -1.096678   -0.925943
      7          1           0        2.137689    0.996314   -0.177123
      8          1           0        1.271502    0.600818    1.325786
      9          1           0       -0.036810    0.922108   -1.445897
     10          1           0       -0.049549    2.134688   -0.146995
     11          1           0       -2.188304    0.903618   -0.171710
     12          1           0       -1.304614    0.552342    1.332076
     13          1           0       -0.566180   -1.378075    0.139297
 ---------------------------------------------------------------------
 Rotational constants (GHZ):           7.5867006           4.0236897           2.9174613
    86 basis functions,   157 primitive gaussians,    91 cartesian basis functions
    21 alpha electrons       21 beta electrons
       nuclear repulsion energy       195.3603371139 Hartrees.
 NAtoms=   13 NActive=   13 NUniq=   13 SFac= 1.00D+00 NAtFMM=   60 NAOKFM=F Big=F
 Nuclear repulsion after empirical dispersion term =      195.3543812842 Hartrees.
   1 Symmetry operations used in ECPInt.
 ECPInt:  NShTT=    1081 NPrTT=    4367 LenC2=    1079 LenP2D=    3696.
 LDataN:  DoStor=T MaxTD1= 4 Len=   56
 ExpMin= 1.22D-01 ExpMax= 2.27D+03 ExpMxC= 3.41D+02 IAcc=3 IRadAn=         5 AccDes= 0.00D+00
 Harris functional with IExCor= 4639 and IRadAn=       5 diagonalized for initial guess.
 HarFok:  IExCor= 4639 AccDes= 0.00D+00 IRadAn=         5 IDoV= 1 UseB2=F ITyADJ=14
 ICtDFT=  3500011 ScaDFX=  1.000000  1.000000  1.000000  1.000000
 FoFCou: FMM=F IPFlag=           0 FMFlag=      100000 FMFlg1=           0
         NFxFlg=           0 DoJE=T BraDBF=F KetDBF=T FulRan=T
         wScrn=  0.000000 ICntrl=       500 IOpCl=  0 I1Cent=   200000004 NGrid=           0
         NMat0=    1 NMatS0=      1 NMatT0=    0 NMatD0=    1 NMtDS0=    0 NMtDT0=    0
 Petite list used in FoFCou.
     Minimum is close to point  3 DX= -1.03D-02 DF= -1.14D-05 DXR=  1.75D-02 DFR=  3.04D-04 which will be used.
     Accept linear search using points  2 and  3.
     Accept linear search using points  1 and  2.
     Minimum is close to point  2 DX=  4.31D-06 DF=  0.00D+00 DXR=  4.31D-06 DFR=  0.00D+00 which will be used.
 SCF Done:  E(RwB97XD) =  -269.258243369     a.u. after    7 cycles
            Convg  =    0.3148D-09                    34 Fock formations.
              S**2 =  0.0000                  -V/T =  2.0083

 **********************************************************************

            Population analysis using the SCF Density.

 **********************************************************************

 Orbital symmetries:
       Occupied  (A) (A) (A) (A) (A) (A) (A) (A) (A) (A) (A) (A)
                 (A) (A) (A) (A) (A) (A) (A) (A) (A)
       Virtual   (A) (A) (A) (A) (A) (A) (A) (A) (A) (A) (A) (A)
                 (A) (A) (A) (A) (A) (A) (A) (A) (A) (A) (A) (A)
                 (A) (A) (A) (A) (A) (A) (A) (A) (A) (A) (A) (A)
                 (A) (A) (A) (A) (A) (A) (A) (A) (A) (A) (A) (A)
                 (A) (A) (A) (A) (A) (A) (A) (A) (A) (A) (A) (A)
                 (A) (A) (A) (A) (A)
 The electronic state is 1-A.
 Alpha  occ. eigenvalues --  -19.27078 -19.22838 -10.34975 -10.33153 -10.29603
 Alpha  occ. eigenvalues --   -1.13240  -1.09449  -0.86845  -0.76450  -0.69687
 Alpha  occ. eigenvalues --   -0.61537  -0.58781  -0.55426  -0.53141  -0.50431
 Alpha  occ. eigenvalues --   -0.48271  -0.46076  -0.42803  -0.40943  -0.36215
 Alpha  occ. eigenvalues --   -0.33962
 Alpha virt. eigenvalues --    0.12221   0.15386   0.17491   0.19121   0.20645
 Alpha virt. eigenvalues --    0.21210   0.22589   0.23469   0.27779   0.29173
 Alpha virt. eigenvalues --    0.32310   0.34394   0.50844   0.53666   0.55867
 Alpha virt. eigenvalues --    0.58960   0.59641   0.67748   0.68741   0.70440
 Alpha virt. eigenvalues --    0.72763   0.74165   0.76216   0.77196   0.77925
 Alpha virt. eigenvalues --    0.79403   0.80003   0.81714   0.83161   0.84051
 Alpha virt. eigenvalues --    0.98314   1.03834   1.10892   1.16649   1.19633
 Alpha virt. eigenvalues --    1.23146   1.29806   1.38599   1.52601   1.56821
 Alpha virt. eigenvalues --    1.61747   1.70509   1.79593   1.86367   1.91184
 Alpha virt. eigenvalues --    1.95680   2.03015   2.08345   2.14580   2.18808
 Alpha virt. eigenvalues --    2.29193   2.32038   2.40071   2.52168   2.66282
 Alpha virt. eigenvalues --    2.71546   2.74656   2.88688   2.95561   3.01520
 Alpha virt. eigenvalues --    3.04918   3.08441   3.11753   3.42119   3.47399
          Condensed to atoms (all electrons):
 Mulliken charges:
               1
     1  O   -0.501592
     2  C   -0.002708
     3  C   -0.293908
     4  C    0.035162
     5  O   -0.512769
     6  H    0.323971
     7  H    0.110404
     8  H    0.113387
     9  H    0.108329
    10  H    0.112795
    11  H    0.107311
    12  H    0.082310
    13  H    0.317309
 Sum of Mulliken charges =   0.00000
 Mulliken charges with hydrogens summed into heavy atoms:
               1
     1  O   -0.177621
     2  C    0.221083
     3  C   -0.072785
     4  C    0.224783
     5  O   -0.195460
 Electronic spatial extent (au):  <R**2>=            455.9753
 Charge=              0.0000 electrons
 Dipole moment (field-independent basis, Debye):
    X=              1.8126    Y=              1.8295    Z=             -0.7198  Tot=              2.6740
 Evaluate density.
 Using the total density.
 Monte-Carlo method of calculating molar volume:
 based on  0.001 e/bohr**3 density envelope.
 Number of points per bohr**3 =  100 CutOff= 1.00D-04
 Using the SCF density.
 There are      1566 points.  Will hold      1566 in memory.
 LenV=  1048419303 MDV=  1048576000.
 Box volume = 3846.054 fraction occupied=0.179
 Integrated density= 4.9809092953789552D+01 error= 7.8090929537895519D+00
 Molar volume =  687.672 bohr**3/mol ( 61.367 cm**3/mol)
 Recommended a0 for SCRF calculation =  3.69 angstrom (  6.97 bohr)
   1 Symmetry operations used in ECPInt.
 ECPInt:  NShTT=    1081 NPrTT=    4367 LenC2=    1079 LenP2D=    3696.
 LDataN:  DoStor=T MaxTD1= 5 Len=  102
 Calling FoFJK, ICntrl=      2127 FMM=F ISym2X=0 I1Cent= 0 IOpClX= 0 NMat=1 NMatS=1 NMatT=0.

 GradGradGradGradGradGradGradGradGradGradGradGradGradGradGradGradGradGrad
 FormGI is forming the generalized inverse of G from B-inverse, IUseBI=4.
 Internal  Forces:  Max     0.000000681 RMS     0.000000178
 Step number   1 out of a maximum of   66
 All quantities printed in internal units (Hartrees-Bohrs-Radians)
 Mixed Optimization -- En-DIIS/RFO-DIIS
 Second derivative matrix not updated -- first step.
 ITU=  0
     Eigenvalues ---    0.00377   0.00419   0.01449   0.01678   0.03531
     Eigenvalues ---    0.04748   0.04800   0.04858   0.05780   0.05904
     Eigenvalues ---    0.08409   0.11741   0.11804   0.12254   0.14028
     Eigenvalues ---    0.14036   0.16000   0.16000   0.21928   0.22025
     Eigenvalues ---    0.22026   0.29479   0.29771   0.32284   0.32839
     Eigenvalues ---    0.32908   0.33060   0.33367   0.33370   0.42713
     Eigenvalues ---    0.45446   0.53013   0.53828
 Linear search not attempted -- first point.
 Iteration  1 RMS(Cart)=  0.00000589 RMS(Int)=  0.00000000
 Iteration  2 RMS(Cart)=  0.00000000 RMS(Int)=  0.00000000
 Variable       Old X    -DE/DX   Delta X   Delta X   Delta X     New X
                                 (Linear)    (Quad)   (Total)
    R1        2.68026  -0.00000   0.00000  -0.00000  -0.00000   2.68026
    R2        1.82889  -0.00000   0.00000  -0.00000  -0.00000   1.82888
    R3        2.88422   0.00000   0.00000   0.00000   0.00000   2.88422
    R4        2.09335  -0.00000   0.00000  -0.00000  -0.00000   2.09335
    R5        2.08411  -0.00000   0.00000  -0.00000  -0.00000   2.08411
    R6        2.89014  -0.00000   0.00000  -0.00000  -0.00000   2.89014
    R7        2.09214   0.00000   0.00000   0.00000   0.00000   2.09214
    R8        2.08946  -0.00000   0.00000  -0.00000  -0.00000   2.08946
    R9        2.64761  -0.00000   0.00000  -0.00000  -0.00000   2.64761
   R10        2.08406  -0.00000   0.00000  -0.00000  -0.00000   2.08406
   R11        2.10328  -0.00000   0.00000  -0.00000  -0.00000   2.10328
   R12        1.83642  -0.00000   0.00000  -0.00000  -0.00000   1.83642
    A1        1.89580  -0.00000   0.00000  -0.00000  -0.00000   1.89580
    A2        1.97092   0.00000   0.00000   0.00000   0.00000   1.97092
    A3        1.92998  -0.00000   0.00000  -0.00000  -0.00000   1.92998
    A4        1.83809  -0.00000   0.00000  -0.00000  -0.00000   1.83809
    A5        1.92979   0.00000   0.00000   0.00000   0.00000   1.92979
    A6        1.91960  -0.00000   0.00000   0.00000   0.00000   1.91960
    A7        1.87077  -0.00000   0.00000   0.00000   0.00000   1.87077
    A8        1.97346  -0.00000   0.00000   0.00000   0.00000   1.97346
    A9        1.91279   0.00000   0.00000   0.00000   0.00000   1.91279
   A10        1.89498  -0.00000   0.00000  -0.00000  -0.00000   1.89497
   A11        1.90026  -0.00000   0.00000  -0.00000  -0.00000   1.90026
   A12        1.91449   0.00000   0.00000   0.00000   0.00000   1.91449
   A13        1.86477  -0.00000   0.00000  -0.00000  -0.00000   1.86477
   A14        1.97036  -0.00000   0.00000  -0.00000  -0.00000   1.97036
   A15        1.91532   0.00000   0.00000   0.00000   0.00000   1.91532
   A16        1.89936  -0.00000   0.00000  -0.00000  -0.00000   1.89936
   A17        1.86533  -0.00000   0.00000  -0.00000  -0.00000   1.86533
   A18        1.94579   0.00000   0.00000  -0.00000  -0.00000   1.94579
   A19        1.86447  -0.00000   0.00000  -0.00000  -0.00000   1.86447
   A20        1.86458  -0.00000   0.00000  -0.00000  -0.00000   1.86458
    D1        1.15381   0.00000   0.00000   0.00001   0.00001   1.15382
    D2       -1.01895   0.00000   0.00000   0.00001   0.00001  -1.01894
    D3       -3.03433   0.00000   0.00000   0.00001   0.00001  -3.03432
    D4        1.01517  -0.00000   0.00000   0.00001   0.00001   1.01517
    D5       -1.10823   0.00000   0.00000   0.00001   0.00001  -1.10823
    D6       -3.13919   0.00000   0.00000   0.00001   0.00001  -3.13918
    D7       -3.09515  -0.00000   0.00000   0.00001   0.00001  -3.09515
    D8        1.06463  -0.00000   0.00000   0.00001   0.00001   1.06464
    D9       -0.96633   0.00000   0.00000   0.00001   0.00001  -0.96632
   D10       -1.03246  -0.00000   0.00000   0.00001   0.00001  -1.03245
   D11        3.12733   0.00000   0.00000   0.00001   0.00001   3.12734
   D12        1.09637   0.00000   0.00000   0.00001   0.00001   1.09638
   D13       -1.12921  -0.00000   0.00000  -0.00000  -0.00000  -1.12921
   D14        3.07532  -0.00000   0.00000  -0.00001  -0.00001   3.07531
   D15        1.04083  -0.00000   0.00000  -0.00001  -0.00001   1.04082
   D16        1.00123   0.00000   0.00000  -0.00001  -0.00001   1.00122
   D17       -1.07743   0.00000   0.00000  -0.00001  -0.00001  -1.07744
   D18       -3.11193  -0.00000   0.00000  -0.00001  -0.00001  -3.11193
   D19        3.03613  -0.00000   0.00000  -0.00001  -0.00001   3.03613
   D20        0.95747  -0.00000   0.00000  -0.00001  -0.00001   0.95747
   D21       -1.07702  -0.00000   0.00000  -0.00001  -0.00001  -1.07703
   D22        0.89675   0.00000   0.00000   0.00001   0.00001   0.89676
   D23        3.00415   0.00000   0.00000   0.00001   0.00001   3.00417
   D24       -1.24763   0.00000   0.00000   0.00001   0.00001  -1.24762
         Item               Value     Threshold  Converged?
 Maximum Force            0.000001     0.000015     YES
 RMS     Force            0.000000     0.000010     YES
 Maximum Displacement     0.000026     0.000060     YES
 RMS     Displacement     0.000006     0.000040     YES
 Optimization completed.
    -- Stationary point found.
                           ----------------------------
                           !   Optimized Parameters   !
                           ! (Angstroms and Degrees)  !
 --------------------------                            --------------------------
 ! Name  Definition              Value          Derivative Info.                !
 --------------------------------------------------------------------------------
 ! R1    R(1,2)                  1.4183         -DE/DX =    0.0                 !
 ! R2    R(1,6)                  0.9678         -DE/DX =    0.0                 !
 ! R3    R(2,3)                  1.5263         -DE/DX =    0.0                 !
 ! R4    R(2,7)                  1.1078         -DE/DX =    0.0                 !
 ! R5    R(2,8)                  1.1029         -DE/DX =    0.0                 !
 ! R6    R(3,4)                  1.5294         -DE/DX =    0.0                 !
 ! R7    R(3,9)                  1.1071         -DE/DX =    0.0                 !
 ! R8    R(3,10)                 1.1057         -DE/DX =    0.0                 !
 ! R9    R(4,5)                  1.4011         -DE/DX =    0.0                 !
 ! R10   R(4,11)                 1.1028         -DE/DX =    0.0                 !
 ! R11   R(4,12)                 1.113          -DE/DX =    0.0                 !
 ! R12   R(5,13)                 0.9718         -DE/DX =    0.0                 !
 ! A1    A(2,1,6)              108.6212         -DE/DX =    0.0                 !
 ! A2    A(1,2,3)              112.9252         -DE/DX =    0.0                 !
 ! A3    A(1,2,7)              110.5797         -DE/DX =    0.0                 !
 ! A4    A(1,2,8)              105.3149         -DE/DX =    0.0                 !
 ! A5    A(3,2,7)              110.5686         -DE/DX =    0.0                 !
 ! A6    A(3,2,8)              109.985          -DE/DX =    0.0                 !
 ! A7    A(7,2,8)              107.187          -DE/DX =    0.0                 !
 ! A8    A(2,3,4)              113.0712         -DE/DX =    0.0                 !
 ! A9    A(2,3,9)              109.5947         -DE/DX =    0.0                 !
 ! A10   A(2,3,10)             108.5741         -DE/DX =    0.0                 !
 ! A11   A(4,3,9)              108.8768         -DE/DX =    0.0                 !
 ! A12   A(4,3,10)             109.692          -DE/DX =    0.0                 !
 ! A13   A(9,3,10)             106.8437         -DE/DX =    0.0                 !
 ! A14   A(3,4,5)              112.8933         -DE/DX =    0.0                 !
 ! A15   A(3,4,11)             109.7397         -DE/DX =    0.0                 !
 ! A16   A(3,4,12)             108.8252         -DE/DX =    0.0                 !
 ! A17   A(5,4,11)             106.8753         -DE/DX =    0.0                 !
 ! A18   A(5,4,12)             111.4853         -DE/DX =    0.0                 !
 ! A19   A(11,4,12)            106.8263         -DE/DX =    0.0                 !
 ! A20   A(4,5,13)             106.8325         -DE/DX =    0.0                 !
 ! D1    D(6,1,2,3)             66.1083         -DE/DX =    0.0                 !
 ! D2    D(6,1,2,7)            -58.3817         -DE/DX =    0.0                 !
 ! D3    D(6,1,2,8)           -173.8541         -DE/DX =    0.0                 !
 ! D4    D(1,2,3,4)             58.1647         -DE/DX =    0.0                 !
 ! D5    D(1,2,3,9)            -63.4971         -DE/DX =    0.0                 !
 ! D6    D(1,2,3,10)          -179.8626         -DE/DX =    0.0                 !
 ! D7    D(7,2,3,4)           -177.3393         -DE/DX =    0.0                 !
 ! D8    D(7,2,3,9)             60.9989         -DE/DX =    0.0                 !
 ! D9    D(7,2,3,10)           -55.3666         -DE/DX =    0.0                 !
 ! D10   D(8,2,3,4)            -59.1554         -DE/DX =    0.0                 !
 ! D11   D(8,2,3,9)            179.1828         -DE/DX =    0.0                 !
 ! D12   D(8,2,3,10)            62.8173         -DE/DX =    0.0                 !
 ! D13   D(2,3,4,5)            -64.6988         -DE/DX =    0.0                 !
 ! D14   D(2,3,4,11)           176.2028         -DE/DX =    0.0                 !
 ! D15   D(2,3,4,12)            59.6349         -DE/DX =    0.0                 !
 ! D16   D(9,3,4,5)             57.3661         -DE/DX =    0.0                 !
 ! D17   D(9,3,4,11)           -61.7323         -DE/DX =    0.0                 !
 ! D18   D(9,3,4,12)          -178.3002         -DE/DX =    0.0                 !
 ! D19   D(10,3,4,5)           173.9576         -DE/DX =    0.0                 !
 ! D20   D(10,3,4,11)           54.8592         -DE/DX =    0.0                 !
 ! D21   D(10,3,4,12)          -61.7087         -DE/DX =    0.0                 !
 ! D22   D(3,4,5,13)            51.3801         -DE/DX =    0.0                 !
 ! D23   D(11,4,5,13)          172.1254         -DE/DX =    0.0                 !
 ! D24   D(12,4,5,13)          -71.4838         -DE/DX =    0.0                 !
 --------------------------------------------------------------------------------
 GradGradGradGradGradGradGradGradGradGradGradGradGradGradGradGradGradGrad

                    Distance matrix (angstroms):
                    1          2          3          4          5
     1  O    0.000000
     2  C    1.418331   0.000000
     3  C    2.455117   1.526261   0.000000
     4  C    2.986518   2.549118   1.529396   0.000000
     5  O    2.783618   3.038244   2.443184   1.401054   0.000000
     6  H    0.967805   1.955741   2.676566   3.340278   2.988482
     7  H    2.084069   1.107754   2.178208   3.506441   4.049512
     8  H    2.013523   1.102864   2.167112   2.796654   3.412723
     9  H    2.753348   2.165300   1.107110   2.158789   2.687496
    10  H    3.384181   2.151074   1.105694   2.168238   3.377848
    11  H    4.010377   3.493987   2.166713   1.102838   2.018980
    12  H    3.328572   2.787363   2.162498   1.113009   2.084234
    13  H    1.992437   2.593562   2.530016   1.922463   0.971792
                    6          7          8          9         10
     6  H    0.000000
     7  H    2.323788   0.000000
     8  H    2.826213   1.779166   0.000000
     9  H    2.566643   2.518678   3.081742   0.000000
    10  H    3.650836   2.465930   2.503401   1.776980   0.000000
    11  H    4.228890   4.326989   3.782121   2.500564   2.467877
    12  H    3.932370   3.784738   2.576580   3.075904   2.503329
    13  H    2.306768   3.612306   2.949720   2.843223   3.562074
                   11         12         13
    11  H    0.000000
    12  H    1.779234   0.000000
    13  H    2.816760   2.386319   0.000000
 Framework group  C1[X(C3H8O2)]
 Deg. of freedom    33
                         Standard orientation:                         
 ---------------------------------------------------------------------
 Center     Atomic      Atomic             Coordinates (Angstroms)
 Number     Number       Type             X           Y           Z
 ---------------------------------------------------------------------
      1          8           0        1.372147   -0.931639    0.023588
      2          6           0        1.254728    0.466484    0.231262
      3          6           0       -0.033377    1.047148   -0.345876
      4          6           0       -1.293501    0.399196    0.229710
      5          8           0       -1.408558   -0.957374   -0.101097
      6          1           0        1.460457   -1.096678   -0.925943
      7          1           0        2.137689    0.996314   -0.177123
      8          1           0        1.271502    0.600818    1.325786
      9          1           0       -0.036810    0.922108   -1.445897
     10          1           0       -0.049549    2.134688   -0.146995
     11          1           0       -2.188304    0.903618   -0.171710
     12          1           0       -1.304614    0.552342    1.332076
     13          1           0       -0.566180   -1.378075    0.139297
 ---------------------------------------------------------------------
 Rotational constants (GHZ):           7.5867006           4.0236897           2.9174613
 1\1\GINC-C041\FOpt\RwB97XD\def2SVPP\C3H8O2\PETERCHAO1\06-Feb-2023\0\\#
 T wB97XD/def2svpp opt=tight freq int(grid=ultrafine) scf=(verytight,qc
 ) Volume=tight\\Monomer\\0,1\O,1.372147,-0.931639,0.023588\C,1.254728,
 0.466484,0.231262\C,-0.033377,1.047148,-0.345876\C,-1.293501,0.399196,
 0.22971\O,-1.408558,-0.957374,-0.101097\H,1.460457,-1.096678,-0.925943
 \H,2.137689,0.996314,-0.177123\H,1.271502,0.600818,1.325786\H,-0.03681
 ,0.922108,-1.445897\H,-0.049549,2.134688,-0.146995\H,-2.188304,0.90361
 8,-0.17171\H,-1.304614,0.552342,1.332076\H,-0.56618,-1.378075,0.139297
 \\Version=ES64L-G16RevB.01\State=1-A\HF=-269.2582434\RMSD=6.025e-12\RM
 SF=5.770e-07\Dipole=0.7131228,0.7197671,-0.2831831\Quadrupole=-2.00103
 31,0.278115,1.7229181,-1.4776748,-2.1013091,1.1372645\PG=C01 [X(C3H8O2
 )]\\@


 WHEN ALL ELSE FAILS, LOOK AT THE SCHRODINGER EQUATION.
     -- RUSSELL T. PACK, APRIL 1978
 File lengths (MBytes):  RWF=      6 Int=      0 D2E=      0 Chk=      2 Scr=      1
 Normal termination of Gaussian 16 at Mon Feb  6 10:22:32 2023.
 Link1:  Proceeding to internal job step number  2.
 ---------------------------------------------------------------------
 #T Geom=AllCheck Guess=TCheck SCRF=Check GenChk RwB97XD/def2SVPP Freq
 ---------------------------------------------------------------------
 Structure from the checkpoint file:  "9.chk"
 -------
 Monomer
 -------
 Charge =  0 Multiplicity = 1
 Redundant internal coordinates found in file.  (old form).
 O,0,1.372147,-0.931639,0.023588
 C,0,1.254728,0.466484,0.231262
 C,0,-0.033377,1.047148,-0.345876
 C,0,-1.293501,0.399196,0.22971
 O,0,-1.408558,-0.957374,-0.101097
 H,0,1.460457,-1.096678,-0.925943
 H,0,2.137689,0.996314,-0.177123
 H,0,1.271502,0.600818,1.325786
 H,0,-0.03681,0.922108,-1.445897
 H,0,-0.049549,2.134688,-0.146995
 H,0,-2.188304,0.903618,-0.17171
 H,0,-1.304614,0.552342,1.332076
 H,0,-0.56618,-1.378075,0.139297
 Recover connectivity data from disk.

 GradGradGradGradGradGradGradGradGradGradGradGradGradGradGradGradGradGrad
 Initialization pass.
                           ----------------------------
                           !    Initial Parameters    !
                           ! (Angstroms and Degrees)  !
 --------------------------                            --------------------------
 ! Name  Definition              Value          Derivative Info.                !
 --------------------------------------------------------------------------------
 ! R1    R(1,2)                  1.4183         calculate D2E/DX2 analytically  !
 ! R2    R(1,6)                  0.9678         calculate D2E/DX2 analytically  !
 ! R3    R(2,3)                  1.5263         calculate D2E/DX2 analytically  !
 ! R4    R(2,7)                  1.1078         calculate D2E/DX2 analytically  !
 ! R5    R(2,8)                  1.1029         calculate D2E/DX2 analytically  !
 ! R6    R(3,4)                  1.5294         calculate D2E/DX2 analytically  !
 ! R7    R(3,9)                  1.1071         calculate D2E/DX2 analytically  !
 ! R8    R(3,10)                 1.1057         calculate D2E/DX2 analytically  !
 ! R9    R(4,5)                  1.4011         calculate D2E/DX2 analytically  !
 ! R10   R(4,11)                 1.1028         calculate D2E/DX2 analytically  !
 ! R11   R(4,12)                 1.113          calculate D2E/DX2 analytically  !
 ! R12   R(5,13)                 0.9718         calculate D2E/DX2 analytically  !
 ! A1    A(2,1,6)              108.6212         calculate D2E/DX2 analytically  !
 ! A2    A(1,2,3)              112.9252         calculate D2E/DX2 analytically  !
 ! A3    A(1,2,7)              110.5797         calculate D2E/DX2 analytically  !
 ! A4    A(1,2,8)              105.3149         calculate D2E/DX2 analytically  !
 ! A5    A(3,2,7)              110.5686         calculate D2E/DX2 analytically  !
 ! A6    A(3,2,8)              109.985          calculate D2E/DX2 analytically  !
 ! A7    A(7,2,8)              107.187          calculate D2E/DX2 analytically  !
 ! A8    A(2,3,4)              113.0712         calculate D2E/DX2 analytically  !
 ! A9    A(2,3,9)              109.5947         calculate D2E/DX2 analytically  !
 ! A10   A(2,3,10)             108.5741         calculate D2E/DX2 analytically  !
 ! A11   A(4,3,9)              108.8768         calculate D2E/DX2 analytically  !
 ! A12   A(4,3,10)             109.692          calculate D2E/DX2 analytically  !
 ! A13   A(9,3,10)             106.8437         calculate D2E/DX2 analytically  !
 ! A14   A(3,4,5)              112.8933         calculate D2E/DX2 analytically  !
 ! A15   A(3,4,11)             109.7397         calculate D2E/DX2 analytically  !
 ! A16   A(3,4,12)             108.8252         calculate D2E/DX2 analytically  !
 ! A17   A(5,4,11)             106.8753         calculate D2E/DX2 analytically  !
 ! A18   A(5,4,12)             111.4853         calculate D2E/DX2 analytically  !
 ! A19   A(11,4,12)            106.8263         calculate D2E/DX2 analytically  !
 ! A20   A(4,5,13)             106.8325         calculate D2E/DX2 analytically  !
 ! D1    D(6,1,2,3)             66.1083         calculate D2E/DX2 analytically  !
 ! D2    D(6,1,2,7)            -58.3817         calculate D2E/DX2 analytically  !
 ! D3    D(6,1,2,8)           -173.8541         calculate D2E/DX2 analytically  !
 ! D4    D(1,2,3,4)             58.1647         calculate D2E/DX2 analytically  !
 ! D5    D(1,2,3,9)            -63.4971         calculate D2E/DX2 analytically  !
 ! D6    D(1,2,3,10)          -179.8626         calculate D2E/DX2 analytically  !
 ! D7    D(7,2,3,4)           -177.3393         calculate D2E/DX2 analytically  !
 ! D8    D(7,2,3,9)             60.9989         calculate D2E/DX2 analytically  !
 ! D9    D(7,2,3,10)           -55.3666         calculate D2E/DX2 analytically  !
 ! D10   D(8,2,3,4)            -59.1554         calculate D2E/DX2 analytically  !
 ! D11   D(8,2,3,9)            179.1828         calculate D2E/DX2 analytically  !
 ! D12   D(8,2,3,10)            62.8173         calculate D2E/DX2 analytically  !
 ! D13   D(2,3,4,5)            -64.6988         calculate D2E/DX2 analytically  !
 ! D14   D(2,3,4,11)           176.2028         calculate D2E/DX2 analytically  !
 ! D15   D(2,3,4,12)            59.6349         calculate D2E/DX2 analytically  !
 ! D16   D(9,3,4,5)             57.3661         calculate D2E/DX2 analytically  !
 ! D17   D(9,3,4,11)           -61.7323         calculate D2E/DX2 analytically  !
 ! D18   D(9,3,4,12)          -178.3002         calculate D2E/DX2 analytically  !
 ! D19   D(10,3,4,5)           173.9576         calculate D2E/DX2 analytically  !
 ! D20   D(10,3,4,11)           54.8592         calculate D2E/DX2 analytically  !
 ! D21   D(10,3,4,12)          -61.7087         calculate D2E/DX2 analytically  !
 ! D22   D(3,4,5,13)            51.3801         calculate D2E/DX2 analytically  !
 ! D23   D(11,4,5,13)          172.1254         calculate D2E/DX2 analytically  !
 ! D24   D(12,4,5,13)          -71.4838         calculate D2E/DX2 analytically  !
 --------------------------------------------------------------------------------
 Number of steps in this run=      2 maximum allowed number of steps=      2.
 GradGradGradGradGradGradGradGradGradGradGradGradGradGradGradGradGradGrad

                    Distance matrix (angstroms):
                    1          2          3          4          5
     1  O    0.000000
     2  C    1.418331   0.000000
     3  C    2.455117   1.526261   0.000000
     4  C    2.986518   2.549118   1.529396   0.000000
     5  O    2.783618   3.038244   2.443184   1.401054   0.000000
     6  H    0.967805   1.955741   2.676566   3.340278   2.988482
     7  H    2.084069   1.107754   2.178208   3.506441   4.049512
     8  H    2.013523   1.102864   2.167112   2.796654   3.412723
     9  H    2.753348   2.165300   1.107110   2.158789   2.687496
    10  H    3.384181   2.151074   1.105694   2.168238   3.377848
    11  H    4.010377   3.493987   2.166713   1.102838   2.018980
    12  H    3.328572   2.787363   2.162498   1.113009   2.084234
    13  H    1.992437   2.593562   2.530016   1.922463   0.971792
                    6          7          8          9         10
     6  H    0.000000
     7  H    2.323788   0.000000
     8  H    2.826213   1.779166   0.000000
     9  H    2.566643   2.518678   3.081742   0.000000
    10  H    3.650836   2.465930   2.503401   1.776980   0.000000
    11  H    4.228890   4.326989   3.782121   2.500564   2.467877
    12  H    3.932370   3.784738   2.576580   3.075904   2.503329
    13  H    2.306768   3.612306   2.949720   2.843223   3.562074
                   11         12         13
    11  H    0.000000
    12  H    1.779234   0.000000
    13  H    2.816760   2.386319   0.000000
 Framework group  C1[X(C3H8O2)]
 Deg. of freedom    33
                         Standard orientation:                         
 ---------------------------------------------------------------------
 Center     Atomic      Atomic             Coordinates (Angstroms)
 Number     Number       Type             X           Y           Z
 ---------------------------------------------------------------------
      1          8           0        1.372147   -0.931639    0.023588
      2          6           0        1.254728    0.466484    0.231262
      3          6           0       -0.033377    1.047148   -0.345876
      4          6           0       -1.293501    0.399196    0.229710
      5          8           0       -1.408558   -0.957374   -0.101097
      6          1           0        1.460457   -1.096678   -0.925943
      7          1           0        2.137689    0.996314   -0.177123
      8          1           0        1.271502    0.600818    1.325786
      9          1           0       -0.036810    0.922108   -1.445897
     10          1           0       -0.049549    2.134688   -0.146995
     11          1           0       -2.188304    0.903618   -0.171710
     12          1           0       -1.304614    0.552342    1.332076
     13          1           0       -0.566180   -1.378075    0.139297
 ---------------------------------------------------------------------
 Rotational constants (GHZ):           7.5867006           4.0236897           2.9174613
    86 basis functions,   157 primitive gaussians,    91 cartesian basis functions
    21 alpha electrons       21 beta electrons
       nuclear repulsion energy       195.3603371139 Hartrees.
 NAtoms=   13 NActive=   13 NUniq=   13 SFac= 1.00D+00 NAtFMM=   60 NAOKFM=F Big=F
 Nuclear repulsion after empirical dispersion term =      195.3543812842 Hartrees.
   1 Symmetry operations used in ECPInt.
 ECPInt:  NShTT=    1081 NPrTT=    4367 LenC2=    1079 LenP2D=    3696.
 LDataN:  DoStor=T MaxTD1= 4 Len=   56
 Initial guess from the checkpoint file:  "9.chk"
 B after Tr=    -0.000000   -0.000000    0.000000
         Rot=    1.000000   -0.000000    0.000000    0.000000 Ang=   0.00 deg.
 SCF Done:  E(RwB97XD) =  -269.258243369     a.u. after    1 cycles
            Convg  =    0.3189D-09                     1 Fock formations.
              S**2 =  0.0000                  -V/T =  2.0083
 DoSCS=F DFT=T ScalE2(SS,OS)=  1.000000  1.000000
 NROrb=     86 NOA=    21 NOB=    21 NVA=    65 NVB=    65
   1 Symmetry operations used in ECPInt.
 ECPInt:  NShTT=    1081 NPrTT=    4367 LenC2=    1079 LenP2D=    3696.
 LDataN:  DoStor=T MaxTD1= 5 Len=  102
 Symmetrizing basis deriv contribution to polar:
 IMax=3 JMax=2 DiffMx= 0.00D+00
 Calling FoFCou, ICntrl=  3107 FMM=F I1Cent=   0 AccDes= 0.00D+00.
 End of G2Drv F.D. properties file   721 does not exist.
 End of G2Drv F.D. properties file   722 does not exist.
 End of G2Drv F.D. properties file   788 does not exist.
          IDoAtm=1111111111111
 End of Minotr F.D. properties file   721 does not exist.
 End of Minotr F.D. properties file   722 does not exist.
 End of Minotr F.D. properties file   788 does not exist.

 **********************************************************************

            Population analysis using the SCF Density.

 **********************************************************************

 Orbital symmetries:
       Occupied  (A) (A) (A) (A) (A) (A) (A) (A) (A) (A) (A) (A)
                 (A) (A) (A) (A) (A) (A) (A) (A) (A)
       Virtual   (A) (A) (A) (A) (A) (A) (A) (A) (A) (A) (A) (A)
                 (A) (A) (A) (A) (A) (A) (A) (A) (A) (A) (A) (A)
                 (A) (A) (A) (A) (A) (A) (A) (A) (A) (A) (A) (A)
                 (A) (A) (A) (A) (A) (A) (A) (A) (A) (A) (A) (A)
                 (A) (A) (A) (A) (A) (A) (A) (A) (A) (A) (A) (A)
                 (A) (A) (A) (A) (A)
 The electronic state is 1-A.
 Alpha  occ. eigenvalues --  -19.27078 -19.22838 -10.34975 -10.33153 -10.29603
 Alpha  occ. eigenvalues --   -1.13240  -1.09449  -0.86845  -0.76450  -0.69687
 Alpha  occ. eigenvalues --   -0.61537  -0.58781  -0.55426  -0.53141  -0.50431
 Alpha  occ. eigenvalues --   -0.48271  -0.46076  -0.42803  -0.40943  -0.36215
 Alpha  occ. eigenvalues --   -0.33962
 Alpha virt. eigenvalues --    0.12221   0.15386   0.17491   0.19121   0.20645
 Alpha virt. eigenvalues --    0.21210   0.22589   0.23469   0.27779   0.29173
 Alpha virt. eigenvalues --    0.32310   0.34394   0.50844   0.53666   0.55867
 Alpha virt. eigenvalues --    0.58960   0.59641   0.67748   0.68741   0.70440
 Alpha virt. eigenvalues --    0.72763   0.74165   0.76216   0.77196   0.77925
 Alpha virt. eigenvalues --    0.79403   0.80003   0.81714   0.83161   0.84051
 Alpha virt. eigenvalues --    0.98314   1.03834   1.10892   1.16649   1.19633
 Alpha virt. eigenvalues --    1.23146   1.29806   1.38599   1.52601   1.56821
 Alpha virt. eigenvalues --    1.61747   1.70509   1.79593   1.86367   1.91184
 Alpha virt. eigenvalues --    1.95680   2.03015   2.08345   2.14580   2.18808
 Alpha virt. eigenvalues --    2.29193   2.32038   2.40071   2.52168   2.66282
 Alpha virt. eigenvalues --    2.71546   2.74656   2.88688   2.95561   3.01520
 Alpha virt. eigenvalues --    3.04918   3.08441   3.11753   3.42119   3.47399
          Condensed to atoms (all electrons):
 Mulliken charges:
               1
     1  O   -0.501592
     2  C   -0.002708
     3  C   -0.293908
     4  C    0.035162
     5  O   -0.512769
     6  H    0.323971
     7  H    0.110404
     8  H    0.113387
     9  H    0.108329
    10  H    0.112795
    11  H    0.107311
    12  H    0.082310
    13  H    0.317309
 Sum of Mulliken charges =  -0.00000
 Mulliken charges with hydrogens summed into heavy atoms:
               1
     1  O   -0.177621
     2  C    0.221083
     3  C   -0.072785
     4  C    0.224783
     5  O   -0.195460
 APT charges:
               1
     1  O   -0.652285
     2  C    0.507319
     3  C   -0.027998
     4  C    0.535670
     5  O   -0.688367
     6  H    0.272212
     7  H   -0.071491
     8  H   -0.027797
     9  H   -0.036576
    10  H   -0.021024
    11  H   -0.043662
    12  H   -0.095291
    13  H    0.349291
 Sum of APT charges =  -0.00000
 APT charges with hydrogens summed into heavy atoms:
               1
     1  O   -0.380073
     2  C    0.408031
     3  C   -0.085598
     4  C    0.396717
     5  O   -0.339076
 Electronic spatial extent (au):  <R**2>=            455.9753
 Charge=             -0.0000 electrons
 Dipole moment (field-independent basis, Debye):
    X=              1.8126    Y=              1.8295    Z=             -0.7198  Tot=              2.6740
  Exact polarizability:  40.737  -0.234  39.138  -0.545   1.110  37.052
 Approx polarizability:  38.706  -0.420  41.434   0.067   1.519  39.552
   1 Symmetry operations used in ECPInt.
 ECPInt:  NShTT=    1081 NPrTT=    4367 LenC2=    1079 LenP2D=    3696.
 LDataN:  DoStor=T MaxTD1= 6 Len=  172
 Calling FoFJK, ICntrl=    100127 FMM=F ISym2X=0 I1Cent= 0 IOpClX= 0 NMat=1 NMatS=1 NMatT=0.
 Full mass-weighted force constant matrix:
 Low frequencies ---  -11.4420    0.0009    0.0010    0.0013    8.0921   20.3858
 Low frequencies ---  143.0692  225.0687  313.1607
 Diagonal vibrational polarizability:
       51.3603026      15.6971374      11.1434198
 Harmonic frequencies (cm**-1), IR intensities (KM/Mole), Raman scattering
 activities (A**4/AMU), depolarization ratios for plane and unpolarized
 incident light, reduced masses (AMU), force constants (mDyne/A),
 and normal coordinates:
                      1                      2                      3
                      A                      A                      A
 Frequencies --    143.0532               225.0236               313.1454
 Red. masses --      2.4221                 3.3076                 1.5565
 Frc consts  --      0.0292                 0.0987                 0.0899
 IR Inten    --      5.7952                 3.5105               104.1204
  Atom  AN      X      Y      Z        X      Y      Z        X      Y      Z
     1   8     0.05  -0.01  -0.16    -0.25  -0.04   0.02    -0.10  -0.02  -0.01
     2   6    -0.06  -0.06   0.13    -0.02  -0.01  -0.05    -0.09  -0.01   0.03
     3   6     0.02  -0.01  -0.01     0.00   0.13   0.05    -0.02   0.01  -0.09
     4   6    -0.07   0.07  -0.12     0.02  -0.01  -0.06     0.06   0.00   0.06
     5   8     0.04  -0.01   0.17     0.26  -0.05   0.02     0.08   0.03   0.01
     6   1     0.04   0.19  -0.20    -0.58  -0.12   0.00     0.65   0.04   0.05
     7   1    -0.01   0.07   0.42     0.02  -0.17  -0.18    -0.00  -0.03   0.20
     8   1    -0.28  -0.30   0.16     0.13   0.04  -0.06    -0.26  -0.06   0.04
     9   1     0.16  -0.01  -0.01     0.01   0.32   0.03    -0.04  -0.14  -0.07
    10   1     0.04  -0.00  -0.02    -0.00   0.09   0.25     0.00   0.03  -0.20
    11   1    -0.01  -0.05  -0.41    -0.00  -0.16  -0.20    -0.03   0.00   0.25
    12   1    -0.28   0.32  -0.16    -0.14   0.05  -0.07     0.26  -0.05   0.08
    13   1     0.11   0.10   0.12     0.25   0.07   0.27     0.24   0.11  -0.39
                      4                      5                      6
                      A                      A                      A
 Frequencies --    356.4731               411.9827               532.1655
 Red. masses --      1.7563                 2.5812                 1.6251
 Frc consts  --      0.1315                 0.2581                 0.2712
 IR Inten    --     39.8275               100.9647                13.2556
  Atom  AN      X      Y      Z        X      Y      Z        X      Y      Z
     1   8     0.09  -0.08   0.04    -0.14   0.06  -0.02     0.07  -0.04   0.03
     2   6    -0.01  -0.05  -0.10     0.12   0.07  -0.01    -0.09  -0.04  -0.04
     3   6    -0.08   0.03   0.07     0.11   0.05   0.05    -0.01   0.12  -0.08
     4   6    -0.12   0.05  -0.02     0.06  -0.08  -0.10     0.08  -0.02  -0.04
     5   8     0.04   0.04   0.01    -0.14  -0.11   0.09    -0.04  -0.03   0.03
     6   1     0.63  -0.17   0.11     0.64   0.09   0.05    -0.02  -0.11   0.04
     7   1    -0.09  -0.06  -0.27     0.15  -0.04  -0.09    -0.00   0.00   0.20
     8   1     0.16   0.04  -0.11     0.22   0.10  -0.01    -0.35  -0.07  -0.03
     9   1    -0.14   0.24   0.05     0.21   0.28   0.02    -0.01   0.59  -0.13
    10   1     0.03   0.00   0.28    -0.07   0.01   0.27     0.00   0.04   0.41
    11   1    -0.09  -0.01  -0.17     0.14  -0.02  -0.21    -0.02  -0.03   0.19
    12   1    -0.28   0.10  -0.03    -0.04   0.03  -0.11     0.32  -0.05  -0.03
    13   1     0.17   0.17  -0.18    -0.03  -0.10  -0.29    -0.15  -0.15   0.21
                      7                      8                      9
                      A                      A                      A
 Frequencies --    671.5563               843.1200               912.8785
 Red. masses --      1.0831                 2.7307                 1.3041
 Frc consts  --      0.2878                 1.1437                 0.6403
 IR Inten    --     93.9513                 6.6958                 6.1498
  Atom  AN      X      Y      Z        X      Y      Z        X      Y      Z
     1   8    -0.03   0.01  -0.03     0.02  -0.09  -0.01     0.02  -0.03  -0.02
     2   6    -0.00  -0.01  -0.01     0.16   0.02   0.05    -0.05  -0.01   0.10
     3   6     0.00  -0.00   0.02    -0.00   0.26  -0.08    -0.04   0.01   0.01
     4   6     0.01   0.00   0.02    -0.16   0.00   0.04     0.00   0.02  -0.10
     5   8     0.02   0.02  -0.04    -0.02  -0.09  -0.01     0.01   0.01   0.02
     6   1     0.47   0.02   0.02     0.02  -0.07  -0.01     0.05   0.17  -0.05
     7   1    -0.01   0.01   0.01     0.32  -0.15   0.20    -0.27  -0.04  -0.41
     8   1     0.01  -0.01  -0.00     0.11  -0.12   0.07     0.48   0.11   0.08
     9   1    -0.04  -0.11   0.03     0.02  -0.15  -0.03     0.35  -0.02   0.01
    10   1     0.01   0.01  -0.07    -0.00   0.35  -0.52    -0.10   0.02  -0.03
    11   1     0.02  -0.02  -0.03    -0.34  -0.16   0.24    -0.18  -0.01   0.29
    12   1    -0.07  -0.02   0.02    -0.04  -0.15   0.06     0.43  -0.03  -0.08
    13   1    -0.32  -0.20   0.78     0.02   0.03   0.08    -0.00   0.03   0.09
                     10                     11                     12
                      A                      A                      A
 Frequencies --    944.3556               991.9322              1098.6561
 Red. masses --      2.0730                 2.0890                 1.3490
 Frc consts  --      1.0892                 1.2110                 0.9594
 IR Inten    --      7.1740                 0.0214                19.0847
  Atom  AN      X      Y      Z        X      Y      Z        X      Y      Z
     1   8     0.04  -0.07  -0.00     0.00   0.11   0.01     0.01  -0.03  -0.00
     2   6    -0.14   0.02  -0.01    -0.12  -0.09  -0.05    -0.00  -0.02   0.08
     3   6    -0.02   0.15   0.09     0.15   0.03   0.02     0.00   0.00  -0.11
     4   6     0.18   0.01   0.01    -0.08   0.07   0.05     0.01  -0.01   0.09
     5   8    -0.03  -0.04   0.00    -0.01  -0.11  -0.01     0.00   0.00  -0.02
     6   1    -0.03  -0.08  -0.01     0.01   0.03   0.03    -0.01   0.59  -0.11
     7   1    -0.21  -0.00  -0.17    -0.22  -0.02  -0.18     0.02  -0.27  -0.19
     8   1     0.06   0.01  -0.02    -0.02   0.03  -0.07     0.11   0.40   0.03
     9   1    -0.09  -0.37   0.15     0.23  -0.05   0.03    -0.20   0.21  -0.13
    10   1    -0.08   0.24  -0.41     0.84   0.06  -0.08     0.14  -0.03   0.12
    11   1     0.33  -0.03  -0.36    -0.14   0.00   0.12     0.06  -0.14  -0.19
    12   1    -0.23   0.08  -0.02    -0.04  -0.08   0.06    -0.25   0.16   0.07
    13   1    -0.09  -0.27  -0.21     0.05   0.00  -0.03    -0.07  -0.17  -0.06
                     13                     14                     15
                      A                      A                      A
 Frequencies --   1129.2192              1157.5945              1211.1531
 Red. masses --      3.5048                 2.8132                 1.3697
 Frc consts  --      2.6331                 2.2211                 1.1838
 IR Inten    --     53.2058               156.0485                 6.3865
  Atom  AN      X      Y      Z        X      Y      Z        X      Y      Z
     1   8     0.00  -0.23  -0.04    -0.01  -0.07  -0.01    -0.01   0.02  -0.01
     2   6    -0.09   0.32  -0.01     0.04   0.07   0.03     0.01   0.01   0.03
     3   6     0.15  -0.05  -0.00    -0.06  -0.06   0.03    -0.02  -0.02  -0.07
     4   6    -0.08  -0.07   0.06     0.04   0.27  -0.01     0.01   0.07   0.12
     5   8     0.00   0.03  -0.00    -0.01  -0.22  -0.05     0.00  -0.05  -0.05
     6   1     0.01  -0.10  -0.08     0.03   0.15  -0.05     0.01  -0.38   0.07
     7   1    -0.16   0.41  -0.02     0.03   0.10   0.05    -0.13   0.22  -0.02
     8   1    -0.25   0.35  -0.02    -0.09   0.17   0.02     0.23  -0.30   0.06
     9   1     0.50   0.10  -0.01    -0.46   0.03   0.03     0.38   0.15  -0.09
    10   1     0.24  -0.06   0.09    -0.01  -0.07   0.10    -0.18  -0.05   0.08
    11   1    -0.01   0.04   0.02     0.18   0.59   0.10    -0.04  -0.21  -0.12
    12   1    -0.12  -0.08   0.07     0.23   0.10  -0.01    -0.03   0.53   0.06
    13   1     0.03   0.13   0.13     0.16   0.20   0.17    -0.06  -0.19  -0.08
                     16                     17                     18
                      A                      A                      A
 Frequencies --   1263.0947              1301.5701              1393.3735
 Red. masses --      1.2131                 1.2236                 1.4162
 Frc consts  --      1.1403                 1.2213                 1.6200
 IR Inten    --      8.1165                 8.6816                 4.8632
  Atom  AN      X      Y      Z        X      Y      Z        X      Y      Z
     1   8    -0.02  -0.03   0.00     0.01  -0.01   0.01     0.00   0.01  -0.03
     2   6     0.06   0.04   0.00    -0.01  -0.01  -0.08    -0.02  -0.02   0.06
     3   6    -0.06  -0.02   0.04     0.03  -0.01   0.09     0.17   0.00  -0.01
     4   6     0.03   0.02  -0.06    -0.03   0.04   0.00    -0.00   0.06  -0.02
     5   8     0.00   0.02   0.01     0.01  -0.01  -0.02    -0.00  -0.00   0.00
     6   1    -0.00   0.04  -0.01    -0.01   0.27  -0.04     0.00  -0.32   0.03
     7   1    -0.06   0.31   0.08     0.24  -0.33   0.07    -0.18   0.07  -0.15
     8   1    -0.04  -0.00   0.01    -0.34   0.25  -0.11    -0.07   0.23   0.03
     9   1    -0.31  -0.06   0.05     0.30  -0.14   0.11    -0.49  -0.10   0.00
    10   1     0.53  -0.00   0.01    -0.31  -0.00  -0.02    -0.47  -0.04   0.14
    11   1    -0.27  -0.44   0.05    -0.19  -0.21   0.08    -0.30  -0.32   0.15
    12   1     0.18   0.19  -0.08     0.22   0.40  -0.03    -0.12  -0.12   0.01
    13   1    -0.14  -0.32  -0.14    -0.06  -0.16  -0.06    -0.02  -0.05  -0.05
                     19                     20                     21
                      A                      A                      A
 Frequencies --   1398.2377              1421.7712              1443.9154
 Red. masses --      1.2139                 1.3236                 1.3710
 Frc consts  --      1.3982                 1.5764                 1.6841
 IR Inten    --      6.8670                 1.2500                30.9352
  Atom  AN      X      Y      Z        X      Y      Z        X      Y      Z
     1   8    -0.02  -0.03   0.05    -0.00  -0.01   0.03    -0.01   0.01  -0.03
     2   6     0.06  -0.07  -0.06    -0.03  -0.01  -0.03     0.09  -0.10   0.05
     3   6     0.02   0.00   0.00     0.10   0.04   0.01    -0.05   0.05   0.01
     4   6     0.00   0.04   0.00    -0.05  -0.10   0.02     0.01  -0.07   0.02
     5   8     0.01  -0.00   0.01    -0.02   0.00  -0.02    -0.02   0.00  -0.01
     6   1    -0.01   0.50  -0.05    -0.00   0.28  -0.03    -0.00  -0.26   0.02
     7   1    -0.30   0.55  -0.06    -0.13   0.20   0.02    -0.25   0.28  -0.18
     8   1    -0.16  -0.16  -0.06     0.18  -0.28  -0.00    -0.44   0.57  -0.01
     9   1     0.16   0.16  -0.02    -0.40  -0.08   0.02     0.14  -0.07   0.02
    10   1    -0.28   0.03  -0.18    -0.09   0.03   0.00     0.07   0.06  -0.02
    11   1    -0.04   0.02   0.07     0.10   0.05  -0.13     0.14   0.09  -0.07
    12   1    -0.20  -0.23   0.03     0.39   0.50  -0.04     0.10   0.24  -0.01
    13   1    -0.04  -0.12  -0.06     0.11   0.30   0.12     0.08   0.24   0.08
                     22                     23                     24
                      A                      A                      A
 Frequencies --   1465.3701              1487.1618              1507.6177
 Red. masses --      1.1185                 1.2378                 1.0911
 Frc consts  --      1.4151                 1.6130                 1.4612
 IR Inten    --      9.6885                98.5300                 9.0754
  Atom  AN      X      Y      Z        X      Y      Z        X      Y      Z
     1   8     0.00   0.01  -0.01     0.00  -0.00   0.01    -0.00  -0.01  -0.00
     2   6    -0.01   0.00   0.02     0.00   0.02  -0.00    -0.04  -0.05  -0.04
     3   6     0.03  -0.06   0.06    -0.02  -0.03   0.02    -0.01  -0.00   0.01
     4   6    -0.03  -0.02  -0.00     0.11   0.02   0.01     0.00   0.03   0.02
     5   8     0.01   0.01   0.00    -0.06  -0.01  -0.03    -0.01  -0.00  -0.00
     6   1     0.01  -0.16   0.02     0.01   0.09  -0.01    -0.00  -0.01  -0.01
     7   1     0.01  -0.08  -0.03     0.02  -0.12  -0.11     0.08   0.23   0.54
     8   1    -0.01   0.09   0.02    -0.10  -0.15   0.01     0.42   0.43  -0.09
     9   1    -0.16   0.66  -0.03     0.04   0.20   0.00     0.07   0.03   0.00
    10   1    -0.03   0.08  -0.65     0.05   0.01  -0.19    -0.05  -0.00  -0.03
    11   1     0.04   0.09  -0.03    -0.18  -0.50   0.04     0.01  -0.22  -0.30
    12   1     0.13   0.07  -0.01    -0.20  -0.01   0.01     0.20  -0.23   0.05
    13   1    -0.05  -0.14  -0.04     0.22   0.64   0.23     0.04   0.13   0.03
                     25                     26                     27
                      A                      A                      A
 Frequencies --   1520.0251              2966.8637              3022.4215
 Red. masses --      1.0938                 1.0734                 1.0672
 Frc consts  --      1.4889                 5.5669                 5.7437
 IR Inten    --      0.5942                75.9309                42.2607
  Atom  AN      X      Y      Z        X      Y      Z        X      Y      Z
     1   8    -0.00  -0.00  -0.00     0.00   0.00   0.00     0.00  -0.00  -0.00
     2   6    -0.03  -0.02  -0.02     0.00   0.00   0.00    -0.06  -0.03   0.00
     3   6     0.00  -0.00   0.00    -0.00   0.00   0.00     0.00   0.02  -0.02
     4   6     0.05  -0.05  -0.04     0.01  -0.01  -0.07     0.00  -0.00  -0.00
     5   8     0.00  -0.00  -0.00    -0.00  -0.00  -0.00     0.00  -0.00   0.00
     6   1    -0.01  -0.01  -0.00    -0.00  -0.00  -0.00     0.00  -0.00  -0.00
     7   1     0.05   0.11   0.31    -0.01  -0.01   0.01     0.67   0.39  -0.32
     8   1     0.27   0.20  -0.05     0.00  -0.00  -0.01    -0.00   0.03   0.29
     9   1    -0.02   0.03   0.00    -0.00  -0.01  -0.06     0.00   0.04   0.34
    10   1     0.02   0.00  -0.05     0.01  -0.03  -0.01     0.00  -0.29  -0.06
    11   1    -0.09   0.22   0.57    -0.15   0.09  -0.08    -0.03   0.02  -0.01
    12   1    -0.48   0.38  -0.08    -0.01   0.11   0.97     0.00   0.00   0.02
    13   1     0.01   0.02   0.01     0.01  -0.01   0.00    -0.00   0.00  -0.00
                     28                     29                     30
                      A                      A                      A
 Frequencies --   3034.9210              3090.8715              3102.2391
 Red. masses --      1.0658                 1.1032                 1.0949
 Frc consts  --      5.7838                 6.2096                 6.2081
 IR Inten    --     35.9083                19.7994                40.7846
  Atom  AN      X      Y      Z        X      Y      Z        X      Y      Z
     1   8    -0.00   0.00  -0.00     0.00   0.00  -0.00    -0.00  -0.00  -0.00
     2   6     0.03   0.02   0.01    -0.01  -0.00   0.03    -0.00   0.00   0.01
     3   6    -0.00   0.03  -0.05     0.00  -0.07  -0.05     0.00   0.01  -0.00
     4   6     0.00  -0.00   0.00    -0.00  -0.00  -0.01    -0.07   0.04  -0.04
     5   8    -0.00   0.00   0.00    -0.00   0.00   0.00     0.00  -0.00   0.00
     6   1    -0.00   0.00   0.01    -0.00   0.00   0.01     0.00  -0.00   0.00
     7   1    -0.32  -0.18   0.15     0.12   0.07  -0.05     0.01   0.01  -0.01
     8   1     0.00  -0.03  -0.22    -0.00  -0.03  -0.26    -0.00  -0.01  -0.09
     9   1     0.00   0.09   0.73     0.00   0.05   0.52    -0.00   0.00   0.04
    10   1     0.01  -0.48  -0.09    -0.01   0.78   0.14    -0.00  -0.09  -0.01
    11   1    -0.07   0.04  -0.03     0.01  -0.00   0.00     0.79  -0.44   0.36
    12   1     0.00   0.00   0.01    -0.00   0.01   0.06    -0.01   0.02   0.17
    13   1     0.00  -0.00   0.00     0.00   0.00  -0.00    -0.02   0.00  -0.01
                     31                     32                     33
                      A                      A                      A
 Frequencies --   3112.7586              3693.7050              3759.3702
 Red. masses --      1.1025                 1.0652                 1.0659
 Frc consts  --      6.2936                 8.5627                 8.8759
 IR Inten    --     39.7507               136.0476                34.1480
  Atom  AN      X      Y      Z        X      Y      Z        X      Y      Z
     1   8    -0.00  -0.00   0.00    -0.00   0.00   0.00     0.01  -0.01  -0.06
     2   6     0.02   0.00  -0.09     0.00  -0.00  -0.00    -0.00   0.00  -0.00
     3   6     0.00  -0.02  -0.02     0.00  -0.00  -0.00     0.00   0.00   0.00
     4   6    -0.01   0.00  -0.01    -0.00   0.00  -0.00    -0.00  -0.00  -0.00
     5   8     0.00   0.00   0.00    -0.05   0.03  -0.01    -0.00   0.00  -0.00
     6   1    -0.00   0.01  -0.02     0.00  -0.01  -0.05    -0.10   0.18   0.97
     7   1    -0.26  -0.15   0.12     0.00   0.01  -0.00    -0.00   0.00   0.00
     8   1     0.01   0.10   0.88    -0.00   0.00   0.00    -0.00  -0.00   0.02
     9   1     0.00   0.02   0.23     0.00   0.00   0.00     0.00  -0.00  -0.00
    10   1    -0.01   0.19   0.03    -0.00  -0.00   0.00    -0.00   0.00  -0.00
    11   1     0.07  -0.04   0.03     0.02  -0.01   0.01    -0.00  -0.00   0.00
    12   1    -0.01   0.00   0.04    -0.00  -0.01  -0.01    -0.00  -0.00   0.00
    13   1    -0.00   0.00  -0.00     0.85  -0.46   0.24     0.05  -0.02   0.01
 
 Temperature   298.150 Kelvin.  Pressure   1.00000 Atm.
 Zero-point correction=                           0.116022 (Hartree/Particle)
 Thermal correction to Energy=                    0.121772
 Thermal correction to Enthalpy=                  0.122716
 Thermal correction to Gibbs Free Energy=         0.087316
 Sum of electronic and zero-point Energies=           -269.142222
 Sum of electronic and thermal Energies=              -269.136472
 Sum of electronic and thermal Enthalpies=            -269.135527
 Sum of electronic and thermal Free Energies=         -269.170928
 FormGI is forming the generalized inverse of G from B-inverse, IUseBI=4.

 GradGradGradGradGradGradGradGradGradGradGradGradGradGradGradGradGradGrad
 Internal  Forces:  Max     0.000000681 RMS     0.000000178
 Step number   1 out of a maximum of    2
 All quantities printed in internal units (Hartrees-Bohrs-Radians)
 Second derivative matrix not updated -- analytic derivatives used.
 ITU=  0
     Eigenvalues ---    0.00351   0.00439   0.00509   0.02108   0.03725
     Eigenvalues ---    0.04064   0.05083   0.05239   0.06138   0.07083
     Eigenvalues ---    0.07471   0.09843   0.11009   0.11319   0.13578
     Eigenvalues ---    0.15411   0.17679   0.20595   0.23321   0.24240
     Eigenvalues ---    0.27458   0.29202   0.31160   0.32357   0.33143
     Eigenvalues ---    0.33557   0.33796   0.33806   0.38518   0.43198
     Eigenvalues ---    0.49022   0.50317   0.51128
 Angle between quadratic step and forces=  70.51 degrees.
 Linear search not attempted -- first point.
 Iteration  1 RMS(Cart)=  0.00000999 RMS(Int)=  0.00000000
 Iteration  2 RMS(Cart)=  0.00000000 RMS(Int)=  0.00000000
 Variable       Old X    -DE/DX   Delta X   Delta X   Delta X     New X
                                 (Linear)    (Quad)   (Total)
    R1        2.68026  -0.00000   0.00000  -0.00000  -0.00000   2.68026
    R2        1.82889  -0.00000   0.00000  -0.00000  -0.00000   1.82888
    R3        2.88422   0.00000   0.00000   0.00000   0.00000   2.88422
    R4        2.09335  -0.00000   0.00000  -0.00000  -0.00000   2.09335
    R5        2.08411  -0.00000   0.00000  -0.00000  -0.00000   2.08411
    R6        2.89014  -0.00000   0.00000  -0.00000  -0.00000   2.89014
    R7        2.09214   0.00000   0.00000   0.00000   0.00000   2.09214
    R8        2.08946  -0.00000   0.00000  -0.00000  -0.00000   2.08946
    R9        2.64761  -0.00000   0.00000  -0.00000  -0.00000   2.64761
   R10        2.08406  -0.00000   0.00000  -0.00000  -0.00000   2.08406
   R11        2.10328  -0.00000   0.00000  -0.00000  -0.00000   2.10328
   R12        1.83642  -0.00000   0.00000  -0.00000  -0.00000   1.83642
    A1        1.89580  -0.00000   0.00000   0.00000   0.00000   1.89580
    A2        1.97092   0.00000   0.00000   0.00000   0.00000   1.97092
    A3        1.92998  -0.00000   0.00000  -0.00000  -0.00000   1.92998
    A4        1.83809  -0.00000   0.00000  -0.00000  -0.00000   1.83809
    A5        1.92979   0.00000   0.00000   0.00000   0.00000   1.92979
    A6        1.91960  -0.00000   0.00000  -0.00000  -0.00000   1.91960
    A7        1.87077  -0.00000   0.00000   0.00000   0.00000   1.87077
    A8        1.97346  -0.00000   0.00000  -0.00000  -0.00000   1.97346
    A9        1.91279   0.00000   0.00000   0.00000   0.00000   1.91279
   A10        1.89498  -0.00000   0.00000  -0.00000  -0.00000   1.89497
   A11        1.90026  -0.00000   0.00000  -0.00000  -0.00000   1.90026
   A12        1.91449   0.00000   0.00000   0.00001   0.00001   1.91449
   A13        1.86477  -0.00000   0.00000  -0.00000  -0.00000   1.86477
   A14        1.97036  -0.00000   0.00000  -0.00000  -0.00000   1.97036
   A15        1.91532   0.00000   0.00000   0.00000   0.00000   1.91532
   A16        1.89936  -0.00000   0.00000  -0.00000  -0.00000   1.89936
   A17        1.86533  -0.00000   0.00000  -0.00000  -0.00000   1.86533
   A18        1.94579   0.00000   0.00000   0.00000   0.00000   1.94579
   A19        1.86447  -0.00000   0.00000  -0.00000  -0.00000   1.86447
   A20        1.86458  -0.00000   0.00000  -0.00000  -0.00000   1.86458
    D1        1.15381   0.00000   0.00000   0.00002   0.00002   1.15383
    D2       -1.01895   0.00000   0.00000   0.00002   0.00002  -1.01893
    D3       -3.03433   0.00000   0.00000   0.00002   0.00002  -3.03431
    D4        1.01517  -0.00000   0.00000  -0.00001  -0.00001   1.01516
    D5       -1.10823   0.00000   0.00000  -0.00000  -0.00000  -1.10824
    D6       -3.13919   0.00000   0.00000  -0.00000  -0.00000  -3.13920
    D7       -3.09515  -0.00000   0.00000  -0.00001  -0.00001  -3.09516
    D8        1.06463  -0.00000   0.00000  -0.00000  -0.00000   1.06463
    D9       -0.96633   0.00000   0.00000  -0.00000  -0.00000  -0.96633
   D10       -1.03246  -0.00000   0.00000  -0.00001  -0.00001  -1.03246
   D11        3.12733   0.00000   0.00000  -0.00000  -0.00000   3.12733
   D12        1.09637   0.00000   0.00000  -0.00000  -0.00000   1.09637
   D13       -1.12921  -0.00000   0.00000  -0.00001  -0.00001  -1.12922
   D14        3.07532  -0.00000   0.00000  -0.00001  -0.00001   3.07531
   D15        1.04083  -0.00000   0.00000  -0.00002  -0.00002   1.04081
   D16        1.00123   0.00000   0.00000  -0.00002  -0.00002   1.00121
   D17       -1.07743   0.00000   0.00000  -0.00002  -0.00002  -1.07745
   D18       -3.11193  -0.00000   0.00000  -0.00002  -0.00002  -3.11194
   D19        3.03613  -0.00000   0.00000  -0.00002  -0.00002   3.03612
   D20        0.95747  -0.00000   0.00000  -0.00002  -0.00002   0.95746
   D21       -1.07702  -0.00000   0.00000  -0.00002  -0.00002  -1.07704
   D22        0.89675   0.00000   0.00000   0.00002   0.00002   0.89678
   D23        3.00415   0.00000   0.00000   0.00003   0.00003   3.00418
   D24       -1.24763   0.00000   0.00000   0.00003   0.00003  -1.24760
         Item               Value     Threshold  Converged?
 Maximum Force            0.000001     0.000015     YES
 RMS     Force            0.000000     0.000010     YES
 Maximum Displacement     0.000031     0.000060     YES
 RMS     Displacement     0.000010     0.000040     YES
 Optimization completed.
    -- Stationary point found.
                           ----------------------------
                           !   Optimized Parameters   !
                           ! (Angstroms and Degrees)  !
 --------------------------                            --------------------------
 ! Name  Definition              Value          Derivative Info.                !
 --------------------------------------------------------------------------------
 ! R1    R(1,2)                  1.4183         -DE/DX =    0.0                 !
 ! R2    R(1,6)                  0.9678         -DE/DX =    0.0                 !
 ! R3    R(2,3)                  1.5263         -DE/DX =    0.0                 !
 ! R4    R(2,7)                  1.1078         -DE/DX =    0.0                 !
 ! R5    R(2,8)                  1.1029         -DE/DX =    0.0                 !
 ! R6    R(3,4)                  1.5294         -DE/DX =    0.0                 !
 ! R7    R(3,9)                  1.1071         -DE/DX =    0.0                 !
 ! R8    R(3,10)                 1.1057         -DE/DX =    0.0                 !
 ! R9    R(4,5)                  1.4011         -DE/DX =    0.0                 !
 ! R10   R(4,11)                 1.1028         -DE/DX =    0.0                 !
 ! R11   R(4,12)                 1.113          -DE/DX =    0.0                 !
 ! R12   R(5,13)                 0.9718         -DE/DX =    0.0                 !
 ! A1    A(2,1,6)              108.6212         -DE/DX =    0.0                 !
 ! A2    A(1,2,3)              112.9252         -DE/DX =    0.0                 !
 ! A3    A(1,2,7)              110.5797         -DE/DX =    0.0                 !
 ! A4    A(1,2,8)              105.3149         -DE/DX =    0.0                 !
 ! A5    A(3,2,7)              110.5686         -DE/DX =    0.0                 !
 ! A6    A(3,2,8)              109.985          -DE/DX =    0.0                 !
 ! A7    A(7,2,8)              107.187          -DE/DX =    0.0                 !
 ! A8    A(2,3,4)              113.0712         -DE/DX =    0.0                 !
 ! A9    A(2,3,9)              109.5947         -DE/DX =    0.0                 !
 ! A10   A(2,3,10)             108.5741         -DE/DX =    0.0                 !
 ! A11   A(4,3,9)              108.8768         -DE/DX =    0.0                 !
 ! A12   A(4,3,10)             109.692          -DE/DX =    0.0                 !
 ! A13   A(9,3,10)             106.8437         -DE/DX =    0.0                 !
 ! A14   A(3,4,5)              112.8933         -DE/DX =    0.0                 !
 ! A15   A(3,4,11)             109.7397         -DE/DX =    0.0                 !
 ! A16   A(3,4,12)             108.8252         -DE/DX =    0.0                 !
 ! A17   A(5,4,11)             106.8753         -DE/DX =    0.0                 !
 ! A18   A(5,4,12)             111.4853         -DE/DX =    0.0                 !
 ! A19   A(11,4,12)            106.8263         -DE/DX =    0.0                 !
 ! A20   A(4,5,13)             106.8325         -DE/DX =    0.0                 !
 ! D1    D(6,1,2,3)             66.1083         -DE/DX =    0.0                 !
 ! D2    D(6,1,2,7)            -58.3817         -DE/DX =    0.0                 !
 ! D3    D(6,1,2,8)           -173.8541         -DE/DX =    0.0                 !
 ! D4    D(1,2,3,4)             58.1647         -DE/DX =    0.0                 !
 ! D5    D(1,2,3,9)            -63.4971         -DE/DX =    0.0                 !
 ! D6    D(1,2,3,10)          -179.8626         -DE/DX =    0.0                 !
 ! D7    D(7,2,3,4)           -177.3393         -DE/DX =    0.0                 !
 ! D8    D(7,2,3,9)             60.9989         -DE/DX =    0.0                 !
 ! D9    D(7,2,3,10)           -55.3666         -DE/DX =    0.0                 !
 ! D10   D(8,2,3,4)            -59.1554         -DE/DX =    0.0                 !
 ! D11   D(8,2,3,9)            179.1828         -DE/DX =    0.0                 !
 ! D12   D(8,2,3,10)            62.8173         -DE/DX =    0.0                 !
 ! D13   D(2,3,4,5)            -64.6988         -DE/DX =    0.0                 !
 ! D14   D(2,3,4,11)           176.2028         -DE/DX =    0.0                 !
 ! D15   D(2,3,4,12)            59.6349         -DE/DX =    0.0                 !
 ! D16   D(9,3,4,5)             57.3661         -DE/DX =    0.0                 !
 ! D17   D(9,3,4,11)           -61.7323         -DE/DX =    0.0                 !
 ! D18   D(9,3,4,12)          -178.3002         -DE/DX =    0.0                 !
 ! D19   D(10,3,4,5)           173.9576         -DE/DX =    0.0                 !
 ! D20   D(10,3,4,11)           54.8592         -DE/DX =    0.0                 !
 ! D21   D(10,3,4,12)          -61.7087         -DE/DX =    0.0                 !
 ! D22   D(3,4,5,13)            51.3801         -DE/DX =    0.0                 !
 ! D23   D(11,4,5,13)          172.1254         -DE/DX =    0.0                 !
 ! D24   D(12,4,5,13)          -71.4838         -DE/DX =    0.0                 !
 --------------------------------------------------------------------------------
 GradGradGradGradGradGradGradGradGradGradGradGradGradGradGradGradGradGrad


 ----------------------------------------------------------------------

 Electric dipole moment (input orientation):
 (Debye = 10**-18 statcoulomb cm , SI units = C m)
                  (au)            (Debye)         (10**-30 SI)
   Tot        0.105205D+01      0.267404D+01      0.891962D+01
   x          0.713123D+00      0.181258D+01      0.604611D+01
   y          0.719767D+00      0.182947D+01      0.610244D+01
   z         -0.283183D+00     -0.719780D+00     -0.240093D+01

 Dipole polarizability, Alpha (input orientation).
 (esu units = cm**3 , SI units = C**2 m**2 J**-1)
 Alpha(0;0):
               (au)            (10**-24 esu)      (10**-40 SI)
   iso        0.389754D+02      0.577556D+01      0.642617D+01
   aniso      0.387233D+01      0.573820D+00      0.638461D+00
   xx         0.407366D+02      0.603653D+01      0.671655D+01
   yx        -0.234197D+00     -0.347044D-01     -0.386139D-01
   yy         0.391381D+02      0.579967D+01      0.645300D+01
   zx        -0.544619D+00     -0.807043D-01     -0.897956D-01
   zy         0.111001D+01      0.164487D+00      0.183016D+00
   zz         0.370515D+02      0.549047D+01      0.610897D+01

 ----------------------------------------------------------------------

 Dipole orientation:
     8          2.32777181          2.02822380          0.54114642
     6          1.48682364          0.01098057          2.09269956
     6         -1.20634213         -0.82490210          1.48701071
     6         -1.54084456         -1.66630746         -1.25763078
     8         -1.16658745          0.30004214         -2.99061527
     1          1.33190697          3.51368244          0.92388417
     1          1.66235628          0.51667962          4.11645242
     1          2.81630663         -1.55275037          1.73111750
     1         -2.53320006          0.74406194          1.88049387
     1         -1.72203237         -2.39040520          2.77118323
     1         -3.48211662         -2.36685497         -1.54747665
     1         -0.24792670         -3.28187192         -1.63460179
     1          0.44740721          1.07271466         -2.57777376

 Electric dipole moment (dipole orientation):
 (Debye = 10**-18 statcoulomb cm , SI units = C m)
                  (au)            (Debye)         (10**-30 SI)
   Tot        0.105205D+01      0.267404D+01      0.891962D+01
   x          0.000000D+00      0.000000D+00      0.000000D+00
   y          0.000000D+00      0.000000D+00      0.000000D+00
   z          0.105205D+01      0.267404D+01      0.891962D+01

 Dipole polarizability, Alpha (dipole orientation).
 (esu units = cm**3 , SI units = C**2 m**2 J**-1)
 Alpha(0;0):
               (au)            (10**-24 esu)      (10**-40 SI)
   iso        0.389754D+02      0.577556D+01      0.642617D+01
   aniso      0.387233D+01      0.573820D+00      0.638461D+00
   xx         0.379183D+02      0.561891D+01      0.625188D+01
   yx         0.137125D+01      0.203198D+00      0.226088D+00
   yy         0.397139D+02      0.588499D+01      0.654793D+01
   zx         0.149498D+01      0.221533D+00      0.246489D+00
   zy         0.284638D-01      0.421790D-02      0.469304D-02
   zz         0.392941D+02      0.582278D+01      0.647871D+01

 ----------------------------------------------------------------------
 1\1\GINC-C041\Freq\RwB97XD\def2SVPP\C3H8O2\PETERCHAO1\06-Feb-2023\0\\#
 T Geom=AllCheck Guess=TCheck SCRF=Check GenChk RwB97XD/def2SVPP Freq\\
 Monomer\\0,1\O,1.372147,-0.931639,0.023588\C,1.254728,0.466484,0.23126
 2\C,-0.033377,1.047148,-0.345876\C,-1.293501,0.399196,0.22971\O,-1.408
 558,-0.957374,-0.101097\H,1.460457,-1.096678,-0.925943\H,2.137689,0.99
 6314,-0.177123\H,1.271502,0.600818,1.325786\H,-0.03681,0.922108,-1.445
 897\H,-0.049549,2.134688,-0.146995\H,-2.188304,0.903618,-0.17171\H,-1.
 304614,0.552342,1.332076\H,-0.56618,-1.378075,0.139297\\Version=ES64L-
 G16RevB.01\State=1-A\HF=-269.2582434\RMSD=6.104e-12\RMSF=5.770e-07\Zer
 oPoint=0.1160216\Thermal=0.1217717\Dipole=0.7131228,0.7197671,-0.28318
 31\DipoleDeriv=-0.7357725,0.1362193,-0.0075759,0.0801385,-0.9470032,-0
 .0778837,-0.0129933,-0.1175987,-0.2740806,0.4327275,-0.1117809,0.00984
 1,-0.0378743,0.8013869,0.0632287,0.0325182,0.096394,0.2878433,-0.10525
 26,-0.0039526,0.001857,-0.0073803,-0.0317357,0.0208926,0.013392,0.0654
 083,0.0529942,0.3611365,0.07026,-0.0395044,0.0776256,0.7996737,0.13760
 53,-0.0650351,0.0963711,0.4462011,-0.5386612,-0.04545,0.1005483,-0.105
 801,-1.0016258,-0.0859829,0.0921785,-0.0509233,-0.5248138,0.3939345,-0
 .057218,-0.025093,-0.0397375,0.2794294,0.0632273,-0.0068239,0.0172123,
 0.1432721,-0.1628537,-0.077295,0.0459375,-0.0644884,-0.0769741,0.00931
 92,0.080202,0.0571247,0.025354,0.0481689,0.0239599,0.0166549,0.0218034
 ,0.0010677,-0.0013721,-0.0328593,-0.0311921,-0.1326291,-0.0129979,0.00
 77135,0.0178498,0.0075699,0.0595987,-0.0563112,0.0094186,-0.0025443,-0
 .1563299,0.0205398,-0.0022459,0.0021424,-0.0023116,-0.1449121,-0.01583
 76,-0.0003305,-0.0568045,0.0613014,-0.1307118,0.0661249,-0.0358005,0.0
 508749,-0.0250257,0.0196979,-0.0735209,0.0471289,0.0247512,0.0111556,-
 0.0365844,-0.0192154,-0.0136303,-0.0540604,-0.0371939,0.0427862,-0.069
 5656,-0.2429681,0.4185869,0.0302493,-0.0676416,0.0332111,0.3401805,-0.
 0393897,-0.0789326,-0.0510107,0.2891041\Polar=40.7365569,-0.2341972,39
 .1381055,-0.5446195,1.1100125,37.0515227\Quadrupole=-2.0010331,0.27811
 5,1.7229181,-1.4776748,-2.1013091,1.1372645\PG=C01 [X(C3H8O2)]\NImag=0
 \\0.08147202,-0.03337673,0.38558371,-0.04955652,0.10002394,0.57607144,
 -0.06985082,0.00834149,0.00892798,0.54840858,0.01363777,-0.24265695,-0
 .04421360,0.04673961,0.49874398,0.00565754,0.00402044,-0.10375725,-0.0
 3580241,0.00157694,0.64091237,0.00424289,0.00744887,-0.00034601,-0.176
 38975,0.02969898,-0.04187745,0.48190424,0.03655537,-0.03544096,0.01316
 200,0.02520540,-0.09175202,0.01239906,0.00009025,0.59100743,0.00553409
 ,-0.00717985,0.00530458,-0.04356318,0.01890799,-0.11287843,0.00132661,
 0.03614346,0.58137075,0.00338715,-0.00402586,0.00040864,-0.03571118,-0
 .01196438,0.01048691,-0.16856208,-0.02608942,0.04157494,0.57991920,-0.
 00906822,-0.00683555,-0.00135747,0.01040556,0.01844522,-0.00678417,-0.
 03128587,-0.09573483,0.02020433,-0.06620253,0.53074918,-0.00063641,-0.
 00010322,-0.00104194,-0.00984027,-0.00795553,0.00820446,0.04095214,0.0
 1711674,-0.10969795,0.04605975,-0.00467465,0.58256900,-0.01592566,-0.0
 0371453,-0.00110244,0.00256629,0.00735749,0.00047686,0.00301648,-0.035
 67337,-0.00855762,-0.09857575,0.01111032,-0.01078754,0.46971966,0.0021
 7618,0.00963654,0.00092525,0.00444189,-0.00681832,-0.00020557,-0.00912
 091,-0.03717592,-0.00725878,-0.02936217,-0.25744504,-0.05235093,-0.137
 69688,0.46274585,0.00106626,0.00077511,0.00422066,-0.00008291,-0.00058
 328,-0.00115624,0.00046862,0.01150938,0.00716893,-0.01915662,-0.041086
 89,-0.08860265,0.12426897,0.03173351,0.11436364,-0.01117881,0.01003161
 ,0.04285476,0.00006076,0.00025664,0.00306726,-0.00009822,-0.00053476,0
 .00252686,-0.00048884,0.00219640,0.00098930,0.00112250,-0.00143004,-0.
 00243250,0.01174664,0.00444898,-0.05524782,-0.03656218,0.00494267,-0.0
 1261020,-0.04801077,0.00008520,0.00122287,-0.00064605,0.00069581,0.000
 57310,0.00002774,-0.00061810,-0.00111371,-0.00050226,-0.00952215,0.072
 06935,0.04749688,-0.08769344,-0.48308951,-0.00091163,0.00292008,-0.008
 07359,0.00081865,0.00183583,0.00280114,-0.00000696,-0.00070447,-0.0005
 7217,-0.00097524,0.00027990,0.00024517,-0.04765769,0.08346571,0.487059
 76,0.01043049,0.00076007,-0.00439595,-0.21773569,-0.09010122,0.0795515
 2,-0.02165194,-0.01240351,0.01315669,-0.00346492,0.00504778,-0.0040662
 2,0.00078556,-0.00096228,-0.00008926,0.00025656,-0.00104843,-0.0002827
 9,0.22941752,-0.02639170,-0.03707921,0.00971410,-0.08746168,-0.0964993
 9,0.03965218,0.01050957,0.00806920,-0.00527088,0.00190758,-0.00189218,
 0.00161380,-0.00092641,0.00119811,0.00011910,-0.00013484,0.00119129,0.
 00170078,0.09802884,0.12056654,-0.00628118,-0.00596067,0.00704705,0.08
 052987,0.04439910,-0.09651845,-0.01358057,-0.00598078,0.00593398,-0.00
 141813,0.00198568,-0.00091587,0.00040372,-0.00025943,-0.00003420,-0.00
 144868,-0.00022384,0.00116075,-0.08352147,-0.04655485,0.09015624,0.001
 54113,0.00214565,0.00326761,-0.05379620,-0.00218410,-0.00067530,-0.001
 11735,-0.00275181,-0.02950946,0.00223112,-0.00048498,-0.00217360,-0.00
 018044,0.00002956,0.00066778,0.00070053,0.00057604,-0.00014563,0.00196
 319,0.00288766,0.02511797,0.05268499,0.00255810,-0.01694639,-0.0429450
 1,-0.00339661,-0.05024354,-0.01375382,0.00050976,0.00266874,0.01344659
 ,-0.00066369,-0.00025466,-0.00049683,-0.00023499,0.00038348,0.00008822
 ,-0.00031175,-0.00725464,-0.00236705,0.00114497,0.00360018,0.01364946,
 -0.00269086,0.06806399,0.00064395,-0.00542826,-0.00277108,-0.00130635,
 -0.02678344,-0.31636252,-0.00049010,-0.00041766,-0.01193582,0.00151055
 ,-0.00005501,0.00069241,-0.00032874,-0.00012271,0.00034443,-0.00063462
 ,-0.00058515,0.00223793,-0.00077220,-0.00063992,-0.00887117,0.00412067
 ,0.03242732,0.33568293,0.00155939,-0.00189890,0.00180047,-0.00081989,-
 0.00432890,-0.03182037,-0.04949292,0.00049295,-0.00175455,-0.00107849,
 0.00448695,0.03095761,0.00184265,0.00171242,-0.00294960,-0.00013469,0.
 00083160,0.00055600,0.00109478,-0.00047524,0.00055481,-0.00464649,0.00
 300162,-0.00194466,0.05599234,-0.00126838,0.00175799,0.00034313,0.0010
 2497,0.00043782,0.01407396,0.00053807,-0.05398881,-0.03138357,-0.00119
 163,0.00096168,0.01431321,0.00107363,0.00178435,-0.00024207,0.00063528
 ,-0.00038755,-0.00028288,-0.00054639,0.00005571,-0.00068512,0.00231587
 ,-0.00027287,0.00135976,-0.00090463,0.05117223,0.00064474,0.00088778,0
 .00254694,0.00062836,-0.00330712,-0.01316011,-0.00076078,-0.02989162,-
 0.30214450,0.00006224,-0.00377668,-0.01446167,-0.00144275,0.00059172,0
 .00290752,-0.00081838,0.00110475,-0.00059399,-0.00046725,0.00021532,0.
 00082187,-0.00238548,0.00074567,0.00041991,0.00138764,0.03158826,0.326
 38683,-0.00580516,0.00597857,-0.00323333,0.00324486,0.02627032,0.00837
 014,-0.04993347,0.00418498,0.00139750,0.00476292,-0.02563695,-0.008659
 23,-0.00565360,-0.00590589,0.00314425,0.00009480,-0.00063261,-0.000548
 13,0.00035143,-0.00063936,0.00078991,0.00085579,-0.00048207,-0.0003448
 2,-0.00081623,-0.00015672,0.00007279,0.05298527,0.00349217,-0.00117754
 ,0.00133630,-0.00358535,-0.01146889,-0.00404321,0.00458833,-0.30108375
 ,-0.04632561,0.00415425,-0.01154469,-0.00469731,-0.00351527,-0.0016582
 6,0.00207190,-0.00035843,0.00034738,0.00040118,0.00044170,0.00059648,-
 0.00006665,-0.00001885,0.00027760,0.00042295,-0.00002580,-0.00100263,0
 .00046122,-0.00481375,0.32477033,-0.00261050,0.00251776,0.00053922,0.0
 0145095,0.01253812,0.00167704,0.00123956,-0.04864475,-0.05841576,-0.00
 214675,0.01270788,0.00200899,0.00217703,0.00172284,0.00067617,-0.00064
 832,0.00042866,-0.00025324,0.00027947,-0.00036555,0.00038692,0.0006205
 6,-0.00013904,0.00017196,0.00092330,-0.03019217,-0.00295861,-0.0005426
 5,0.05048338,0.05611576,0.00066324,0.00063984,0.00013553,-0.00316420,-
 0.00451901,0.00355897,-0.02105404,0.01113001,-0.01159857,-0.23019226,0
 .09587608,-0.08275391,0.00665736,0.00006451,0.00309016,0.00004218,-0.0
 0012766,-0.00013588,-0.00159095,0.00072869,-0.00056829,0.00031026,-0.0
 0013397,0.00012326,0.00089484,0.00052221,0.00025906,0.00051902,-0.0003
 2058,-0.00033311,0.24260565,0.00125180,0.00117729,0.00015014,-0.002504
 52,-0.00174215,0.00162465,-0.01234314,0.00727258,-0.00637407,0.0872593
 3,-0.09469980,0.04090162,0.03254378,-0.03077503,0.00943869,-0.00029882
 ,-0.00008475,0.00007498,-0.00086188,0.00041070,-0.00014674,0.00018935,
 -0.00008583,0.00013197,0.00065670,0.00019999,0.00002860,0.00031441,0.0
 0061068,-0.00039192,-0.10140435,0.12084238,-0.00018129,-0.00014455,-0.
 00016682,0.00164011,0.00197975,-0.00103873,0.01373122,-0.00639398,0.00
 544881,-0.08733015,0.04701749,-0.09523658,0.00994267,-0.00706312,0.006
 85449,-0.00006993,0.00000232,0.00009506,0.00069363,-0.00011561,0.00061
 860,0.00032002,0.00003710,0.00035882,-0.00015138,-0.00060967,0.0007701
 5,-0.00088798,-0.00024797,0.00043735,0.08743252,-0.04478318,0.09174336
 ,-0.00000460,0.00044863,-0.00037553,0.00212157,0.00010602,0.00187484,-
 0.00216741,0.00114741,0.02909887,-0.05634598,0.00267596,-0.00074685,0.
 00495153,-0.00267553,-0.00296708,0.00002127,-0.00018298,0.00004326,0.0
 0037036,-0.00017144,-0.00036341,-0.00041720,0.00003851,-0.00088861,-0.
 00442031,-0.00220228,0.00266203,0.00067931,-0.00009592,-0.00054184,0.0
 0240473,-0.00195379,-0.02564502,0.05328446,0.00089314,0.00084653,0.000
 30698,0.00067347,-0.00088172,-0.00063770,-0.00081092,0.00392192,0.0141
 9539,0.00411675,-0.05209764,-0.01457375,-0.00147255,-0.02268974,-0.041
 77277,-0.00036812,-0.00019746,0.00009121,0.00010171,0.00001775,0.00001
 590,0.00002197,0.00011596,-0.00030990,-0.00332109,-0.00052107,0.001258
 57,0.00083061,0.00040414,-0.00034184,-0.00109587,0.00336265,0.01297475
 ,0.00265057,0.06637944,0.00093105,0.00015593,0.00042298,-0.00161691,-0
 .00032861,0.00052341,-0.00033818,-0.00004878,-0.01389241,0.00122831,-0
 .01573322,-0.28577419,0.00046302,-0.01553312,-0.00131009,-0.00052107,0
 .00011356,0.00001035,-0.00003276,0.00013866,0.00043284,0.00112629,-0.0
 0032767,0.00057144,0.00224869,0.00136480,0.00010753,0.00053351,0.00064
 024,-0.00012601,0.00077303,0.00004082,-0.01033950,-0.00337189,0.029643
 14,0.30944186,-0.00053126,0.00722129,0.00161478,0.00106567,-0.01096924
 ,-0.00286849,0.00130357,-0.00135349,0.00036783,0.00411912,0.00087950,0
 .00070522,-0.37032659,0.17872915,-0.10502807,-0.00214467,0.00055164,0.
 00174917,-0.00022637,0.00213832,-0.00021454,-0.00012933,0.00066097,0.0
 0031168,0.00002503,0.00015999,0.00015777,-0.00128492,0.00005751,0.0001
 3230,0.00190416,-0.00284887,0.00050558,-0.00047774,-0.00221966,-0.0014
 2307,0.36670333,0.00509152,-0.00361763,-0.00088358,-0.00482692,-0.0029
 5383,0.00008800,0.00009180,0.00101354,0.00154105,0.04136597,-0.0302247
 7,0.01087911,0.13176687,-0.11807232,0.02845137,-0.00016102,0.00149214,
 0.00027817,0.00039865,-0.00023519,-0.00017204,-0.00003550,-0.00005201,
 0.00000004,-0.00022768,-0.00019685,0.00009353,0.00068846,0.00092915,-0
 .00032336,-0.00135990,-0.00648871,-0.00265333,0.00021485,0.00133924,-0
 .00012576,-0.17300713,0.15706725,-0.00270860,-0.00187098,-0.00532627,-
 0.00005360,0.00084960,0.00162804,-0.00114371,-0.00078889,0.00093666,0.
 00872728,-0.00774282,0.00282814,-0.11453793,0.04754046,-0.04567785,0.0
 0479302,0.00138752,-0.00102766,-0.00005341,-0.00020714,-0.00021856,-0.
 00035143,-0.00036495,-0.00053926,0.00019205,0.00035236,-0.00064188,-0.
 00009195,-0.00043641,-0.00025978,0.00001723,-0.00069557,0.00045498,0.0
 0122123,-0.00085000,-0.00006821,0.10398983,-0.03717319,0.04791165\\0.0
 0000054,0.00000049,0.00000056,-0.00000035,0.00000028,-0.00000058,0.000
 00030,0.00000001,-0.00000067,0.,-0.00000021,0.00000090,0.00000013,-0.0
 0000114,0.00000102,0.00000005,0.00000018,-0.00000086,-0.00000019,0.000
 00112,-0.00000099,0.00000031,0.00000085,-0.00000047,-0.00000070,-0.000
 00043,-0.00000005,-0.00000100,-0.00000010,-0.00000007,-0.00000029,-0.0
 0000067,0.00000039,0.00000022,-0.00000014,0.00000046,0.00000097,-0.000
 00023,0.00000034\\\@


 YOU CAN LEAD A BOY TO COLLEGE....
 BUT YOU CANNOT MAKE HIM THINK....
           ELBERT HUBBARD
 File lengths (MBytes):  RWF=     16 Int=      0 D2E=      0 Chk=      2 Scr=      1
 Normal termination of Gaussian 16 at Mon Feb  6 10:23:06 2023.
real 54.68
user 207.25
sys 2.34
