You are running Q-Chem version: 5.3.2

#
# job setting
#
local host:  tnxt-0325.cluster
current dir: /scratch/user/peterli3819/peterli3819/12613574_1663277312000000784133753
input file:  qchem_test.inp
output file: 
nprocs     : 0
nthreads   : 8
#
# qchem installation setting
#
QC:          /sw/restricted/qchem/sw/5.3.2
QCAUX:       /sw/restricted/qchem/sw/5.3.2/qcaux
QCPROG:      /sw/restricted/qchem/sw/5.3.2/exe/qcprog.exe_s
QCPROG_S:    /sw/restricted/qchem/sw/5.3.2/exe/qcprog.exe_s
PARALLEL:    -DSERIAL
QCMPI:       seq
#
# qchem directory setting
#
qcrun:       qchem40558
QCSCRATCH:   /scratch/user/peterli3819/peterli3819/12613574_1663277312000000784133753
QCLOCALSCR:  
QCTMPDIR:    /scratch/user/peterli3819/peterli3819/12613574_1663277312000000784133753
QCFILEPREF:  /scratch/user/peterli3819/peterli3819/12613574_1663277312000000784133753/qchem40558
QCSAVEDIR:   
workdirs:    /scratch/user/peterli3819/peterli3819/12613574_1663277312000000784133753/qchem40558
workdir0:    /scratch/user/peterli3819/peterli3819/12613574_1663277312000000784133753/qchem40558
partmpdirs =  
#
# parallel setting
#
QCRSH:           ssh
QCMPI:           seq
QCMPIRUN:        
QCMACHINEFILE:   /scratch/user/peterli3819/peterli3819/12613574_1663277312000000784133753/qchem40558/hostfile

#
# env setting
#
exported envs:   QC QCAUX QCSCRATCH QCRUNNAME QCFILEPREF QCPROG QCPROG_S GUIFILE

Running Job 1 of 1 qchem_test.inp
qchem qchem_test.inp_40558.0 /scratch/user/peterli3819/peterli3819/12613574_1663277312000000784133753/qchem40558/ 0
/sw/restricted/qchem/sw/5.3.2/exe/qcprog.exe_s qchem_test.inp_40558.0 /scratch/user/peterli3819/peterli3819/12613574_1663277312000000784133753/qchem40558/
                  Welcome to Q-Chem
     A Quantum Leap Into The Future Of Chemistry


 Q-Chem 5.3, Q-Chem, Inc., Pleasanton, CA (2020)

 License issued to: MRG Daniel Tabor and Mike Hall, Texas A&M University

 Yihan Shao,  Zhengting Gan,  E. Epifanovsky,  A. T. B. Gilbert,  M. Wormit,  
 J. Kussmann,  A. W. Lange,  A. Behn,  Jia Deng,  Xintian Feng,  D. Ghosh,  
 M. Goldey,  P. R. Horn,  L. D. Jacobson,  I. Kaliman,  T. Kus,  A. Landau,  
 Jie Liu,  E. I. Proynov,  R. M. Richard,  R. P. Steele,  E. J. Sundstrom,  
 H. L. Woodcock III,  P. M. Zimmerman,  D. Zuev,  B. Alam,  B. Albrecht,  
 A. Aldossary,  E. Alguire,  S. A. Baeppler,  D. Barton,  Z. Benda,  
 Y. A. Bernard,  E. J. Berquist,  K. B. Bravaya,  H. Burton,  K. Carter-Fenk,  
 D. Casanova,  Chun-Min Chang,  Yunqing Chen,  A. Chien,  K. D. Closser,  
 M. P. Coons,  S. Coriani,  S. Dasgupta,  A. L. Dempwolff,  M. Diedenhofen,  
 Hainam Do,  R. G. Edgar,  Po-Tung Fang,  S. Faraji,  S. Fatehi,  
 Qingguo Feng,  J. Fosso-Tande,  J. Gayvert,  Qinghui Ge,  A. Ghysels,  
 G. Gidofalvi,  J. Gomes,  J. Gonthier,  S. Gulania,  A. Gunina,  D. Hait,  
 M. W. D. Hanson-Heine,  S. Hammes-Schiffer,  P. H. P. Harbach,  
 A. W. Hauser,  M. F. Herbst,  J. E. Herr,  E. G. Hohenstein,  Z. C. Holden,  
 S. Houck,  Kerwin Hui,  B. C. Huynh,  M. Ivanov,  T.-C. Jagau,  Hyunjun Ji,  
 B. Kaduk,  K. Khistyaev,  Jaehoon Kim,  P. Klunzinger,  K. Koh,  
 D. Kosenkov,  L. Koulias,  T. Kowalczyk,  C. M. Krauter,  A. Kunitsa,  
 Ka Un Lao,  A. Laurent,  K. V. Lawler,  Joonho Lee,  D. Lefrancois,  
 S. Lehtola,  D. S. Levine,  Yi-Pei Li,  You-Sheng Lin,  Fenglai Liu,  
 Kuan-Yu Liu,  E. Livshits,  M. Loipersberger,  A. Luenser,  A. Manjanath,  
 P. Manohar,  E. Mansoor,  S. F. Manzer,  Shan-Ping Mao,  Yuezhi Mao,  
 N. Mardirossian,  A. V. Marenich,  T. Markovich,  L. A. Martinez-Martinez,  
 S. A. Maurer,  N. J. Mayhall,  S. C. McKenzie,  J.-M. Mewes,  P. Morgante,  
 A. F. Morrison,  J. W. Mullinax,  K. Nanda,  T. S. Nguyen-Beck,  
 R. Olivares-Amaya,  K. J. Oosterbaan,  J. A. Parkhill,  S. K. Paul,  
 F. Pavosevic,  Zheng Pei,  T. M. Perrine,  F. Plasser,  P. Pokhilko,  
 S. Prager,  A. Prociuk,  E. Ramos,  B. Rana,  D. R. Rehn,  F. Rob,  
 E. Rossomme,  M. Scheurer,  M. Schneider,  N. Sergueev,  S. M. Sharada,  
 S. Sharma,  W. Skomorowski,  D. W. Small,  T. Stauch,  C. J. Stein,  
 T. Stein,  Yu-Chuan Su,  S. P. Veccham,  Zhen Tao,  A. J. W. Thom,  
 A. Tkatchenko,  T. Tsuchimochi,  N. M. Tubman,  L. Vogt,  M. L. Vidal,  
 O. Vydrov,  M. A. Watson,  J. Wenzel,  M. de Wergifosse,  T. A. Wesolowski,  
 A. White,  J. Witte,  A. Yamada,  Jun Yang,  K. Yao,  S. Yeganeh,  
 S. R. Yost,  Zhi-Qiang You,  A. Zech,  Igor Ying Zhang,  Xing Zhang,  
 Yan Zhao,  Ying Zhu,  B. R. Brooks,  G. K. L. Chan,  C. J. Cramer,  
 M. S. Gordon,  W. J. Hehre,  A. Klamt,  M. W. Schmidt,  C. D. Sherrill,  
 D. G. Truhlar,  A. Aspuru-Guzik,  R. Baer,  A. T. Bell,  N. A. Besley,  
 Jeng-Da Chai,  A. E. DePrince, III,  R. A. DiStasio Jr.,  A. Dreuw,  
 B. D. Dunietz,  T. R. Furlani,  Chao-Ping Hsu,  Yousung Jung,  Jing Kong,  
 D. S. Lambrecht,  WanZhen Liang,  C. Ochsenfeld,  V. A. Rassolov,  
 L. V. Slipchenko,  J. E. Subotnik,  T. Van Voorhis,  J. M. Herbert,  
 A. I. Krylov,  P. M. W. Gill,  M. Head-Gordon

 Contributors to earlier versions of Q-Chem not listed above: 
 R. D. Adamson,  B. Austin,  J. Baker,  G. J. O. Beran,  K. Brandhorst,  
 S. T. Brown,  E. F. C. Byrd,  A. K. Chakraborty,  C.-L. Cheng,  
 Siu Hung Chien,  D. M. Chipman,  D. L. Crittenden,  H. Dachsel,  
 R. J. Doerksen,  A. D. Dutoi,  L. Fusti-Molnar,  W. A. Goddard III,  
 A. Golubeva-Zadorozhnaya,  S. R. Gwaltney,  G. Hawkins,  A. Heyden,  
 S. Hirata,  G. Kedziora,  F. J. Keil,  C. Kelley,  Jihan Kim,  R. A. King,  
 R. Z. Khaliullin,  P. P. Korambath,  W. Kurlancheek,  A. M. Lee,  M. S. Lee,  
 S. V. Levchenko,  Ching Yeh Lin,  D. Liotard,  R. C. Lochan,  I. Lotan,  
 P. E. Maslen,  N. Nair,  D. P. O'Neill,  D. Neuhauser,  E. Neuscamman,  
 C. M. Oana,  R. Olson,  B. Peters,  R. Peverati,  P. A. Pieniazek,  
 Y. M. Rhee,  J. Ritchie,  M. A. Rohrdanz,  E. Rosta,  N. J. Russ,  
 H. F. Schaefer III,  N. E. Schultz,  N. Shenvi,  A. C. Simmonett,  A. Sodt,  
 D. Stuck,  K. S. Thanthiriwatte,  V. Vanovschi,  Tao Wang,  A. Warshel,  
 C. F. Williams,  Q. Wu,  X. Xu,  W. Zhang

 Please cite Q-Chem as follows:
 Y. Shao et al., Mol. Phys. 113, 184-215 (2015)
 DOI: 10.1080/00268976.2014.952696

 Q-Chem 5.3.2 for Intel X86 EM64T Linux

 Parts of Q-Chem use Armadillo 9.800.1 (Horizon Scraper).
 http://arma.sourceforge.net/

 Q-Chem begins on Thu Sep 15 16:28:33 2022  

Host: 
0

     Scratch files written to /scratch/user/peterli3819/peterli3819/12613574_1663277312000000784133753/qchem40558//
 Dec820 |scratch|qcdevops|jenkins|workspace|build_RNUM 7711   
Processing $rem in /sw/restricted/qchem/sw/5.3.2/config/preferences:
Processing $rem in /home/peterli3819/.qchemrc:

 Q-Chem warning in module libgen/rem_setup.C, line 2945:

 Neither GIA nor STOLL is specified by user. Use STOLL as the default


Checking the input file for inconsistencies... 	...done.

--------------------------------------------------------------
User input:
--------------------------------------------------------------
$molecule
0 1
--
0 1
C        1.913935    2.369716    0.491930
C        1.820212    1.160447   -0.437135
C        2.686784   -0.069684   -0.100118
C        2.444352   -0.547574    1.343709
O        1.099206   -0.900327    1.590034
C        2.330948   -1.215747   -1.075974
O        1.033491   -1.742540   -0.882386
C        4.176889    0.273919   -0.284915
O        5.057014   -0.808491   -0.096596
H        2.937525    2.776216    0.562108
H        1.570244    2.131881    1.512893
H        1.265530    3.178816    0.114965
H        2.060470    1.473719   -1.470877
H        0.772539    0.830386   -0.455563
H        2.716313    0.240250    2.067502
H        3.091325   -1.423650    1.550346
H        0.843146   -1.459616    0.816127
H        3.039910   -2.045167   -0.926987
H        2.453553   -0.859394   -2.118021
H        0.350785   -1.151605   -1.283706
H        4.449815    1.121232    0.375242
H        4.333821    0.614156   -1.323038
H        5.166561   -0.975204    0.847721
--
0 1
C       -4.472268   -1.847781    0.596398
C       -4.311053   -0.388309    0.169311
C       -2.865251    0.103999   -0.057130
C       -2.058439   -0.086391    1.249737
O       -0.956538    0.784799    1.362302
C       -2.266565   -0.665947   -1.252417
O       -1.009568   -0.197921   -1.690443
C       -2.940852    1.608758   -0.401885
O       -1.684611    2.171259   -0.723500
H       -4.085625   -2.549187   -0.162152
H       -5.539480   -2.083123    0.745243
H       -3.954417   -2.059267    1.547433
H       -4.776379    0.259162    0.935643
H       -4.888835   -0.220207   -0.758510
H       -1.725217   -1.138210    1.331295
H       -2.740014    0.103264    2.103184
H       -0.135560    0.264960    1.544904
H       -2.989612   -0.623295   -2.093139
H       -2.130804   -1.729649   -0.993017
H       -1.024421    0.783582   -1.625654
H       -3.404390    2.156071    0.443956
H       -3.590570    1.754293   -1.282433
H       -1.130323    2.002924    0.070188
$end

$rem
JOBTYPE           eda
EDA2              2
METHOD            wB97X-D
BASIS             def2-SV(P)
SCF_CONVERGENCE   8
THRESH            14
SYMMETRY          false
DISP_FREE_X       wB97X-D
DISP_FREE_C       none
EDA_BSSE          true
$end
--------------------------------------------------------------
 ----------------------------------------------------------------
             Standard Nuclear Orientation (Angstroms)
    I     Atom           X                Y                Z
 ----------------------------------------------------------------
    1      C      -1.9139349037    -2.3697158711     0.4919309107
    2      C      -1.8202119901    -1.1604472234    -0.4371345566
    3      C      -2.6867840467     0.0696838605    -0.1001180086
    4      C      -2.4443520366     0.5475744286     1.3437088017
    5      O      -1.0992060492     0.9003275942     1.5900336332
    6      C      -2.3309481308     1.2157465040    -1.0759744581
    7      O      -1.0334911538     1.7425396468    -0.8823866923
    8      C      -4.1768890331    -0.2739192890    -0.2849148402
    9      O      -5.0570140855     0.8084907370    -0.0965962350
   10      H      -2.9375248806    -2.7762158980     0.5621090920
   11      H      -1.5702438914    -2.1318804603     1.5128938109
   12      H      -1.2655298703    -3.1788159819     0.1149662061
   13      H      -2.0604699988    -1.4737196337    -1.4708764303
   14      H      -0.7725390079    -0.8303861754    -0.4555627091
   15      H      -2.7163129775    -0.2402493074     2.0675021113
   16      H      -3.0913250777     1.4236504740     1.5503454805
   17      H      -0.8431460975     1.4596163100     0.8161264119
   18      H      -3.0399101708     2.0451665239    -0.9269877598
   19      H      -2.4535531374     0.8593930967    -2.1180213180
   20      H      -0.3507851325     1.1516045284    -1.2837064816
   21      H      -4.4498149723    -1.1212320495     0.3752424924
   22      H      -4.3338210404    -0.6141566965    -1.3230377055
   23      H      -5.1665610712     0.9752040944     0.8477207036
   24      C       4.4722678767     1.8477815055     0.5963971331
   25      C       4.3110529431     0.3883093327     0.1693106983
   26      C       2.8652509635    -0.1039988305    -0.0571300771
   27      C       2.0584389854     0.0863916296     1.2497368693
   28      O       0.9565380340    -0.7847983852     1.3623022312
   29      C       2.2665648939     0.6659466783    -1.2524173586
   30      O       1.0095679078     0.1979204436    -1.6904431480
   31      C       2.9408520344    -1.6087579591    -0.4018845003
   32      O       1.6846110562    -2.1712591490    -0.7234992533
   33      H       4.0856248212     2.5491871934    -0.1621531272
   34      H       5.5394798679     2.0831236189     0.7452420166
   35      H       3.9544168887     2.0592678439     1.5474320644
   36      H       4.7763789959    -0.2591613480     0.9356429360
   37      H       4.8888349294     0.2202070063    -0.7585102511
   38      H       1.7252169320     1.1382106434     1.3312944729
   39      H       2.7400140161    -0.1032630063     2.1031839256
   40      H       0.1355600111    -0.2649593582     1.5449040513
   41      H       2.9896118756     0.6232943930    -2.0931393599
   42      H       2.1308038442     1.7296487709    -0.9930177644
   43      H       1.0244209611    -0.7835825307    -1.6256537709
   44      H       3.4043900838    -2.1560706094     0.4439566989
   45      H       3.5905700206    -1.7542932636    -1.2824324601
   46      H       1.1303230667    -2.0029238729     0.0701886955
 ----------------------------------------------------------------
 Molecular Point Group                 C1    NOp =  1
 Largest Abelian Subgroup              C1    NOp =  1
 Nuclear Repulsion Energy =        1627.12171135 hartrees
 There are       74 alpha and       74 beta electrons
 Requested basis set is def2-SV(P)
 There are 164 shells and 308 basis functions

 Total QAlloc Memory Limit  56000 MB
 Mega-Array Size       188 MB
 MEM_STATIC part       192 MB
 A cutoff of  1.0D-14 yielded  11522 shell pairs
 There are     39334 function pairs (     43600 Cartesian)
 Smallest overlap matrix eigenvalue = 1.28E-03

 Scale SEOQF with 1.000000e-02/1.000000e-01/1.000000e-01

 Standard Electronic Orientation quadrupole field applied
 Nucleus-field energy     =     0.0000000048 hartrees

 -----------------------------------------------------------------------
  General SCF calculation program by
  Eric Jon Sundstrom, Paul Horn, Yuezhi Mao, Dmitri Zuev, Alec White,
  David Stuck, Shaama M.S., Shane Yost, Joonho Lee, David Small,
  Daniel Levine, Susi Lehtola, Hugh Burton, Evgeny Epifanovsky,
  Bang C. Huynh
 -----------------------------------------------------------------------
================================================================
                 ALMO-EDA with the EDA2 driver                  
================================================================
 The second-generation ALMO-EDA (for DFT):                      
 P. R. Horn, Y. Mao and M. Head-Gordon, PCCP, 18, 23067 (2016)  
 Decomposition of the frozen energy:                            
 P. R. Horn, Y. Mao and M. Head-Gordon, JCP, 144, 114107 (2016) 
Using eda2 option set 2
Option set summary: Frozen orbital wavefunction, initial wavefunction decomposition, and traditional AO-based POL.
--------------------------------
Printing EDA Options
--------------------------------
eda_child_super_basis      0
fragmo_guess_mode          0
child_mp                   0
child_mp_orders            0
cls_elec                   1
cls_disp                   0
scfmi_mode                 1
scfmi_occs                 0
scfmi_virts                0
frz_relax                  0
frz_relax_method           0
dc_pen_start               0
dc_pen_conv                0
dc_pen_increment           0
dc_pen_steps               0
dc_pen_thresh_factor       0
dc_pen_pre_newton_thresh   0
frz_ortho_decomp           1
frz_ortho_decomp_conv      6
plot_mo_ortho_frz          0
frgm_method                2
scfmi_freeze_ss            0
separate_rehyb             0
plot_diff_den              0
eda_nocv                   0
eda_vct_relax              1
disp_free_x                -110
disp_free_c                0
eda_bsse                   1
eda_pct_a                  0
eda_covp                   0
--------------------------------
Attempting to make child job directory: /scratch/user/peterli3819/peterli3819/12613574_1663277312000000784133753/qchem40558//Frg1/
Attempting to make child job directory: /scratch/user/peterli3819/peterli3819/12613574_1663277312000000784133753/qchem40558//Frg2/
Creating input file /scratch/user/peterli3819/peterli3819/12613574_1663277312000000784133753/qchem40558/Frg1.input
using default PutDataFrgm: nothing
calling putenv with: QCSCRATCH=/scratch/user/peterli3819/peterli3819/12613574_1663277312000000784133753/qchem40558/ 
Spawning Job For Fragment 0
Done Job For Fragment 0
calling putenv with: QCSCRATCH=/scratch/user/peterli3819/peterli3819/12613574_1663277312000000784133753 
calling putenv with: QCTHREADS=8 
Creating input file /scratch/user/peterli3819/peterli3819/12613574_1663277312000000784133753/qchem40558/Frg2.input
using default PutDataFrgm: nothing
calling putenv with: QCSCRATCH=/scratch/user/peterli3819/peterli3819/12613574_1663277312000000784133753/qchem40558/ 
Spawning Job For Fragment 1
Done Job For Fragment 1
calling putenv with: QCSCRATCH=/scratch/user/peterli3819/peterli3819/12613574_1663277312000000784133753 
calling putenv with: QCTHREADS=8 
Doing General SCFMI
 Exchange:     0.2220 Hartree-Fock + 1.0000 wB97X-D + LR-HF
 Correlation:  1.0000 wB97X-D
 Using SG-2 standard quadrature grid
 Dispersion:   Grimme D
performing fock build before subrot guess so that all methods have access
Printing subrot_rss_gen Method Specification:
Occupied Subspace Method is 0
Virtual Subspace Method is 0
Energy of the unrelaxed supersystem initial determinant -924.395746762784
write pseudocanon occs and virts to disk
write pseudocanon orbital energies to disk
Tolerance of ortho_decomp_scf: 1.00e-06
GDM subspace size: 20
Beginning the Orthogonal Decomposition of the Initial Supersystem Wavefunction
    1    -924.2513686415      5.72e-02     ortho_decomp Preconditoned Steepest Descent
    2    -924.2657317642      9.30e-04     ortho_decomp BFGS Step
    3    -924.2657540751      7.18e-05     ortho_decomp BFGS Step
    4    -924.2657541421      2.83e-06     ortho_decomp BFGS Step
    5    -924.2657541422      8.97e-08     ortho_decomp 00000 Convergence criterion met
 Exchange:     0.2220 Hartree-Fock + 1.0000 wB97X-D + LR-HF
 Correlation:  1.0000 wB97X-D
 Using SG-2 standard quadrature grid
 Dispersion:   Grimme D
 Long-range K will be added via erf
 Coulomb attenuation parameter = 0.2 bohr**(-1)
 Exchange:     0.2220 Hartree-Fock + 1.0000 wB97X-D + LR-HF
 Correlation:  1.0000 wB97X-D
 Using SG-2 standard quadrature grid
 Dispersion:   Grimme D
 Long-range K will be added via erf
 Coulomb attenuation parameter = 0.2 bohr**(-1)
 Exchange:     0.2220 Hartree-Fock + 1.0000 wB97X-D + LR-HF
 Correlation:  1.0000 wB97X-D
 Using SG-2 standard quadrature grid
 Dispersion:   Grimme D
 Long-range K will be added via erf
 Coulomb attenuation parameter = 0.2 bohr**(-1)
Doing General SCFMI
 Exchange:     0.2220 Hartree-Fock + 1.0000 wB97X-D + LR-HF
 Correlation:  1.0000 wB97X-D
 Using SG-2 standard quadrature grid
 Dispersion:   Grimme D
performing fock build at end of subrot_r(subrot) constructor so that all methods have access
<S^2> of initial wavefunction before polarization iterations 0.0000000000
Beginning iterations for the determination of the polarized wavefunction
Energy prior to optimization (guess energy) = -924.395746762785
Begin Timing: Total SCF Calculation
begin iterations for algorithm: DIIS         
the SCF tolerance is set to 1.00e-08
    1    -924.3957467628      4.41e-04     00000 
    2    -924.4044973787      1.22e-04     00000 
    3    -924.4052329814      7.15e-05     00000 
    4    -924.4053646312      3.00e-05     00000 
    5    -924.4053937714      9.72e-06     00000 
    6    -924.4053976029      3.01e-06     00000 
    7    -924.4053978765      8.30e-07     00000 
    8    -924.4053978983      2.49e-07     00000 
    9    -924.4053979001      1.07e-07     00000 
   10    -924.4053979004      3.11e-08     00000 
   11    -924.4053979005      7.82e-09     00000 Convergence criterion met
write pseudocanon occs and virts to disk
write pseudocanon orbital energies to disk
Timing for Total SCF: 69.00s (wall), 533.51s (cpu)
<S^2> of polarized wavefunction after polarization iterations 0.0000000000
relaxing scfmi constraint to allow all rotations in the entire AO span
Doing General SCFMI
 Exchange:     0.2220 Hartree-Fock + 1.0000 wB97X-D + LR-HF
 Correlation:  1.0000 wB97X-D
 Using SG-2 standard quadrature grid
 Dispersion:   Grimme D
performing fock build at end of subrot_r(subrot) constructor so that all methods have access
<S^2> of polarized wavefunction before ct-allowed iterations 0.0000000000
Beginning iterations for the determination of the CT-Allowed wavefunction
Energy prior to optimization (guess energy) = -924.405397900456
Begin Timing: Total SCF Calculation
begin iterations for algorithm: DIIS         
the SCF tolerance is set to 1.00e-08
    1    -924.4053979005      5.93e-04     00000 
    2    -924.4331697309      1.27e-04     00000 
    3    -924.4343434173      9.00e-05     00000 
    4    -924.4346344329      2.25e-05     00000 
    5    -924.4346603300      6.19e-06     00000 
    6    -924.4346623515      1.70e-06     00000 
    7    -924.4346625115      5.76e-07     00000 
    8    -924.4346625290      1.93e-07     00000 
    9    -924.4346625307      4.03e-08     00000 
   10    -924.4346625308      1.11e-08     00000 
   11    -924.4346625309      3.88e-09     00000 Convergence criterion met
write pseudocanon occs and virts to disk
write pseudocanon orbital energies to disk
Timing for Total SCF: 69.00s (wall), 538.23s (cpu)
<S^2> of ct_allowed wavefunction after ct-allowed iterations 0.0000000000
Attempting to make child job directory: /scratch/user/peterli3819/peterli3819/12613574_1663277312000000784133753/qchem40558//FrgBSSE1/
Attempting to make child job directory: /scratch/user/peterli3819/peterli3819/12613574_1663277312000000784133753/qchem40558//FrgBSSE2/
Creating input file /scratch/user/peterli3819/peterli3819/12613574_1663277312000000784133753/qchem40558/FrgBSSE1.input
calling putenv with: QCSCRATCH=/scratch/user/peterli3819/peterli3819/12613574_1663277312000000784133753/qchem40558/ 
Spawning Job For Fragment 0
Done Job For Fragment 0
calling putenv with: QCSCRATCH=/scratch/user/peterli3819/peterli3819/12613574_1663277312000000784133753 
calling putenv with: QCTHREADS=8 
Creating input file /scratch/user/peterli3819/peterli3819/12613574_1663277312000000784133753/qchem40558/FrgBSSE2.input
calling putenv with: QCSCRATCH=/scratch/user/peterli3819/peterli3819/12613574_1663277312000000784133753/qchem40558/ 
Spawning Job For Fragment 1
Done Job For Fragment 1
calling putenv with: QCSCRATCH=/scratch/user/peterli3819/peterli3819/12613574_1663277312000000784133753 
calling putenv with: QCTHREADS=8 
====================================================================
   Evaluating the BSSE with fragment SCF in the supersystem basis
   Fragment contributions (kJ/mol) 
   Frgm 1: 12.4535
   Frgm 2: 22.2334
   BSSE (kJ/mol) = 34.6868
====================================================================

================================
        Results of EDA2         
================================
Basic EDA Quantities
--------------------
Fragment Energies (Ha):
1 -462.1901884790
2 -462.1941279877
--------------------
  E_prp (kJ/mol) = 0.0000
  E_frz (kJ/mol) = -30.0106
  E_pol (kJ/mol) = -25.3394
  E_vct (kJ/mol) = -42.1484 (CP-corrected)
  E_int (kJ/mol) = -97.4983 (CP-corrected)
--------------------


Decomposition of frozen interaction energy
--------------------
  --------------------
  Orthogonal Frozen Decomposition:
  --------------------
     E_elec   (ELEC)   (kJ/mol) = -241.8993
     E_pauli  (PAULI)  (kJ/mol) = 240.0061
     E_disp   (DISP)   (kJ/mol) = -28.1174
  --------------------
  Classical Frozen Decomposition:
  --------------------
     E_cls_elec  (CLS ELEC)  (kJ/mol) = -133.8689
     E_mod_pauli (MOD PAULI) (kJ/mol) = 131.9757 (FRZ - CLS ELEC - DISP)
     E_disp      (DISP)      (kJ/mol) = -28.1174
  --------------------
--------------------

Simplified EDA Summary (kJ/mol)
--------------------
 PREPARATION      0.0000
 FROZEN           -30.0106 (ELEC + PAULI + DISP)
[ELEC + PAULI = -1.8932, DISP = -28.1174]
 POLARIZATION    -25.3394
 CHARGE TRANSFER -42.1484     (counterpoise-corrected)
 TOTAL           -97.4983     (PRP + FRZ + POL + CT)
--------------------
 
 --------------------------------------------------------------
 
                    Orbital Energies (a.u.)
 --------------------------------------------------------------
 
 Alpha MOs
 -- Occupied --
-19.2599 -19.2571 -19.2569 -19.2530 -19.2483 -19.2477 -10.3452 -10.3443
-10.3438 -10.3436 -10.3436 -10.3337 -10.3144 -10.3066 -10.3050 -10.2936
-10.2927 -10.2856  -1.1396  -1.1290  -1.1201  -1.1154  -1.0994  -1.0959
 -0.9236  -0.9139  -0.8324  -0.8282  -0.7738  -0.7710  -0.7687  -0.7628
 -0.7227  -0.7193  -0.6650  -0.6565  -0.6365  -0.6242  -0.6141  -0.6071
 -0.5868  -0.5762  -0.5610  -0.5550  -0.5463  -0.5453  -0.5295  -0.5280
 -0.5197  -0.5169  -0.5075  -0.5012  -0.4975  -0.4898  -0.4840  -0.4788
 -0.4739  -0.4723  -0.4606  -0.4495  -0.4443  -0.4383  -0.4253  -0.4226
 -0.4194  -0.4077  -0.4012  -0.3903  -0.3783  -0.3686  -0.3518  -0.3496
 -0.3450  -0.3407
 -- Virtual --
  0.1198   0.1245   0.1297   0.1495   0.1542   0.1549   0.1617   0.1705
  0.1759   0.1863   0.1901   0.1963   0.2009   0.2086   0.2108   0.2237
  0.2243   0.2336   0.2361   0.2388   0.2415   0.2462   0.2508   0.2588
  0.2634   0.2769   0.2786   0.2865   0.2901   0.3002   0.3049   0.3085
  0.3158   0.3226   0.3280   0.3333   0.3349   0.3391   0.3492   0.3560
  0.3668   0.3706   0.3822   0.3890   0.4917   0.5034   0.5124   0.5185
  0.5236   0.5302   0.5434   0.5493   0.5657   0.5713   0.5882   0.5958
  0.6078   0.6184   0.6301   0.6475   0.6515   0.6634   0.6690   0.6771
  0.6786   0.6899   0.7011   0.7054   0.7084   0.7108   0.7155   0.7229
  0.7328   0.7401   0.7442   0.7459   0.7587   0.7647   0.7681   0.7715
  0.7739   0.7780   0.7859   0.7899   0.7918   0.7978   0.8027   0.8046
  0.8087   0.8112   0.8158   0.8193   0.8243   0.8268   0.8296   0.8364
  0.8388   0.8472   0.8543   0.8593   0.8612   0.8644   0.8819   0.8973
  0.9054   0.9103   0.9548   0.9821   0.9976   1.0205   1.0294   1.0783
  1.0946   1.1100   1.1237   1.1336   1.1556   1.1817   1.1863   1.2008
  1.2200   1.2299   1.2345   1.2470   1.2607   1.2765   1.2922   1.2994
  1.3393   1.3488   1.3677   1.3866   1.4056   1.4335   1.4421   1.4706
  1.4883   1.5072   1.5242   1.5471   1.5770   1.5893   1.6198   1.6480
  1.6746   1.6848   1.6940   1.7218   1.7468   1.7562   1.7668   1.8187
  1.8268   1.8416   1.8456   1.8604   1.8829   1.8917   1.9033   1.9123
  1.9475   1.9685   1.9785   1.9922   2.0022   2.0290   2.0517   2.0593
  2.0648   2.0716   2.0900   2.0994   2.1032   2.1328   2.1460   2.1632
  2.1768   2.1943   2.1967   2.1987   2.2185   2.2231   2.2406   2.2471
  2.2665   2.2675   2.2753   2.3248   2.3444   2.3505   2.3597   2.3775
  2.4412   2.4624   2.5242   2.5351   2.6652   2.6676   2.6769   2.6817
  2.7009   2.7123   2.7185   2.7398   2.7438   2.7511   2.7689   2.7800
  2.7907   2.7940   2.9023   2.9107   2.9123   2.9375   2.9382   2.9438
  3.0150   3.0238   3.0404   3.0468   3.0941   3.0979   3.1079   3.1099
  3.1275   3.1334   3.1798   3.1929   3.4592   3.4734   3.4792   3.4929
  3.5066   3.5246
 --------------------------------------------------------------
 
          Ground-State Mulliken Net Atomic Charges

     Atom                 Charge (a.u.)
  ----------------------------------------
      1 C                    -0.339127
      2 C                    -0.215537
      3 C                    -0.331986
      4 C                     0.059739
      5 O                    -0.535766
      6 C                     0.078384
      7 O                    -0.548352
      8 C                     0.055642
      9 O                    -0.483490
     10 H                     0.120929
     11 H                     0.131517
     12 H                     0.136884
     13 H                     0.106239
     14 H                     0.050745
     15 H                     0.111086
     16 H                     0.085532
     17 H                     0.344441
     18 H                     0.119016
     19 H                     0.099282
     20 H                     0.368703
     21 H                     0.102659
     22 H                     0.105160
     23 H                     0.322309
     24 C                    -0.324814
     25 C                    -0.197569
     26 C                    -0.367643
     27 C                     0.063471
     28 O                    -0.547258
     29 C                     0.088807
     30 O                    -0.531263
     31 C                     0.065221
     32 O                    -0.528517
     33 H                     0.129096
     34 H                     0.128146
     35 H                     0.128307
     36 H                     0.110445
     37 H                     0.108144
     38 H                     0.111522
     39 H                     0.099089
     40 H                     0.364863
     41 H                     0.095134
     42 H                     0.113700
     43 H                     0.361760
     44 H                     0.105735
     45 H                     0.106981
     46 H                     0.372631
  ----------------------------------------
  Sum of atomic charges =     0.000000

 -----------------------------------------------------------------
                    Cartesian Multipole Moments
 -----------------------------------------------------------------
    Charge (ESU x 10^10)
                 0.0000
    Dipole Moment (Debye)
         X       1.2345      Y      -0.2314      Z       1.2631
       Tot       1.7813
    Quadrupole Moments (Debye-Ang)
        XX    -103.1554     XY       6.7898     YY    -120.0187
        XZ      -6.3076     YZ       1.6219     ZZ    -116.0169
    Octopole Moments (Debye-Ang^2)
       XXX      46.7504    XXY      -8.2090    XYY      -7.2081
       YYY       8.9786    XXZ      39.9319    XYZ     -10.3825
       YYZ       8.2645    XZZ     -14.2006    YZZ      -0.1842
       ZZZ      -5.9394
    Hexadecapole Moments (Debye-Ang^3)
      XXXX   -5733.9539   XXXY      19.5170   XXYY   -1142.1198
      XYYY     -23.4136   YYYY   -1269.8268   XXXZ    -241.0216
      XXYZ      45.3252   XYYZ      -8.8831   YYYZ      -5.3674
      XXZZ   -1005.0733   XYZZ     -14.1730   YYZZ    -348.5697
      XZZZ      -7.2416   YZZZ       1.1881   ZZZZ    -815.4677
 -----------------------------------------------------------------
Archival summary:
1\1\tnxt-0325.cluster\SP\ProcedureUnspecified\BasisUnspecified\61228\peterli3\ThuSep1516:36:272022ThuSep1516:36:272022\0\\#,ProcedureUnspecified,BasisUnspecified,\\0,1\O\H,1,0.988727\C,1,1.40919,2,109.815\H,3,1.10635,1,110.264,2,-3.45096,0\H,3,1.10855,1,108.27,2,113.206,0\C,3,1.54761,1,113.518,2,-126.925,0\C,6,1.54271,3,112.989,1,83.9569,0\H,7,1.10326,6,110.29,3,53.2401,0\H,7,1.1097,6,108.358,3,170.272,0\O,7,1.41101,6,114.878,3,-67.0402,0\H,10,0.983751,7,107.28,6,-38.3022,0\C,6,1.54402,3,108.971,1,-155.313,0\H,12,1.10587,6,108.525,3,178.277,0\H,12,1.1059,6,107.996,3,64.0047,0\C,12,1.5292,6,116.359,3,-58.5088,0\H,15,1.10294,12,110.081,6,179.027,0\H,15,1.10311,12,112.2,6,-61.6397,0\H,15,1.10334,12,111.974,6,59.7902,0\C,6,1.5456,3,109.489,1,-38.2364,0\H,19,1.10394,6,109.576,3,-174.991,0\H,19,1.10899,6,109.317,3,-57.6669,0\O,19,1.4135,6,113.248,3,65.8824,0\H,22,0.982605,19,104.441,6,-57.8877,0\O,2,1.6984,1,165.768,3,38.0476,0\H,24,0.988586,2,100.315,1,12.9175,0\C,24,1.41228,2,121.094,1,127.013,0\H,26,1.10386,24,107.371,2,56.8147,0\H,26,1.1085,24,109.025,2,172.803,0\C,26,1.54006,24,113.014,2,-65.6249,0\C,29,1.54033,26,109.51,24,-179.217,0\H,30,1.10367,29,108.613,26,180,0\H,30,1.10826,29,109.714,26,-63.5599,0\O,30,1.40773,29,114.661,26,61.7881,0\H,33,0.965157,30,109.552,29,-77.4729,0\C,29,1.542,26,111.345,24,59.1042,0\H,35,1.09859,29,107.453,26,-67.7255,0\H,35,1.10656,29,107.939,26,178.297,0\C,35,1.52783,29,117.648,26,54.1046,0\H,38,1.1032,35,111.902,29,-63.0674,0\H,38,1.10326,35,109.672,29,178.439,0\H,38,1.10359,35,112.775,29,58.978,0\C,29,1.54673,26,108.987,24,-61.0446,0\H,42,1.10125,29,108.941,26,-65.9277,0\H,42,1.1081,29,109.243,26,177.089,0\O,42,1.41364,29,113.632,26,53.2005,0\H,45,0.988104,42,110.834,29,78.5139,0\\\@

 Total job time:  473.69s(wall), 2195.78s(cpu) 
 Thu Sep 15 16:36:27 2022

        *************************************************************
        *                                                           *
        *  Thank you very much for using Q-Chem.  Have a nice day.  *
        *                                                           *
        *************************************************************


remove work dirs /scratch/user/peterli3819/peterli3819/12613574_1663277312000000784133753/qchem40558.0 -- /scratch/user/peterli3819/peterli3819/12613574_1663277312000000784133753/qchem40558.-1
rm -rf /scratch/user/peterli3819/peterli3819/12613574_1663277312000000784133753/qchem40558
real 475.68
user 3298.51
sys 88.24
