 Entering Gaussian System, Link 0=g16
 Input=gaussian_test.inp
 Output=gaussian_test.log
 Initial command:
 /sw/restricted/lms/sw/Gaussian/g16_B01/g16/l1.exe "/scratch/user/peterchao1/peterchao1/9993840_1712002018000000331117961/Gau-109990.inp" -scrdir="/scratch/user/peterchao1/peterchao1/9993840_1712002018000000331117961/"
 Entering Link 1 = /sw/restricted/lms/sw/Gaussian/g16_B01/g16/l1.exe PID=    109994.
  
 Copyright (c) 1988-2017, Gaussian, Inc.  All Rights Reserved.
  
 This is part of the Gaussian(R) 16 program.  It is based on
 the Gaussian(R) 09 system (copyright 2009, Gaussian, Inc.),
 the Gaussian(R) 03 system (copyright 2003, Gaussian, Inc.),
 the Gaussian(R) 98 system (copyright 1998, Gaussian, Inc.),
 the Gaussian(R) 94 system (copyright 1995, Gaussian, Inc.),
 the Gaussian 92(TM) system (copyright 1992, Gaussian, Inc.),
 the Gaussian 90(TM) system (copyright 1990, Gaussian, Inc.),
 the Gaussian 88(TM) system (copyright 1988, Gaussian, Inc.),
 the Gaussian 86(TM) system (copyright 1986, Carnegie Mellon
 University), and the Gaussian 82(TM) system (copyright 1983,
 Carnegie Mellon University). Gaussian is a federally registered
 trademark of Gaussian, Inc.
  
 This software contains proprietary and confidential information,
 including trade secrets, belonging to Gaussian, Inc.
  
 This software is provided under written license and may be
 used, copied, transmitted, or stored only in accord with that
 written license.
  
 The following legend is applicable only to US Government
 contracts under FAR:
  
                    RESTRICTED RIGHTS LEGEND
  
 Use, reproduction and disclosure by the US Government is
 subject to restrictions as set forth in subparagraphs (a)
 and (c) of the Commercial Computer Software - Restricted
 Rights clause in FAR 52.227-19.
  
 Gaussian, Inc.
 340 Quinnipiac St., Bldg. 40, Wallingford CT 06492
  
  
 ---------------------------------------------------------------
 Warning -- This program may not be used in any manner that
 competes with the business of Gaussian, Inc. or will provide
 assistance to any competitor of Gaussian, Inc.  The licensee
 of this program is prohibited from giving any competitor of
 Gaussian, Inc. access to this program.  By using this program,
 the user acknowledges that Gaussian, Inc. is engaged in the
 business of creating and licensing software in the field of
 computational chemistry and represents and warrants to the
 licensee that it is not a competitor of Gaussian, Inc. and that
 it will not use this program in any manner prohibited above.
 ---------------------------------------------------------------
  

 Cite this work as:
 Gaussian 16, Revision B.01,
 M. J. Frisch, G. W. Trucks, H. B. Schlegel, G. E. Scuseria, 
 M. A. Robb, J. R. Cheeseman, G. Scalmani, V. Barone, 
 G. A. Petersson, H. Nakatsuji, X. Li, M. Caricato, A. V. Marenich, 
 J. Bloino, B. G. Janesko, R. Gomperts, B. Mennucci, H. P. Hratchian, 
 J. V. Ortiz, A. F. Izmaylov, J. L. Sonnenberg, D. Williams-Young, 
 F. Ding, F. Lipparini, F. Egidi, J. Goings, B. Peng, A. Petrone, 
 T. Henderson, D. Ranasinghe, V. G. Zakrzewski, J. Gao, N. Rega, 
 G. Zheng, W. Liang, M. Hada, M. Ehara, K. Toyota, R. Fukuda, 
 J. Hasegawa, M. Ishida, T. Nakajima, Y. Honda, O. Kitao, H. Nakai, 
 T. Vreven, K. Throssell, J. A. Montgomery, Jr., J. E. Peralta, 
 F. Ogliaro, M. J. Bearpark, J. J. Heyd, E. N. Brothers, K. N. Kudin, 
 V. N. Staroverov, T. A. Keith, R. Kobayashi, J. Normand, 
 K. Raghavachari, A. P. Rendell, J. C. Burant, S. S. Iyengar, 
 J. Tomasi, M. Cossi, J. M. Millam, M. Klene, C. Adamo, R. Cammi, 
 J. W. Ochterski, R. L. Martin, K. Morokuma, O. Farkas, 
 J. B. Foresman, and D. J. Fox, Gaussian, Inc., Wallingford CT, 2016.
 
 ******************************************
 Gaussian 16:  ES64L-G16RevB.01 20-Dec-2017
                 1-Apr-2024 
 ******************************************
 %nprocshared=4
 Will use up to    4 processors via shared memory.
 %mem=8000mb
 %chk=dimer.chk
 %nprocshared=4
 Will use up to    4 processors via shared memory.
 %mem=8000mb
 ----------------------------------------------------------------------
 #T wB97XD/def2svpp opt=tight freq int(grid=ultrafine) scf=(verytight,q
 c) Volume=tight
 ----------------------------------------------------------------------
 -----
 Dimer
 -----
 Symbolic Z-matrix:
 Charge =  0 Multiplicity = 1
 C                    -3.80951   0.18553   0.83145 
 C                    -2.44129   0.10861   0.13871 
 C                    -2.50056   0.77932  -1.23256 
 N                    -1.39698   0.77244   0.92363 
 C                    -2.03307  -1.3722   -0.01778 
 O                    -0.82461  -1.55397  -0.6872 
 H                    -4.56745  -0.32151   0.24064 
 H                    -4.10963   1.22481   0.95679 
 H                    -3.7701   -0.28473   1.81359 
 H                    -2.71009   1.8414   -1.12855 
 H                    -3.2798    0.32471  -1.8377 
 H                    -1.54754   0.66046  -1.73939 
 H                    -1.30757   0.32895   1.8324 
 H                    -1.64381   1.74564   1.072 
 H                    -2.79377  -1.8911   -0.60719 
 H                    -2.00123  -1.83736   0.9825 
 H                    -0.11013  -1.12395  -0.17263 
 C                     3.80934  -0.18549   0.83187 
 C                     2.44136  -0.10854   0.13869 
 C                     2.50099  -0.77929  -1.23254 
 N                     1.39683  -0.77246   0.92328 
 C                     2.0331    1.37221  -0.01795 
 O                     0.82446   1.55384  -0.68721 
 H                     4.10909  -1.22478   0.95802 
 H                     3.76982   0.28546   1.81366 
 H                     4.56762   0.32087   0.24093 
 H                     3.28022  -0.32451  -1.83756 
 H                     1.54802  -0.66061  -1.7395 
 H                     2.71073  -1.84133  -1.12852 
 H                     1.30648  -0.32841   1.83167 
 H                     1.64404  -1.74545   1.0724 
 H                     2.79362   1.89109  -0.60758 
 H                     2.00133   1.83756   0.98221 
 H                     0.11024   1.12351  -0.17261 
 
 Add virtual bond connecting atoms N21        and H17        Dist= 3.58D+00.
 Add virtual bond connecting atoms H34        and N4         Dist= 3.58D+00.

 GradGradGradGradGradGradGradGradGradGradGradGradGradGradGradGradGradGrad
 Initialization pass.
                           ----------------------------
                           !    Initial Parameters    !
                           ! (Angstroms and Degrees)  !
 --------------------------                            --------------------------
 ! Name  Definition              Value          Derivative Info.                !
 --------------------------------------------------------------------------------
 ! R1    R(1,2)                  1.5355         estimate D2E/DX2                !
 ! R2    R(1,7)                  1.0866         estimate D2E/DX2                !
 ! R3    R(1,8)                  1.089          estimate D2E/DX2                !
 ! R4    R(1,9)                  1.0896         estimate D2E/DX2                !
 ! R5    R(2,3)                  1.5277         estimate D2E/DX2                !
 ! R6    R(2,4)                  1.4654         estimate D2E/DX2                !
 ! R7    R(2,5)                  1.544          estimate D2E/DX2                !
 ! R8    R(3,10)                 1.0875         estimate D2E/DX2                !
 ! R9    R(3,11)                 1.0863         estimate D2E/DX2                !
 ! R10   R(3,12)                 1.0859         estimate D2E/DX2                !
 ! R11   R(4,13)                 1.0152         estimate D2E/DX2                !
 ! R12   R(4,14)                 1.0149         estimate D2E/DX2                !
 ! R13   R(4,34)                 1.8965         estimate D2E/DX2                !
 ! R14   R(5,6)                  1.3934         estimate D2E/DX2                !
 ! R15   R(5,15)                 1.0933         estimate D2E/DX2                !
 ! R16   R(5,16)                 1.1036         estimate D2E/DX2                !
 ! R17   R(6,17)                 0.9799         estimate D2E/DX2                !
 ! R18   R(17,21)                1.8962         estimate D2E/DX2                !
 ! R19   R(18,19)                1.5355         estimate D2E/DX2                !
 ! R20   R(18,24)                1.089          estimate D2E/DX2                !
 ! R21   R(18,25)                1.0896         estimate D2E/DX2                !
 ! R22   R(18,26)                1.0865         estimate D2E/DX2                !
 ! R23   R(19,20)                1.5277         estimate D2E/DX2                !
 ! R24   R(19,21)                1.4654         estimate D2E/DX2                !
 ! R25   R(19,22)                1.544          estimate D2E/DX2                !
 ! R26   R(20,27)                1.0863         estimate D2E/DX2                !
 ! R27   R(20,28)                1.0859         estimate D2E/DX2                !
 ! R28   R(20,29)                1.0875         estimate D2E/DX2                !
 ! R29   R(21,30)                1.0151         estimate D2E/DX2                !
 ! R30   R(21,31)                1.0149         estimate D2E/DX2                !
 ! R31   R(22,23)                1.3935         estimate D2E/DX2                !
 ! R32   R(22,32)                1.0933         estimate D2E/DX2                !
 ! R33   R(22,33)                1.1036         estimate D2E/DX2                !
 ! R34   R(23,34)                0.9798         estimate D2E/DX2                !
 ! A1    A(2,1,7)              110.6632         estimate D2E/DX2                !
 ! A2    A(2,1,8)              110.2001         estimate D2E/DX2                !
 ! A3    A(2,1,9)              110.658          estimate D2E/DX2                !
 ! A4    A(7,1,8)              108.402          estimate D2E/DX2                !
 ! A5    A(7,1,9)              108.2971         estimate D2E/DX2                !
 ! A6    A(8,1,9)              108.5483         estimate D2E/DX2                !
 ! A7    A(1,2,3)              110.389          estimate D2E/DX2                !
 ! A8    A(1,2,4)              111.7565         estimate D2E/DX2                !
 ! A9    A(1,2,5)              109.2296         estimate D2E/DX2                !
 ! A10   A(3,2,4)              108.0328         estimate D2E/DX2                !
 ! A11   A(3,2,5)              109.8989         estimate D2E/DX2                !
 ! A12   A(4,2,5)              107.4778         estimate D2E/DX2                !
 ! A13   A(2,3,10)             110.5116         estimate D2E/DX2                !
 ! A14   A(2,3,11)             110.1283         estimate D2E/DX2                !
 ! A15   A(2,3,12)             109.6843         estimate D2E/DX2                !
 ! A16   A(10,3,11)            108.8913         estimate D2E/DX2                !
 ! A17   A(10,3,12)            108.6998         estimate D2E/DX2                !
 ! A18   A(11,3,12)            108.8884         estimate D2E/DX2                !
 ! A19   A(2,4,13)             110.1437         estimate D2E/DX2                !
 ! A20   A(2,4,14)             109.8391         estimate D2E/DX2                !
 ! A21   A(2,4,34)             109.9144         estimate D2E/DX2                !
 ! A22   A(13,4,14)            108.0262         estimate D2E/DX2                !
 ! A23   A(13,4,34)            121.8927         estimate D2E/DX2                !
 ! A24   A(14,4,34)             95.7549         estimate D2E/DX2                !
 ! A25   A(2,5,6)              113.7726         estimate D2E/DX2                !
 ! A26   A(2,5,15)             109.0182         estimate D2E/DX2                !
 ! A27   A(2,5,16)             108.6633         estimate D2E/DX2                !
 ! A28   A(6,5,15)             106.4106         estimate D2E/DX2                !
 ! A29   A(6,5,16)             110.8203         estimate D2E/DX2                !
 ! A30   A(15,5,16)            107.9787         estimate D2E/DX2                !
 ! A31   A(5,6,17)             108.8343         estimate D2E/DX2                !
 ! A32   A(6,17,21)            164.6502         estimate D2E/DX2                !
 ! A33   A(19,18,24)           110.2033         estimate D2E/DX2                !
 ! A34   A(19,18,25)           110.6577         estimate D2E/DX2                !
 ! A35   A(19,18,26)           110.6624         estimate D2E/DX2                !
 ! A36   A(24,18,25)           108.5482         estimate D2E/DX2                !
 ! A37   A(24,18,26)           108.4011         estimate D2E/DX2                !
 ! A38   A(25,18,26)           108.296          estimate D2E/DX2                !
 ! A39   A(18,19,20)           110.3908         estimate D2E/DX2                !
 ! A40   A(18,19,21)           111.7536         estimate D2E/DX2                !
 ! A41   A(18,19,22)           109.2346         estimate D2E/DX2                !
 ! A42   A(20,19,21)           108.0278         estimate D2E/DX2                !
 ! A43   A(20,19,22)           109.8986         estimate D2E/DX2                !
 ! A44   A(21,19,22)           107.4791         estimate D2E/DX2                !
 ! A45   A(19,20,27)           110.1272         estimate D2E/DX2                !
 ! A46   A(19,20,28)           109.6814         estimate D2E/DX2                !
 ! A47   A(19,20,29)           110.5153         estimate D2E/DX2                !
 ! A48   A(27,20,28)           108.8881         estimate D2E/DX2                !
 ! A49   A(27,20,29)           108.891          estimate D2E/DX2                !
 ! A50   A(28,20,29)           108.7007         estimate D2E/DX2                !
 ! A51   A(17,21,19)           109.9393         estimate D2E/DX2                !
 ! A52   A(17,21,30)           121.8381         estimate D2E/DX2                !
 ! A53   A(17,21,31)            95.7845         estimate D2E/DX2                !
 ! A54   A(19,21,30)           110.143          estimate D2E/DX2                !
 ! A55   A(19,21,31)           109.8404         estimate D2E/DX2                !
 ! A56   A(30,21,31)           108.0326         estimate D2E/DX2                !
 ! A57   A(19,22,23)           113.7714         estimate D2E/DX2                !
 ! A58   A(19,22,32)           109.0231         estimate D2E/DX2                !
 ! A59   A(19,22,33)           108.6678         estimate D2E/DX2                !
 ! A60   A(23,22,32)           106.4074         estimate D2E/DX2                !
 ! A61   A(23,22,33)           110.8146         estimate D2E/DX2                !
 ! A62   A(32,22,33)           107.9794         estimate D2E/DX2                !
 ! A63   A(22,23,34)           108.8295         estimate D2E/DX2                !
 ! A64   A(4,34,23)            164.6148         estimate D2E/DX2                !
 ! D1    D(7,1,2,3)             60.4005         estimate D2E/DX2                !
 ! D2    D(7,1,2,4)           -179.3401         estimate D2E/DX2                !
 ! D3    D(7,1,2,5)            -60.5444         estimate D2E/DX2                !
 ! D4    D(8,1,2,3)            -59.4842         estimate D2E/DX2                !
 ! D5    D(8,1,2,4)             60.7751         estimate D2E/DX2                !
 ! D6    D(8,1,2,5)            179.5708         estimate D2E/DX2                !
 ! D7    D(9,1,2,3)           -179.548          estimate D2E/DX2                !
 ! D8    D(9,1,2,4)            -59.2887         estimate D2E/DX2                !
 ! D9    D(9,1,2,5)             59.507          estimate D2E/DX2                !
 ! D10   D(1,2,3,10)            63.9306         estimate D2E/DX2                !
 ! D11   D(1,2,3,11)           -56.4202         estimate D2E/DX2                !
 ! D12   D(1,2,3,12)          -176.2416         estimate D2E/DX2                !
 ! D13   D(4,2,3,10)           -58.54           estimate D2E/DX2                !
 ! D14   D(4,2,3,11)          -178.8907         estimate D2E/DX2                !
 ! D15   D(4,2,3,12)            61.2878         estimate D2E/DX2                !
 ! D16   D(5,2,3,10)          -175.5244         estimate D2E/DX2                !
 ! D17   D(5,2,3,11)            64.1249         estimate D2E/DX2                !
 ! D18   D(5,2,3,12)           -55.6966         estimate D2E/DX2                !
 ! D19   D(1,2,4,13)            60.3659         estimate D2E/DX2                !
 ! D20   D(1,2,4,14)           -58.4996         estimate D2E/DX2                !
 ! D21   D(1,2,4,34)          -162.6274         estimate D2E/DX2                !
 ! D22   D(3,2,4,13)          -178.0052         estimate D2E/DX2                !
 ! D23   D(3,2,4,14)            63.1293         estimate D2E/DX2                !
 ! D24   D(3,2,4,34)           -40.9986         estimate D2E/DX2                !
 ! D25   D(5,2,4,13)           -59.4649         estimate D2E/DX2                !
 ! D26   D(5,2,4,14)          -178.3304         estimate D2E/DX2                !
 ! D27   D(5,2,4,34)            77.5418         estimate D2E/DX2                !
 ! D28   D(1,2,5,6)            177.5375         estimate D2E/DX2                !
 ! D29   D(1,2,5,15)            58.959          estimate D2E/DX2                !
 ! D30   D(1,2,5,16)           -58.4946         estimate D2E/DX2                !
 ! D31   D(3,2,5,6)             56.2944         estimate D2E/DX2                !
 ! D32   D(3,2,5,15)           -62.2841         estimate D2E/DX2                !
 ! D33   D(3,2,5,16)          -179.7376         estimate D2E/DX2                !
 ! D34   D(4,2,5,6)            -61.0364         estimate D2E/DX2                !
 ! D35   D(4,2,5,15)          -179.615          estimate D2E/DX2                !
 ! D36   D(4,2,5,16)            62.9315         estimate D2E/DX2                !
 ! D37   D(2,4,34,23)          115.833          estimate D2E/DX2                !
 ! D38   D(13,4,34,23)        -113.1078         estimate D2E/DX2                !
 ! D39   D(14,4,34,23)           2.2983         estimate D2E/DX2                !
 ! D40   D(2,5,6,17)            61.6374         estimate D2E/DX2                !
 ! D41   D(15,5,6,17)         -178.3009         estimate D2E/DX2                !
 ! D42   D(16,5,6,17)          -61.1557         estimate D2E/DX2                !
 ! D43   D(5,6,17,21)          107.6824         estimate D2E/DX2                !
 ! D44   D(6,17,21,19)         115.8579         estimate D2E/DX2                !
 ! D45   D(6,17,21,30)        -113.1115         estimate D2E/DX2                !
 ! D46   D(6,17,21,31)           2.3022         estimate D2E/DX2                !
 ! D47   D(24,18,19,20)        -59.5251         estimate D2E/DX2                !
 ! D48   D(24,18,19,21)         60.7271         estimate D2E/DX2                !
 ! D49   D(24,18,19,22)        179.5259         estimate D2E/DX2                !
 ! D50   D(25,18,19,20)       -179.5907         estimate D2E/DX2                !
 ! D51   D(25,18,19,21)        -59.3384         estimate D2E/DX2                !
 ! D52   D(25,18,19,22)         59.4603         estimate D2E/DX2                !
 ! D53   D(26,18,19,20)         60.36           estimate D2E/DX2                !
 ! D54   D(26,18,19,21)       -179.3877         estimate D2E/DX2                !
 ! D55   D(26,18,19,22)        -60.5889         estimate D2E/DX2                !
 ! D56   D(18,19,20,27)        -56.439          estimate D2E/DX2                !
 ! D57   D(18,19,20,28)       -176.2575         estimate D2E/DX2                !
 ! D58   D(18,19,20,29)         63.9131         estimate D2E/DX2                !
 ! D59   D(21,19,20,27)       -178.9039         estimate D2E/DX2                !
 ! D60   D(21,19,20,28)         61.2776         estimate D2E/DX2                !
 ! D61   D(21,19,20,29)        -58.5518         estimate D2E/DX2                !
 ! D62   D(22,19,20,27)         64.1133         estimate D2E/DX2                !
 ! D63   D(22,19,20,28)        -55.7052         estimate D2E/DX2                !
 ! D64   D(22,19,20,29)       -175.5346         estimate D2E/DX2                !
 ! D65   D(18,19,21,17)       -162.6222         estimate D2E/DX2                !
 ! D66   D(18,19,21,30)         60.4258         estimate D2E/DX2                !
 ! D67   D(18,19,21,31)        -58.4478         estimate D2E/DX2                !
 ! D68   D(20,19,21,17)        -40.9962         estimate D2E/DX2                !
 ! D69   D(20,19,21,30)       -177.9482         estimate D2E/DX2                !
 ! D70   D(20,19,21,31)         63.1782         estimate D2E/DX2                !
 ! D71   D(22,19,21,17)         77.5417         estimate D2E/DX2                !
 ! D72   D(22,19,21,30)        -59.4103         estimate D2E/DX2                !
 ! D73   D(22,19,21,31)       -178.2839         estimate D2E/DX2                !
 ! D74   D(18,19,22,23)        177.5681         estimate D2E/DX2                !
 ! D75   D(18,19,22,32)         58.9909         estimate D2E/DX2                !
 ! D76   D(18,19,22,33)        -58.4687         estimate D2E/DX2                !
 ! D77   D(20,19,22,23)         56.3198         estimate D2E/DX2                !
 ! D78   D(20,19,22,32)        -62.2574         estimate D2E/DX2                !
 ! D79   D(20,19,22,33)       -179.717          estimate D2E/DX2                !
 ! D80   D(21,19,22,23)        -61.0056         estimate D2E/DX2                !
 ! D81   D(21,19,22,32)       -179.5827         estimate D2E/DX2                !
 ! D82   D(21,19,22,33)         62.9576         estimate D2E/DX2                !
 ! D83   D(19,22,23,34)         61.6108         estimate D2E/DX2                !
 ! D84   D(32,22,23,34)       -178.3242         estimate D2E/DX2                !
 ! D85   D(33,22,23,34)        -61.1829         estimate D2E/DX2                !
 ! D86   D(22,23,34,4)         107.7117         estimate D2E/DX2                !
 --------------------------------------------------------------------------------
 Number of steps in this run=    194 maximum allowed number of steps=    204.
 GradGradGradGradGradGradGradGradGradGradGradGradGradGradGradGradGradGrad

                    Distance matrix (angstroms):
                    1          2          3          4          5
     1  C    0.000000
     2  C    1.535523   0.000000
     3  C    2.515169   1.527663   0.000000
     4  N    2.484602   1.465380   2.422203   0.000000
     5  C    2.510665   1.543993   2.514616   2.426993   0.000000
     6  O    3.773830   2.461696   2.924124   2.886958   1.393395
     7  H    1.086560   2.171621   2.766616   3.422723   2.755688
     8  H    1.088983   2.167605   2.753325   2.750307   3.465013
     9  H    1.089626   2.173857   3.467411   2.746143   2.748408
    10  H    2.791459   2.163507   1.087531   2.660514   3.466897
    11  H    2.724762   2.157778   1.086318   3.372002   2.783159
    12  H    3.457063   2.151882   1.085934   2.669620   2.707656
    13  H    2.698553   2.049993   3.319648   1.015160   2.615994
    14  H    2.679940   2.046188   2.641740   1.014921   3.325666
    15  H    2.722826   2.163199   2.758299   3.374735   1.093315
    16  H    2.717491   2.166195   3.464509   2.679474   1.103601
    17  H    4.050715   2.655263   3.234202   2.540480   1.945067
    18  C    7.627881   6.295822   6.708773   5.294514   6.021954
    19  C    6.296010   4.887474   5.204921   4.015607   4.652076
    20  C    6.709202   5.205272   5.238784   4.717111   4.731268
    21  N    5.294544   4.015349   4.716500   3.192511   3.606868
    22  C    6.022109   4.652032   4.730845   3.607182   4.905659
    23  O    5.064805   3.665507   3.457316   2.853098   4.144307
    24  H    8.044208   6.734741   7.245871   5.857214   6.220938
    25  H    7.643365   6.435423   6.988640   5.265473   6.306786
    26  H    8.399005   7.012865   7.234675   6.020502   6.819270
    27  H    7.592633   6.068686   5.916244   5.541093   5.713172
    28  H    6.002403   4.475929   4.326823   4.221241   4.036691
    29  H    7.103739   5.652556   5.834053   5.283592   4.894631
    30  H    5.238120   4.135560   5.011001   3.056976   3.957589
    31  H    5.790329   4.582489   5.372617   3.950909   3.853429
    32  H    6.970010   5.580182   5.445634   4.599686   5.856090
    33  H    6.042999   4.841246   5.127582   3.561808   5.251562
    34  H    4.153598   2.763557   2.838701   1.896498   3.293373
                    6          7          8          9         10
     6  O    0.000000
     7  H    4.048299   0.000000
     8  H    4.606046   1.764526   0.000000
     9  H    4.067040   1.763883   1.768638   0.000000
    10  H    3.908752   3.162695   2.586028   3.781562   0.000000
    11  H    3.298649   2.528858   3.050894   3.734127   1.768566
    12  H    2.556062   3.742274   3.761936   4.296137   1.766139
    13  H    3.182300   3.685597   3.069331   2.537914   3.608570
    14  H    3.827962   3.675858   2.522857   3.032071   2.447147
    15  H    1.999419   2.515624   3.726442   3.064930   3.769663
    16  H    2.062191   3.071425   3.717910   2.496049   4.300260
    17  H    0.979882   4.547787   4.773700   4.247903   4.057935
    18  C    5.064954   8.398731   8.044542   7.643398   7.103131
    19  C    3.665771   7.012783   6.735171   6.435721   5.652037
    20  C    3.457907   7.234826   7.246372   6.989282   5.833883
    21  N    2.852925   6.020136   5.857589   5.265712   5.282902
    22  C    4.144501   6.819296   6.221332   6.306907   4.894015
    23  O    3.518221   5.783638   5.211160   5.544749   3.573577
    24  H    5.211189   8.752882   8.576007   7.981063   7.762503
    25  H    5.544959   8.506053   7.981377   7.561452   7.284692
    26  H    5.783813   9.157624   8.753523   8.506320   7.559924
    27  H    4.436724   8.118182   8.051006   7.939742   6.409184
    28  H    2.744955   6.436994   6.544748   6.406876   4.976419
    29  H    3.574340   7.560178   7.763179   7.285607   6.553449
    30  H    3.519688   6.085593   5.701939   5.076796   5.440932
    31  H    3.037606   6.426664   6.476146   5.656495   6.055413
    32  H    4.996627   7.733068   7.109570   7.326568   5.528525
    33  H    4.719671   6.954163   6.141659   6.205218   5.162630
    34  H    2.882297   4.913207   4.369562   4.580953   3.063231
                   11         12         13         14         15
    11  H    0.000000
    12  H    1.767235   0.000000
    13  H    4.166460   3.595165   0.000000
    14  H    3.627931   3.015097   1.642643   0.000000
    15  H    2.580734   3.057029   3.617878   4.167489   0.000000
    16  H    3.776613   3.722043   2.428247   3.601890   1.777113
    17  H    3.862370   2.775794   2.750441   3.483650   2.824762
    18  C    7.592293   6.001938   5.239132   5.789975   6.970015
    19  C    6.068404   4.475477   4.136969   4.582318   5.580363
    20  C    5.916305   4.326714   5.012706   5.372671   5.446257
    21  N    5.540554   4.220480   3.058336   3.950756   4.599442
    22  C    5.712767   4.036208   3.958820   3.853195   5.856200
    23  O    4.436141   2.744376   3.520557   3.037094   4.996557
    24  H    8.050639   6.544290   5.702533   6.475516   7.109390
    25  H    7.939220   6.406184   5.077615   5.655936   7.326577
    26  H    8.118051   6.436785   6.086925   6.426700   7.733185
    27  H    6.592073   4.928197   5.911303   6.082531   6.392294
    28  H    4.928324   3.365670   4.678897   4.886953   4.652675
    29  H    6.409455   4.976443   5.442783   6.055628   5.529354
    30  H    5.909723   4.677156   2.695434   3.685509   5.020168
    31  H    6.082636   4.886795   3.686831   4.795585   4.747253
    32  H    6.391647   4.651999   5.021308   4.746884   6.747136
    33  H    6.175029   4.624627   3.734645   3.647406   6.278703
    34  H    3.860437   2.327542   2.581006   2.238924   4.208326
                   16         17         18         19         20
    16  H    0.000000
    17  H    2.327980   0.000000
    18  C    6.042685   4.153553   0.000000
    19  C    4.841216   2.763710   1.535513   0.000000
    20  C    5.127949   2.839046   2.515185   1.527659   0.000000
    21  N    3.561505   1.896181   2.484569   1.465402   2.422139
    22  C    5.251474   3.293659   2.510709   1.543962   2.514581
    23  O    4.719386   2.882502   3.773914   2.461703   2.924326
    24  H    6.140998   4.369257   1.088985   2.167636   2.753723
    25  H    6.205015   4.581031   1.089619   2.173838   3.467412
    26  H    6.953959   4.913235   1.086548   2.171594   2.766299
    27  H    6.175366   3.860781   2.724917   2.157759   1.086316
    28  H    4.625056   2.327926   3.457056   2.151841   1.085934
    29  H    5.163226   3.063594   2.791393   2.163551   1.087532
    30  H    3.733485   2.580093   2.698955   2.049994   3.319569
    31  H    3.647532   2.239077   2.679523   2.046215   2.642074
    32  H    6.278548   4.208493   2.723220   2.163220   2.758105
    33  H    5.433736   3.816081   2.717398   2.166203   3.464488
    34  H    3.815665   2.258243   4.050416   2.654993   3.234168
                   21         22         23         24         25
    21  N    0.000000
    22  C    2.427005   0.000000
    23  O    2.886688   1.393457   0.000000
    24  H    2.749937   3.465058   4.606123   0.000000
    25  H    2.746464   2.748091   4.066731   1.768633   0.000000
    26  H    3.422693   2.756104   4.048817   1.764509   1.763856
    27  H    3.371953   2.783015   3.298834   3.051691   3.734060
    28  H    2.669408   2.707650   2.556291   3.762179   4.296087
    29  H    2.660576   3.466897   3.908958   2.586351   3.781712
    30  H    1.015147   2.615563   3.181188   3.069432   2.538749
    31  H    1.014911   3.325657   3.827953   2.522036   3.031999
    32  H    3.374767   1.093294   1.999416   3.726965   3.064871
    33  H    2.679760   1.103570   2.062152   3.717687   2.495574
    34  H    2.539889   1.945039   0.979846   4.773227   4.247374
                   26         27         28         29         30
    26  H    0.000000
    27  H    2.528647   0.000000
    28  H    3.742106   1.767230   0.000000
    29  H    3.162048   1.768563   1.766151   0.000000
    30  H    3.686060   4.166410   3.594708   3.608817   0.000000
    31  H    3.675363   3.628229   3.015436   2.447663   1.642690
    32  H    2.516478   2.580410   3.056776   3.769509   3.617696
    33  H    3.071752   3.776401   3.722094   4.300306   2.428137
    34  H    4.547912   3.862337   2.775865   4.057906   2.748859
                   31         32         33         34
    31  H    0.000000
    32  H    4.167525   0.000000
    33  H    3.601907   1.777078   0.000000
    34  H    3.483323   2.824694   2.328027   0.000000
 Framework group  C1[X(C8H22N2O2)]
 Deg. of freedom    96
                         Standard orientation:                         
 ---------------------------------------------------------------------
 Center     Atomic      Atomic             Coordinates (Angstroms)
 Number     Number       Type             X           Y           Z
 ---------------------------------------------------------------------
      1          6           0       -3.810856   -0.155454   -0.817470
      2          6           0       -2.442071   -0.089334   -0.124730
      3          6           0       -2.506635   -0.759563    1.246540
      4          7           0       -1.403036   -0.761384   -0.909646
      5          6           0       -2.022176    1.388203    0.031757
      6          8           0       -0.812317    1.560431    0.701179
      7          1           0       -4.564770    0.357545   -0.226659
      8          1           0       -4.119167   -1.192333   -0.942809
      9          1           0       -3.767734    0.314477   -1.799606
     10          1           0       -2.724532   -1.819952    1.142528
     11          1           0       -3.282265   -0.298814    1.851681
     12          1           0       -1.552708   -0.648225    1.753373
     13          1           0       -1.310124   -0.318619   -1.818423
     14          1           0       -1.657534   -1.732610   -1.058021
     15          1           0       -2.778762    1.913090    0.621171
     16          1           0       -1.986664    1.853094   -0.968518
     17          1           0       -0.101260    1.124789    0.186608
     18          6           0        3.810687    0.155431   -0.817889
     19          6           0        2.442138    0.089272   -0.124710
     20          6           0        2.507065    0.759538    1.246519
     21          7           0        1.402886    0.761419   -0.909298
     22          6           0        2.022208   -1.388206    0.031928
     23          8           0        0.812168   -1.560294    0.701188
     24          1           0        4.118631    1.192322   -0.944039
     25          1           0        3.767454   -0.315199   -1.799677
     26          1           0        4.564942   -0.356899   -0.226953
     27          1           0        3.282680    0.298617    1.851546
     28          1           0        1.553185    0.648372    1.753477
     29          1           0        2.725172    1.819885    1.142500
     30          1           0        1.309028    0.318094   -1.817689
     31          1           0        1.657762    1.732422   -1.058418
     32          1           0        2.778605   -1.913073    0.621565
     33          1           0        1.986769   -1.853293   -0.968224
     34          1           0        0.101366   -1.124345    0.186593
 ---------------------------------------------------------------------
 Rotational constants (GHZ):           1.5918136           0.4495405           0.4265291
   212 basis functions,   388 primitive gaussians,   224 cartesian basis functions
    50 alpha electrons       50 beta electrons
       nuclear repulsion energy       835.8336050780 Hartrees.
 NAtoms=   34 NActive=   34 NUniq=   34 SFac= 1.00D+00 NAtFMM=   60 NAOKFM=F Big=F
 Nuclear repulsion after empirical dispersion term =      835.8047751007 Hartrees.
   1 Symmetry operations used in ECPInt.
 ECPInt:  NShTT=    6786 NPrTT=   27250 LenC2=    6638 LenP2D=   19615.
 LDataN:  DoStor=T MaxTD1= 4 Len=   56
 ExpMin= 1.22D-01 ExpMax= 2.27D+03 ExpMxC= 3.41D+02 IAcc=3 IRadAn=         5 AccDes= 0.00D+00
 Harris functional with IExCor= 4639 and IRadAn=       5 diagonalized for initial guess.
 HarFok:  IExCor= 4639 AccDes= 0.00D+00 IRadAn=         5 IDoV= 1 UseB2=F ITyADJ=14
 ICtDFT=  3500011 ScaDFX=  1.000000  1.000000  1.000000  1.000000
 FoFCou: FMM=F IPFlag=           0 FMFlag=      100000 FMFlg1=           0
         NFxFlg=           0 DoJE=T BraDBF=F KetDBF=T FulRan=T
         wScrn=  0.000000 ICntrl=       500 IOpCl=  0 I1Cent=   200000004 NGrid=           0
         NMat0=    1 NMatS0=      1 NMatT0=    0 NMatD0=    1 NMtDS0=    0 NMtDT0=    0
 Petite list used in FoFCou.
     Minimum is close to point  3 DX=  3.19D-02 DF= -2.40D-04 DXR=  5.04D-02 DFR=  2.53D-03 which will be used.
     Accept linear search using points  2 and  3.
     Minimum is close to point  2 DX=  4.95D-02 DF= -5.82D-06 DXR=  6.61D-02 DFR=  4.38D-03 which will be used.
     Accept linear search using points  1 and  2.
     Minimum is close to point  2 DX= -3.12D-02 DF= -1.94D-07 DXR=  4.66D-02 DFR=  8.39D-04 which will be used.
     Accept linear search using points  1 and  2.
     Accept linear search using points  1 and  2.
     Minimum is close to point  2 DX= -1.50D-04 DF= -3.41D-13 DXR=  1.50D-04 DFR=  2.35D-08 which will be used.
 SCF Done:  E(RwB97XD) =  -577.407350601     a.u. after    8 cycles
            Convg  =    0.2715D-09                    31 Fock formations.
              S**2 =  0.0000                  -V/T =  2.0090

 **********************************************************************

            Population analysis using the SCF Density.

 **********************************************************************

 Orbital symmetries:
       Occupied  (A) (A) (A) (A) (A) (A) (A) (A) (A) (A) (A) (A)
                 (A) (A) (A) (A) (A) (A) (A) (A) (A) (A) (A) (A)
                 (A) (A) (A) (A) (A) (A) (A) (A) (A) (A) (A) (A)
                 (A) (A) (A) (A) (A) (A) (A) (A) (A) (A) (A) (A)
                 (A) (A)
       Virtual   (A) (A) (A) (A) (A) (A) (A) (A) (A) (A) (A) (A)
                 (A) (A) (A) (A) (A) (A) (A) (A) (A) (A) (A) (A)
                 (A) (A) (A) (A) (A) (A) (A) (A) (A) (A) (A) (A)
                 (A) (A) (A) (A) (A) (A) (A) (A) (A) (A) (A) (A)
                 (A) (A) (A) (A) (A) (A) (A) (A) (A) (A) (A) (A)
                 (A) (A) (A) (A) (A) (A) (A) (A) (A) (A) (A) (A)
                 (A) (A) (A) (A) (A) (A) (A) (A) (A) (A) (A) (A)
                 (A) (A) (A) (A) (A) (A) (A) (A) (A) (A) (A) (A)
                 (A) (A) (A) (A) (A) (A) (A) (A) (A) (A) (A) (A)
                 (A) (A) (A) (A) (A) (A) (A) (A) (A) (A) (A) (A)
                 (A) (A) (A) (A) (A) (A) (A) (A) (A) (A) (A) (A)
                 (A) (A) (A) (A) (A) (A) (A) (A) (A) (A) (A) (A)
                 (A) (A) (A) (A) (A) (A) (A) (A) (A) (A) (A) (A)
                 (A) (A) (A) (A) (A) (A)
 The electronic state is 1-A.
 Alpha  occ. eigenvalues --  -19.21163 -19.21160 -14.43355 -14.43353 -10.32660
 Alpha  occ. eigenvalues --  -10.32658 -10.32029 -10.32027 -10.28027 -10.28026
 Alpha  occ. eigenvalues --  -10.26514 -10.26512  -1.08596  -1.08095  -0.99673
 Alpha  occ. eigenvalues --   -0.99413  -0.85763  -0.85361  -0.77916  -0.77903
 Alpha  occ. eigenvalues --   -0.75644  -0.75270  -0.65425  -0.65150  -0.60533
 Alpha  occ. eigenvalues --   -0.60290  -0.56463  -0.56026  -0.55593  -0.55540
 Alpha  occ. eigenvalues --   -0.53409  -0.52271  -0.50611  -0.49893  -0.48091
 Alpha  occ. eigenvalues --   -0.47627  -0.47513  -0.47233  -0.45239  -0.45179
 Alpha  occ. eigenvalues --   -0.43843  -0.43577  -0.42583  -0.42038  -0.39239
 Alpha  occ. eigenvalues --   -0.38256  -0.34468  -0.32852  -0.32783  -0.32152
 Alpha virt. eigenvalues --    0.11052   0.12884   0.16347   0.16805   0.17959
 Alpha virt. eigenvalues --    0.18299   0.18359   0.19840   0.19911   0.20053
 Alpha virt. eigenvalues --    0.20872   0.22407   0.22413   0.24443   0.24713
 Alpha virt. eigenvalues --    0.25343   0.25374   0.26401   0.27629   0.27984
 Alpha virt. eigenvalues --    0.28722   0.29586   0.29969   0.30758   0.30953
 Alpha virt. eigenvalues --    0.31788   0.33215   0.33331   0.33485   0.34828
 Alpha virt. eigenvalues --    0.36627   0.40533   0.48385   0.49679   0.49930
 Alpha virt. eigenvalues --    0.53485   0.54795   0.55792   0.56904   0.57495
 Alpha virt. eigenvalues --    0.60219   0.61254   0.63546   0.64649   0.64757
 Alpha virt. eigenvalues --    0.66127   0.66220   0.68712   0.70422   0.71668
 Alpha virt. eigenvalues --    0.72573   0.72955   0.74030   0.77138   0.77316
 Alpha virt. eigenvalues --    0.77688   0.78045   0.79270   0.79278   0.79623
 Alpha virt. eigenvalues --    0.79776   0.80423   0.81669   0.81953   0.82157
 Alpha virt. eigenvalues --    0.82709   0.83226   0.83739   0.84066   0.84364
 Alpha virt. eigenvalues --    0.84368   0.85273   0.85332   0.86387   0.87195
 Alpha virt. eigenvalues --    0.88336   0.88667   0.93138   0.95484   0.97328
 Alpha virt. eigenvalues --    1.00381   1.02078   1.03293   1.05108   1.06197
 Alpha virt. eigenvalues --    1.08154   1.10610   1.14521   1.19161   1.20481
 Alpha virt. eigenvalues --    1.25539   1.26810   1.30422   1.32419   1.32480
 Alpha virt. eigenvalues --    1.37807   1.37823   1.38652   1.46690   1.51612
 Alpha virt. eigenvalues --    1.52914   1.58278   1.60195   1.65956   1.69254
 Alpha virt. eigenvalues --    1.70665   1.82218   1.84893   1.88529   1.88672
 Alpha virt. eigenvalues --    1.90146   1.91479   1.92215   1.93761   1.95674
 Alpha virt. eigenvalues --    1.96310   1.96769   1.98384   2.08564   2.08791
 Alpha virt. eigenvalues --    2.12408   2.12626   2.16991   2.17873   2.21116
 Alpha virt. eigenvalues --    2.22432   2.23570   2.25000   2.25093   2.25569
 Alpha virt. eigenvalues --    2.26838   2.27096   2.36058   2.36782   2.37489
 Alpha virt. eigenvalues --    2.38062   2.41461   2.41675   2.44069   2.44875
 Alpha virt. eigenvalues --    2.56730   2.59421   2.67634   2.67845   2.74365
 Alpha virt. eigenvalues --    2.75215   2.78658   2.80001   2.80505   2.81142
 Alpha virt. eigenvalues --    2.81556   2.88378   2.96624   2.96794   3.07645
 Alpha virt. eigenvalues --    3.07839   3.12930   3.13001   3.17024   3.17586
 Alpha virt. eigenvalues --    3.53865   3.54499
          Condensed to atoms (all electrons):
 Mulliken charges:
               1
     1  C   -0.243363
     2  C   -0.211361
     3  C   -0.248568
     4  N   -0.506846
     5  C    0.087122
     6  O   -0.523241
     7  H    0.113970
     8  H    0.107265
     9  H    0.101315
    10  H    0.102818
    11  H    0.108234
    12  H    0.155642
    13  H    0.220301
    14  H    0.233504
    15  H    0.090555
    16  H    0.060863
    17  H    0.351757
    18  C   -0.243350
    19  C   -0.211321
    20  C   -0.248525
    21  N   -0.506860
    22  C    0.087066
    23  O   -0.523274
    24  H    0.107263
    25  H    0.101330
    26  H    0.113970
    27  H    0.108223
    28  H    0.155630
    29  H    0.102822
    30  H    0.220310
    31  H    0.233511
    32  H    0.090583
    33  H    0.060898
    34  H    0.351756
 Sum of Mulliken charges =   0.00000
 Mulliken charges with hydrogens summed into heavy atoms:
               1
     1  C    0.079188
     2  C   -0.211361
     3  C    0.118126
     4  N   -0.053041
     5  C    0.238540
     6  O   -0.171484
    18  C    0.079214
    19  C   -0.211321
    20  C    0.118150
    21  N   -0.053039
    22  C    0.238546
    23  O   -0.171519
 Electronic spatial extent (au):  <R**2>=           2950.6840
 Charge=              0.0000 electrons
 Dipole moment (field-independent basis, Debye):
    X=              0.0010    Y=             -0.0009    Z=             -4.2527  Tot=              4.2527
 Evaluate density.
 Using the total density.
 Monte-Carlo method of calculating molar volume:
 based on  0.001 e/bohr**3 density envelope.
 Number of points per bohr**3 =  100 CutOff= 1.00D-04
 Using the SCF density.
 There are      2039 points.  Will hold      2039 in memory.
 LenV=  1048063330 MDV=  1048576000.
 Box volume = 8483.178 fraction occupied=0.210
 Integrated density= 9.5712813644745779D+01 error=-4.2871863552542209D+00
 Molar volume = 1780.677 bohr**3/mol (158.906 cm**3/mol)
 Recommended a0 for SCRF calculation =  4.88 angstrom (  9.22 bohr)
   1 Symmetry operations used in ECPInt.
 ECPInt:  NShTT=    6786 NPrTT=   27250 LenC2=    6638 LenP2D=   19615.
 LDataN:  DoStor=T MaxTD1= 5 Len=  102
 Calling FoFJK, ICntrl=      2127 FMM=F ISym2X=0 I1Cent= 0 IOpClX= 0 NMat=1 NMatS=1 NMatT=0.

 GradGradGradGradGradGradGradGradGradGradGradGradGradGradGradGradGradGrad
 FormGI is forming the generalized inverse of G from B-inverse, IUseBI=4.
 Internal  Forces:  Max     0.011881986 RMS     0.003368075
 Step number   1 out of a maximum of  194
 All quantities printed in internal units (Hartrees-Bohrs-Radians)
 Mixed Optimization -- RFO/linear search
 Second derivative matrix not updated -- first step.
 ITU=  0
     Eigenvalues ---    0.00296   0.00296   0.00387   0.00400   0.00400
     Eigenvalues ---    0.00450   0.00600   0.00879   0.01066   0.01402
     Eigenvalues ---    0.03107   0.03803   0.04239   0.04568   0.04611
     Eigenvalues ---    0.04613   0.04713   0.04727   0.04941   0.05152
     Eigenvalues ---    0.05251   0.05545   0.05545   0.05589   0.05589
     Eigenvalues ---    0.05649   0.05668   0.05668   0.05722   0.05750
     Eigenvalues ---    0.05750   0.05924   0.06088   0.07088   0.08256
     Eigenvalues ---    0.08558   0.09062   0.11028   0.11108   0.11767
     Eigenvalues ---    0.11847   0.12117   0.13873   0.14088   0.14220
     Eigenvalues ---    0.14298   0.14775   0.15818   0.16000   0.16000
     Eigenvalues ---    0.16000   0.16000   0.16000   0.16000   0.16000
     Eigenvalues ---    0.16000   0.16000   0.16000   0.16000   0.16000
     Eigenvalues ---    0.16038   0.17050   0.20392   0.21800   0.27584
     Eigenvalues ---    0.28163   0.28919   0.28920   0.29640   0.29641
     Eigenvalues ---    0.33287   0.33290   0.34432   0.34435   0.34856
     Eigenvalues ---    0.34857   0.34930   0.34930   0.35034   0.35099
     Eigenvalues ---    0.35100   0.35213   0.35215   0.35242   0.35242
     Eigenvalues ---    0.35287   0.35287   0.35959   0.45119   0.45121
     Eigenvalues ---    0.45158   0.45160   0.45457   0.46314   0.49980
     Eigenvalues ---    0.50938
 Linear search not attempted -- first point.
 Iteration  1 RMS(Cart)=  0.09019607 RMS(Int)=  0.00176185
 Iteration  2 RMS(Cart)=  0.00357221 RMS(Int)=  0.00033093
 Iteration  3 RMS(Cart)=  0.00001107 RMS(Int)=  0.00033091
 Iteration  4 RMS(Cart)=  0.00000001 RMS(Int)=  0.00033091
 Variable       Old X    -DE/DX   Delta X   Delta X   Delta X     New X
                                 (Linear)    (Quad)   (Total)
    R1        2.90172   0.00090   0.00000   0.00303   0.00303   2.90475
    R2        2.05330   0.01185   0.00000   0.03290   0.03290   2.08620
    R3        2.05788   0.01058   0.00000   0.02962   0.02962   2.08750
    R4        2.05910   0.01074   0.00000   0.03013   0.03013   2.08922
    R5        2.88687   0.00243   0.00000   0.00799   0.00799   2.89485
    R6        2.76917   0.00500   0.00000   0.01396   0.01428   2.78344
    R7        2.91772  -0.00005   0.00000  -0.00004  -0.00002   2.91771
    R8        2.05514   0.01188   0.00000   0.03310   0.03310   2.08824
    R9        2.05284   0.01136   0.00000   0.03152   0.03152   2.08436
   R10        2.05212   0.01028   0.00000   0.02849   0.02849   2.08060
   R11        1.91837   0.00512   0.00000   0.01114   0.01114   1.92951
   R12        1.91792   0.00604   0.00000   0.01315   0.01315   1.93108
   R13        3.58386  -0.00073   0.00000  -0.01548  -0.01580   3.56806
   R14        2.63313  -0.00016   0.00000  -0.00001   0.00027   2.63340
   R15        2.06607   0.00688   0.00000   0.01952   0.01952   2.08558
   R16        2.08550   0.00729   0.00000   0.02140   0.02140   2.10690
   R17        1.85171   0.00428   0.00000   0.00788   0.00758   1.85929
   R18        3.58326  -0.00073   0.00000  -0.01546  -0.01578   3.56748
   R19        2.90170   0.00090   0.00000   0.00303   0.00303   2.90473
   R20        2.05788   0.01058   0.00000   0.02961   0.02961   2.08750
   R21        2.05908   0.01075   0.00000   0.03014   0.03014   2.08922
   R22        2.05328   0.01186   0.00000   0.03293   0.03293   2.08621
   R23        2.88686   0.00244   0.00000   0.00802   0.00802   2.89487
   R24        2.76921   0.00500   0.00000   0.01394   0.01426   2.78347
   R25        2.91767  -0.00004   0.00000  -0.00004  -0.00001   2.91765
   R26        2.05284   0.01136   0.00000   0.03152   0.03152   2.08436
   R27        2.05212   0.01028   0.00000   0.02849   0.02849   2.08061
   R28        2.05514   0.01188   0.00000   0.03310   0.03310   2.08824
   R29        1.91835   0.00512   0.00000   0.01116   0.01116   1.92951
   R30        1.91790   0.00605   0.00000   0.01316   0.01316   1.93106
   R31        2.63325  -0.00019   0.00000  -0.00007   0.00021   2.63346
   R32        2.06603   0.00689   0.00000   0.01955   0.01955   2.08558
   R33        2.08544   0.00731   0.00000   0.02145   0.02145   2.10689
   R34        1.85164   0.00430   0.00000   0.00790   0.00760   1.85924
    A1        1.93144   0.00174   0.00000   0.01114   0.01110   1.94254
    A2        1.92336   0.00068   0.00000   0.00320   0.00319   1.92655
    A3        1.93135   0.00076   0.00000   0.00462   0.00460   1.93594
    A4        1.89197  -0.00127   0.00000  -0.00772  -0.00774   1.88423
    A5        1.89014  -0.00109   0.00000  -0.00480  -0.00484   1.88530
    A6        1.89452  -0.00095   0.00000  -0.00716  -0.00716   1.88737
    A7        1.92665   0.00037   0.00000   0.00262   0.00258   1.92923
    A8        1.95052  -0.00047   0.00000  -0.00815  -0.00842   1.94210
    A9        1.90642  -0.00015   0.00000  -0.00617  -0.00584   1.90057
   A10        1.88553   0.00024   0.00000   0.00417   0.00452   1.89005
   A11        1.91810  -0.00017   0.00000   0.00035   0.00010   1.91820
   A12        1.87584   0.00018   0.00000   0.00747   0.00730   1.88314
   A13        1.92879   0.00068   0.00000   0.00354   0.00352   1.93231
   A14        1.92210   0.00103   0.00000   0.00487   0.00485   1.92695
   A15        1.91435   0.00146   0.00000   0.01047   0.01043   1.92478
   A16        1.90051  -0.00135   0.00000  -0.01151  -0.01151   1.88900
   A17        1.89717  -0.00076   0.00000  -0.00202  -0.00206   1.89511
   A18        1.90046  -0.00113   0.00000  -0.00572  -0.00576   1.89470
   A19        1.92237   0.00090   0.00000   0.00336   0.00319   1.92556
   A20        1.91705   0.00182   0.00000   0.01330   0.01319   1.93025
   A21        1.91837  -0.00103   0.00000   0.00074   0.00116   1.91953
   A22        1.88541  -0.00138   0.00000  -0.01145  -0.01142   1.87399
   A23        2.12743  -0.00100   0.00000  -0.01356  -0.01401   2.11342
   A24        1.67124   0.00102   0.00000   0.01087   0.01101   1.68225
   A25        1.98571   0.00208   0.00000   0.02243   0.02184   2.00755
   A26        1.90273  -0.00222   0.00000  -0.02321  -0.02282   1.87990
   A27        1.89653  -0.00104   0.00000  -0.00570  -0.00637   1.89016
   A28        1.85722   0.00076   0.00000   0.00430   0.00428   1.86149
   A29        1.93418   0.00081   0.00000   0.01797   0.01833   1.95251
   A30        1.88458  -0.00054   0.00000  -0.01859  -0.01894   1.86564
   A31        1.89952   0.00289   0.00000   0.02858   0.02889   1.92841
   A32        2.87369   0.00054   0.00000  -0.00450  -0.00268   2.87101
   A33        1.92341   0.00067   0.00000   0.00313   0.00312   1.92653
   A34        1.93134   0.00076   0.00000   0.00464   0.00461   1.93595
   A35        1.93142   0.00174   0.00000   0.01116   0.01112   1.94255
   A36        1.89452  -0.00094   0.00000  -0.00715  -0.00715   1.88737
   A37        1.89196  -0.00127   0.00000  -0.00771  -0.00773   1.88422
   A38        1.89012  -0.00109   0.00000  -0.00478  -0.00482   1.88530
   A39        1.92668   0.00037   0.00000   0.00261   0.00256   1.92925
   A40        1.95047  -0.00047   0.00000  -0.00809  -0.00836   1.94211
   A41        1.90650  -0.00016   0.00000  -0.00626  -0.00594   1.90057
   A42        1.88544   0.00024   0.00000   0.00423   0.00458   1.89002
   A43        1.91809  -0.00016   0.00000   0.00036   0.00011   1.91820
   A44        1.87586   0.00018   0.00000   0.00744   0.00728   1.88314
   A45        1.92208   0.00104   0.00000   0.00492   0.00490   1.92698
   A46        1.91430   0.00146   0.00000   0.01048   0.01044   1.92474
   A47        1.92886   0.00067   0.00000   0.00347   0.00345   1.93231
   A48        1.90046  -0.00113   0.00000  -0.00571  -0.00575   1.89471
   A49        1.90051  -0.00135   0.00000  -0.01151  -0.01150   1.88900
   A50        1.89719  -0.00076   0.00000  -0.00203  -0.00208   1.89511
   A51        1.91880  -0.00104   0.00000   0.00068   0.00110   1.91991
   A52        2.12648  -0.00100   0.00000  -0.01349  -0.01395   2.11252
   A53        1.67175   0.00102   0.00000   0.01083   0.01096   1.68272
   A54        1.92236   0.00091   0.00000   0.00346   0.00329   1.92565
   A55        1.91708   0.00182   0.00000   0.01326   0.01316   1.93023
   A56        1.88552  -0.00139   0.00000  -0.01152  -0.01149   1.87404
   A57        1.98568   0.00208   0.00000   0.02242   0.02183   2.00751
   A58        1.90281  -0.00223   0.00000  -0.02328  -0.02289   1.87992
   A59        1.89661  -0.00105   0.00000  -0.00573  -0.00641   1.89020
   A60        1.85716   0.00077   0.00000   0.00434   0.00432   1.86148
   A61        1.93408   0.00082   0.00000   0.01804   0.01840   1.95248
   A62        1.88460  -0.00053   0.00000  -0.01858  -0.01894   1.86566
   A63        1.89943   0.00290   0.00000   0.02853   0.02884   1.92827
   A64        2.87307   0.00055   0.00000  -0.00449  -0.00267   2.87040
    D1        1.05419  -0.00021   0.00000  -0.00335  -0.00348   1.05071
    D2       -3.13008   0.00003   0.00000  -0.00172  -0.00162  -3.13169
    D3       -1.05670  -0.00014   0.00000  -0.00147  -0.00147  -1.05817
    D4       -1.03820  -0.00018   0.00000  -0.00294  -0.00306  -1.04126
    D5        1.06073   0.00005   0.00000  -0.00130  -0.00120   1.05953
    D6        3.13410  -0.00011   0.00000  -0.00106  -0.00105   3.13305
    D7       -3.13370   0.00006   0.00000   0.00094   0.00083  -3.13287
    D8       -1.03478   0.00030   0.00000   0.00258   0.00269  -1.03209
    D9        1.03859   0.00014   0.00000   0.00282   0.00284   1.04144
   D10        1.11580  -0.00037   0.00000  -0.00442  -0.00455   1.11125
   D11       -0.98472   0.00021   0.00000   0.00450   0.00440  -0.98032
   D12       -3.07600   0.00005   0.00000   0.00196   0.00185  -3.07415
   D13       -1.02172  -0.00017   0.00000   0.00132   0.00132  -1.02039
   D14       -3.12223   0.00041   0.00000   0.01025   0.01027  -3.11196
   D15        1.06967   0.00024   0.00000   0.00770   0.00772   1.07739
   D16       -3.06348  -0.00043   0.00000  -0.01019  -0.01010  -3.07358
   D17        1.11919   0.00015   0.00000  -0.00127  -0.00116   1.11803
   D18       -0.97209  -0.00002   0.00000  -0.00381  -0.00371  -0.97580
   D19        1.05358  -0.00010   0.00000  -0.01775  -0.01785   1.03573
   D20       -1.02101  -0.00008   0.00000  -0.01394  -0.01395  -1.03496
   D21       -2.83838  -0.00163   0.00000  -0.03307  -0.03356  -2.87194
   D22       -3.10678   0.00022   0.00000  -0.01681  -0.01693  -3.12371
   D23        1.10181   0.00025   0.00000  -0.01301  -0.01303   1.08878
   D24       -0.71556  -0.00131   0.00000  -0.03214  -0.03264  -0.74820
   D25       -1.03786   0.00025   0.00000  -0.01012  -0.01034  -1.04820
   D26       -3.11245   0.00027   0.00000  -0.00632  -0.00645  -3.11890
   D27        1.35336  -0.00128   0.00000  -0.02545  -0.02605   1.32731
   D28        3.09861  -0.00025   0.00000  -0.03856  -0.03896   3.05965
   D29        1.02903  -0.00099   0.00000  -0.04217  -0.04211   0.98692
   D30       -1.02092   0.00148   0.00000  -0.00372  -0.00402  -1.02494
   D31        0.98252  -0.00050   0.00000  -0.03810  -0.03850   0.94402
   D32       -1.08706  -0.00125   0.00000  -0.04171  -0.04165  -1.12871
   D33       -3.13701   0.00123   0.00000  -0.00326  -0.00355  -3.14057
   D34       -1.06529  -0.00079   0.00000  -0.04752  -0.04817  -1.11345
   D35       -3.13487  -0.00154   0.00000  -0.05113  -0.05132   3.09700
   D36        1.09836   0.00093   0.00000  -0.01268  -0.01322   1.08514
   D37        2.02167   0.00193   0.00000   0.03378   0.03377   2.05544
   D38       -1.97410   0.00113   0.00000   0.02600   0.02587  -1.94823
   D39        0.04011  -0.00025   0.00000   0.01422   0.01403   0.05415
   D40        1.07578   0.00196   0.00000   0.06952   0.06875   1.14453
   D41       -3.11194   0.00095   0.00000   0.05691   0.05627  -3.05567
   D42       -1.06737   0.00118   0.00000   0.04669   0.04582  -1.02155
   D43        1.87941   0.00342   0.00000   0.07519   0.07492   1.95433
   D44        2.02210   0.00192   0.00000   0.03369   0.03368   2.05578
   D45       -1.97417   0.00114   0.00000   0.02607   0.02594  -1.94823
   D46        0.04018  -0.00025   0.00000   0.01420   0.01401   0.05419
   D47       -1.03891  -0.00018   0.00000  -0.00273  -0.00285  -1.04176
   D48        1.05989   0.00006   0.00000  -0.00097  -0.00087   1.05902
   D49        3.13332  -0.00011   0.00000  -0.00079  -0.00078   3.13254
   D50       -3.13445   0.00007   0.00000   0.00118   0.00107  -3.13338
   D51       -1.03565   0.00031   0.00000   0.00293   0.00305  -1.03260
   D52        1.03778   0.00014   0.00000   0.00312   0.00314   1.04092
   D53        1.05348  -0.00021   0.00000  -0.00316  -0.00329   1.05019
   D54       -3.13091   0.00003   0.00000  -0.00141  -0.00131  -3.13221
   D55       -1.05748  -0.00013   0.00000  -0.00122  -0.00122  -1.05869
   D56       -0.98505   0.00022   0.00000   0.00466   0.00455  -0.98049
   D57       -3.07627   0.00005   0.00000   0.00206   0.00195  -3.07433
   D58        1.11549  -0.00036   0.00000  -0.00427  -0.00440   1.11110
   D59       -3.12246   0.00041   0.00000   0.01029   0.01031  -3.11215
   D60        1.06950   0.00024   0.00000   0.00769   0.00771   1.07720
   D61       -1.02192  -0.00017   0.00000   0.00136   0.00136  -1.02056
   D62        1.11899   0.00014   0.00000  -0.00124  -0.00112   1.11786
   D63       -0.97224  -0.00002   0.00000  -0.00383  -0.00373  -0.97597
   D64       -3.06366  -0.00043   0.00000  -0.01016  -0.01007  -3.07373
   D65       -2.83829  -0.00163   0.00000  -0.03310  -0.03359  -2.87188
   D66        1.05463  -0.00011   0.00000  -0.01790  -0.01800   1.03663
   D67       -1.02011  -0.00008   0.00000  -0.01405  -0.01406  -1.03417
   D68       -0.71552  -0.00131   0.00000  -0.03210  -0.03260  -0.74811
   D69       -3.10578   0.00022   0.00000  -0.01690  -0.01701  -3.12279
   D70        1.10267   0.00024   0.00000  -0.01305  -0.01307   1.08960
   D71        1.35336  -0.00127   0.00000  -0.02538  -0.02598   1.32737
   D72       -1.03691   0.00025   0.00000  -0.01018  -0.01040  -1.04730
   D73       -3.11164   0.00028   0.00000  -0.00633  -0.00646  -3.11810
   D74        3.09915  -0.00025   0.00000  -0.03872  -0.03912   3.06003
   D75        1.02959  -0.00100   0.00000  -0.04233  -0.04227   0.98731
   D76       -1.02047   0.00148   0.00000  -0.00383  -0.00412  -1.02459
   D77        0.98297  -0.00050   0.00000  -0.03818  -0.03859   0.94438
   D78       -1.08660  -0.00125   0.00000  -0.04180  -0.04174  -1.12834
   D79       -3.13665   0.00123   0.00000  -0.00330  -0.00359  -3.14024
   D80       -1.06475  -0.00080   0.00000  -0.04767  -0.04832  -1.11307
   D81       -3.13431  -0.00155   0.00000  -0.05129  -0.05147   3.09740
   D82        1.09882   0.00093   0.00000  -0.01278  -0.01332   1.08550
   D83        1.07531   0.00196   0.00000   0.06962   0.06885   1.14416
   D84       -3.11234   0.00095   0.00000   0.05695   0.05630  -3.05605
   D85       -1.06784   0.00119   0.00000   0.04680   0.04592  -1.02192
   D86        1.87992   0.00342   0.00000   0.07509   0.07483   1.95475
         Item               Value     Threshold  Converged?
 Maximum Force            0.011882     0.000015     NO 
 RMS     Force            0.003368     0.000010     NO 
 Maximum Displacement     0.280560     0.000060     NO 
 RMS     Displacement     0.090741     0.000040     NO 
 GradGradGradGradGradGradGradGradGradGradGradGradGradGradGradGradGradGrad

                    Distance matrix (angstroms):
                    1          2          3          4          5
     1  C    0.000000
     2  C    1.537127   0.000000
     3  C    2.522209   1.531891   0.000000
     4  N    2.485009   1.472935   2.435687   0.000000
     5  C    2.506739   1.543984   2.518152   2.439490   0.000000
     6  O    3.780636   2.479129   2.929943   2.946836   1.393537
     7  H    1.103971   2.194153   2.788826   3.446568   2.768105
     8  H    1.104658   2.183080   2.770818   2.756587   3.478032
     9  H    1.105570   2.190597   3.490634   2.752970   2.755161
    10  H    2.807455   2.182951   1.105049   2.683357   3.487801
    11  H    2.741205   2.177516   1.102996   3.401949   2.797723
    12  H    3.481527   2.174442   1.101008   2.701633   2.728207
    13  H    2.694384   2.063237   3.338541   1.021055   2.640217
    14  H    2.698197   2.067049   2.662977   1.021881   3.347473
    15  H    2.680863   2.153755   2.765926   3.384395   1.103644
    16  H    2.712523   2.169762   3.475573   2.684547   1.114925
    17  H    4.120397   2.730855   3.293344   2.667970   1.967197
    18  C    7.744028   6.382037   6.757476   5.450810   6.049971
    19  C    6.382177   4.954598   5.243410   4.150990   4.666737
    20  C    6.757878   5.243751   5.215574   4.821853   4.767413
    21  N    5.450811   4.150763   4.821289   3.422407   3.644332
    22  C    6.050061   4.666697   4.767009   3.644579   4.874126
    23  O    5.075249   3.671096   3.496878   2.848265   4.134509
    24  H    8.201326   6.857148   7.309877   6.062907   6.285037
    25  H    7.784958   6.541368   7.076954   5.436062   6.330313
    26  H    8.501496   7.090415   7.274003   6.155311   6.859601
    27  H    7.626078   6.094492   5.876903   5.623471   5.754348
    28  H    6.012586   4.483764   4.271705   4.291624   4.059643
    29  H    7.204109   5.738624   5.836092   5.450499   4.976851
    30  H    5.439541   4.305944   5.171079   3.326830   3.990404
    31  H    5.976722   4.740637   5.472141   4.210305   3.924258
    32  H    7.000474   5.602560   5.489786   4.628536   5.852407
    33  H    6.097636   4.876854   5.210878   3.613063   5.208620
    34  H    4.154566   2.763195   2.869743   1.888136   3.282059
                    6          7          8          9         10
     6  O    0.000000
     7  H    4.055010   0.000000
     8  H    4.634877   1.786348   0.000000
     9  H    4.088868   1.787781   1.789678   0.000000
    10  H    3.942114   3.190393   2.601143   3.813849   0.000000
    11  H    3.295686   2.549237   3.076692   3.767548   1.788970
    12  H    2.573956   3.781297   3.796196   4.336408   1.791299
    13  H    3.261231   3.705279   3.066821   2.531317   3.633474
    14  H    3.890613   3.713990   2.539564   3.056628   2.470924
    15  H    2.010374   2.476039   3.704554   3.030469   3.785919
    16  H    2.083876   3.085217   3.727769   2.489997   4.325521
    17  H    0.983893   4.613325   4.872637   4.325913   4.153523
    18  C    5.075363   8.501303   8.201519   7.785044   7.203565
    19  C    3.671281   7.090353   6.857434   6.541640   5.738161
    20  C    3.497391   7.274211   7.310304   7.077542   5.835952
    21  N    2.848092   6.155022   6.063119   5.436277   5.449888
    22  C    4.134656   6.859576   6.285288   6.330435   4.976299
    23  O    3.546509   5.820430   5.240951   5.549957   3.638824
    24  H    5.240963   8.886892   8.773694   8.176375   7.879258
    25  H    5.550076   8.635219   8.176491   7.715053   7.436809
    26  H    5.820595   9.252875   8.887296   8.635473   7.638969
    27  H    4.493568   8.146722   8.091035   8.015633   6.382025
    28  H    2.786858   6.441118   6.563840   6.456984   4.940258
    29  H    3.639461   7.639282   7.879813   7.437599   6.584219
    30  H    3.508537   6.262959   5.970973   5.276278   5.679416
    31  H    3.044644   6.580237   6.708228   5.876562   6.216100
    32  H    5.023560   7.782806   7.165179   7.352933   5.604198
    33  H    4.695057   7.021507   6.250484   6.235938   5.312202
    34  H    2.919750   4.939616   4.388199   4.578842   3.117633
                   11         12         13         14         15
    11  H    0.000000
    12  H    1.789370   0.000000
    13  H    4.200878   3.636510   0.000000
    14  H    3.665529   3.048652   1.646161   0.000000
    15  H    2.590049   3.098308   3.630604   4.182468   0.000000
    16  H    3.801218   3.751049   2.439726   3.617656   1.782196
    17  H    3.909344   2.828724   2.892366   3.615701   2.851177
    18  C    7.625742   6.012130   5.440550   5.976354   7.000477
    19  C    6.094193   4.483318   4.307237   4.740424   5.602671
    20  C    5.876931   4.271592   5.172627   5.472139   5.490302
    21  N    5.622952   4.290910   3.328057   4.210105   4.628316
    22  C    5.753955   4.059181   3.991532   3.923968   5.852466
    23  O    4.493051   2.786338   3.509368   3.044169   5.023484
    24  H    8.090705   6.563401   5.971724   6.707712   7.165056
    25  H    8.015138   6.456343   5.277077   5.876014   7.352890
    26  H    8.146530   6.440851   6.264197   6.580122   7.782912
    27  H    6.540146   4.858849   6.050069   6.151171   6.447816
    28  H    4.858941   3.282640   4.799988   4.944793   4.686865
    29  H    6.382229   4.940256   5.681057   6.216216   5.604881
    30  H    6.048616   4.798413   2.993774   4.014350   5.045599
    31  H    6.151296   4.944678   4.015599   5.078818   4.791513
    32  H    6.447276   4.686304   5.046660   4.791135   6.777607
    33  H    6.262644   4.693265   3.751041   3.764049   6.262702
    34  H    3.907119   2.370448   2.568787   2.244656   4.226344
                   16         17         18         19         20
    16  H    0.000000
    17  H    2.358151   0.000000
    18  C    6.097429   4.154519   0.000000
    19  C    4.876837   2.763296   1.537117   0.000000
    20  C    5.211227   2.870060   2.522227   1.531901   0.000000
    21  N    3.612839   1.887830   2.485020   1.472950   2.435688
    22  C    5.208552   3.282315   2.506702   1.543955   2.518137
    23  O    4.694838   2.919969   3.780628   2.479099   2.930077
    24  H    6.250044   4.387925   1.104656   2.183059   2.771055
    25  H    6.235745   4.578856   1.105570   2.190595   3.490656
    26  H    7.021405   4.939657   1.103973   2.194150   2.788616
    27  H    6.262969   3.907453   2.741340   2.177550   1.102998
    28  H    4.693670   2.370828   3.481527   2.174424   1.101009
    29  H    5.312717   3.117915   2.807407   2.182960   1.105047
    30  H    3.749961   2.567923   2.694859   2.063305   3.338570
    31  H    3.764235   2.244784   2.697852   2.067047   2.663333
    32  H    6.262600   4.226522   2.681031   2.153741   2.765737
    33  H    5.356472   3.791013   2.712355   2.169766   3.475579
    34  H    3.790657   2.328561   4.120055   2.730550   3.293269
                   21         22         23         24         25
    21  N    0.000000
    22  C    2.439473   0.000000
    23  O    2.946587   1.393566   0.000000
    24  H    2.756355   3.477985   4.634855   0.000000
    25  H    2.753214   2.754894   4.088595   1.789680   0.000000
    26  H    3.446587   2.768328   4.055309   1.786344   1.787783
    27  H    3.401974   2.797662   3.295836   3.077220   3.767549
    28  H    2.701506   2.728245   2.574146   3.796324   4.336394
    29  H    2.683427   3.487785   3.942236   2.601320   3.813950
    30  H    1.021053   2.639857   3.260289   3.067123   2.532092
    31  H    1.021876   3.347435   3.890605   2.538927   3.056450
    32  H    3.384398   1.103640   2.010388   3.704791   3.030377
    33  H    2.684733   1.114920   2.083877   3.727511   2.489561
    34  H    2.667388   1.967114   0.983868   4.872160   4.325400
                   26         27         28         29         30
    26  H    0.000000
    27  H    2.549118   0.000000
    28  H    3.781191   1.789376   0.000000
    29  H    3.189955   1.788969   1.791297   0.000000
    30  H    3.705777   4.200961   3.636194   3.633747   0.000000
    31  H    3.713625   3.665849   3.049029   2.471407   1.646183
    32  H    2.476503   2.589788   3.098129   3.785740   3.630483
    33  H    3.085334   3.801110   3.751149   4.325539   2.439586
    34  H    4.613305   3.909309   2.828773   4.153424   2.890928
                   31         32         33         34
    31  H    0.000000
    32  H    4.182445   0.000000
    33  H    3.617587   1.782199   0.000000
    34  H    3.615377   2.851118   2.358159   0.000000
 Framework group  C1[X(C8H22N2O2)]
 Deg. of freedom    96
                         Standard orientation:                         
 ---------------------------------------------------------------------
 Center     Atomic      Atomic             Coordinates (Angstroms)
 Number     Number       Type             X           Y           Z
 ---------------------------------------------------------------------
      1          6           0       -3.869658   -0.137144   -0.753043
      2          6           0       -2.475706   -0.088348   -0.107071
      3          6           0       -2.514690   -0.689847    1.301250
      4          7           0       -1.490899   -0.840048   -0.903713
      5          6           0       -2.007742    1.381396   -0.038169
      6          8           0       -0.796916    1.584202    0.621160
      7          1           0       -4.605944    0.434549   -0.161603
      8          1           0       -4.225151   -1.180722   -0.822614
      9          1           0       -3.846934    0.287469   -1.773568
     10          1           0       -2.780862   -1.761615    1.261262
     11          1           0       -3.265416   -0.170707    1.920526
     12          1           0       -1.531179   -0.590450    1.786064
     13          1           0       -1.427382   -0.452828   -1.846358
     14          1           0       -1.772854   -1.818103   -0.993997
     15          1           0       -2.770948    1.950945    0.519650
     16          1           0       -1.990199    1.792120   -1.074536
     17          1           0       -0.059476    1.162985    0.124367
     18          6           0        3.869515    0.137045   -0.753419
     19          6           0        2.475741    0.088316   -0.107083
     20          6           0        2.515089    0.689843    1.301227
     21          7           0        1.490735    0.840049   -0.903476
     22          6           0        2.007748   -1.381382   -0.038045
     23          8           0        0.796826   -1.584033    0.621218
     24          1           0        4.224797    1.180654   -0.823568
     25          1           0        3.846622   -0.288059   -1.773737
     26          1           0        4.606055   -0.434228   -0.161886
     27          1           0        3.265818    0.170592    1.920411
     28          1           0        1.531627    0.590629    1.786181
     29          1           0        2.781437    1.761562    1.261168
     30          1           0        1.426272    0.452345   -1.845855
     31          1           0        1.773096    1.817915   -0.994474
     32          1           0        2.770863   -1.950888    0.519933
     33          1           0        1.990249   -1.792266   -1.074343
     34          1           0        0.059606   -1.162529    0.124392
 ---------------------------------------------------------------------
 Rotational constants (GHZ):           1.5866637           0.4401322           0.4162680
   212 basis functions,   388 primitive gaussians,   224 cartesian basis functions
    50 alpha electrons       50 beta electrons
       nuclear repulsion energy       829.2711955486 Hartrees.
 NAtoms=   34 NActive=   34 NUniq=   34 SFac= 1.00D+00 NAtFMM=   60 NAOKFM=F Big=F
 Nuclear repulsion after empirical dispersion term =      829.2428139369 Hartrees.
   1 Symmetry operations used in ECPInt.
 ECPInt:  NShTT=    6786 NPrTT=   27250 LenC2=    6631 LenP2D=   19511.
 LDataN:  DoStor=T MaxTD1= 4 Len=   56
 Initial guess from the checkpoint file:  "dimer.chk"
 B after Tr=     0.000000    0.000000   -0.000000
         Rot=    0.999992    0.000005   -0.000001    0.003928 Ang=   0.45 deg.
 ExpMin= 1.22D-01 ExpMax= 2.27D+03 ExpMxC= 3.41D+02 IAcc=3 IRadAn=         5 AccDes= 0.00D+00
 Harris functional with IExCor= 4639 and IRadAn=       5 diagonalized for initial guess.
 HarFok:  IExCor= 4639 AccDes= 0.00D+00 IRadAn=         5 IDoV= 1 UseB2=F ITyADJ=14
 ICtDFT=  3500011 ScaDFX=  1.000000  1.000000  1.000000  1.000000
 FoFCou: FMM=F IPFlag=           0 FMFlag=      100000 FMFlg1=           0
         NFxFlg=           0 DoJE=T BraDBF=F KetDBF=T FulRan=T
         wScrn=  0.000000 ICntrl=       500 IOpCl=  0 I1Cent=   200000004 NGrid=           0
         NMat0=    1 NMatS0=      1 NMatT0=    0 NMatD0=    1 NMtDS0=    0 NMtDT0=    0
 Petite list used in FoFCou.
     Accept linear search using points  1 and  2.
     Minimum is close to point  2 DX= -6.64D-02 DF= -3.02D-06 DXR=  6.42D-02 DFR=  4.84D-03 which will be used.
     Accept linear search using points  1 and  2.
     Accept linear search using points  1 and  2.
     Accept linear search using points  2 and  3.
     Minimum is close to point  2 DX=  1.20D-05 DF=  0.00D+00 DXR=  1.20D-05 DFR=  0.00D+00 which will be used.
 SCF Done:  E(RwB97XD) =  -577.411259749     a.u. after    9 cycles
            Convg  =    0.6188D-09                    39 Fock formations.
              S**2 =  0.0000                  -V/T =  2.0098
   1 Symmetry operations used in ECPInt.
 ECPInt:  NShTT=    6786 NPrTT=   27250 LenC2=    6631 LenP2D=   19511.
 LDataN:  DoStor=T MaxTD1= 5 Len=  102
 Calling FoFJK, ICntrl=      2127 FMM=F ISym2X=0 I1Cent= 0 IOpClX= 0 NMat=1 NMatS=1 NMatT=0.

 GradGradGradGradGradGradGradGradGradGradGradGradGradGradGradGradGradGrad
 Using GEDIIS/GDIIS optimizer.
 FormGI is forming the generalized inverse of G from B-inverse, IUseBI=4.
 Internal  Forces:  Max     0.005558818 RMS     0.000800912
 Step number   2 out of a maximum of  194
 All quantities printed in internal units (Hartrees-Bohrs-Radians)
 Mixed Optimization -- En-DIIS/RFO-DIIS
 Trust test= 9.03D-01 RLast= 3.01D-01 DXMaxT set to 5.05D-01
 ITU=  1  0
 Use linear search instead of GDIIS.
     Eigenvalues ---    0.00296   0.00296   0.00371   0.00400   0.00400
     Eigenvalues ---    0.00442   0.00592   0.00898   0.01079   0.01396
     Eigenvalues ---    0.03093   0.03778   0.04355   0.04539   0.04631
     Eigenvalues ---    0.04637   0.04719   0.04755   0.04827   0.05172
     Eigenvalues ---    0.05189   0.05457   0.05457   0.05543   0.05544
     Eigenvalues ---    0.05623   0.05626   0.05661   0.05661   0.05706
     Eigenvalues ---    0.05723   0.05920   0.06110   0.07052   0.08194
     Eigenvalues ---    0.08519   0.09290   0.11073   0.11131   0.11815
     Eigenvalues ---    0.11901   0.12200   0.13881   0.14132   0.14300
     Eigenvalues ---    0.14346   0.14756   0.15774   0.15917   0.15991
     Eigenvalues ---    0.16000   0.16000   0.16000   0.16000   0.16000
     Eigenvalues ---    0.16000   0.16000   0.16000   0.16000   0.16000
     Eigenvalues ---    0.16162   0.17037   0.20615   0.22123   0.27613
     Eigenvalues ---    0.27994   0.28894   0.28920   0.29584   0.29640
     Eigenvalues ---    0.32770   0.33289   0.33803   0.34433   0.34581
     Eigenvalues ---    0.34856   0.34888   0.34930   0.35007   0.35099
     Eigenvalues ---    0.35129   0.35167   0.35214   0.35230   0.35242
     Eigenvalues ---    0.35287   0.35289   0.35969   0.44778   0.45120
     Eigenvalues ---    0.45140   0.45159   0.45519   0.48442   0.50031
     Eigenvalues ---    0.51056
 Quartic linear search produced a step of  0.01878.
 Iteration  1 RMS(Cart)=  0.02940622 RMS(Int)=  0.00028465
 Iteration  2 RMS(Cart)=  0.00044315 RMS(Int)=  0.00005088
 Iteration  3 RMS(Cart)=  0.00000014 RMS(Int)=  0.00005088
 Variable       Old X    -DE/DX   Delta X   Delta X   Delta X     New X
                                 (Linear)    (Quad)   (Total)
    R1        2.90475  -0.00091   0.00006  -0.00292  -0.00286   2.90189
    R2        2.08620   0.00012   0.00062   0.00311   0.00373   2.08993
    R3        2.08750   0.00019   0.00056   0.00303   0.00359   2.09109
    R4        2.08922   0.00017   0.00057   0.00303   0.00359   2.09282
    R5        2.89485  -0.00161   0.00015  -0.00482  -0.00467   2.89018
    R6        2.78344  -0.00011   0.00027   0.00025   0.00052   2.78397
    R7        2.91771  -0.00142  -0.00000  -0.00520  -0.00520   2.91251
    R8        2.08824   0.00024   0.00062   0.00348   0.00410   2.09234
    R9        2.08436   0.00011   0.00059   0.00296   0.00355   2.08791
   R10        2.08060  -0.00006   0.00053   0.00221   0.00275   2.08335
   R11        1.92951   0.00026   0.00021   0.00152   0.00173   1.93125
   R12        1.93108   0.00000   0.00025   0.00111   0.00135   1.93243
   R13        3.56806  -0.00199  -0.00030  -0.03536  -0.03566   3.53240
   R14        2.63340  -0.00555   0.00001  -0.01246  -0.01245   2.62095
   R15        2.08558   0.00041   0.00037   0.00283   0.00320   2.08878
   R16        2.10690   0.00038   0.00040   0.00297   0.00337   2.11027
   R17        1.85929   0.00068   0.00014   0.00241   0.00255   1.86184
   R18        3.56748  -0.00198  -0.00030  -0.03528  -0.03558   3.53190
   R19        2.90473  -0.00090   0.00006  -0.00291  -0.00285   2.90188
   R20        2.08750   0.00019   0.00056   0.00303   0.00359   2.09109
   R21        2.08922   0.00017   0.00057   0.00302   0.00359   2.09282
   R22        2.08621   0.00012   0.00062   0.00311   0.00372   2.08993
   R23        2.89487  -0.00161   0.00015  -0.00484  -0.00469   2.89019
   R24        2.78347  -0.00012   0.00027   0.00022   0.00049   2.78397
   R25        2.91765  -0.00142  -0.00000  -0.00516  -0.00516   2.91249
   R26        2.08436   0.00011   0.00059   0.00296   0.00355   2.08792
   R27        2.08061  -0.00006   0.00054   0.00221   0.00275   2.08335
   R28        2.08824   0.00024   0.00062   0.00348   0.00410   2.09234
   R29        1.92951   0.00026   0.00021   0.00153   0.00174   1.93125
   R30        1.93106   0.00000   0.00025   0.00111   0.00136   1.93243
   R31        2.63346  -0.00556   0.00000  -0.01249  -0.01248   2.62097
   R32        2.08558   0.00041   0.00037   0.00284   0.00321   2.08878
   R33        2.10689   0.00039   0.00040   0.00298   0.00338   2.11027
   R34        1.85924   0.00069   0.00014   0.00242   0.00256   1.86180
    A1        1.94254   0.00068   0.00021   0.00562   0.00582   1.94836
    A2        1.92655   0.00034   0.00006   0.00210   0.00216   1.92871
    A3        1.93594   0.00017   0.00009   0.00138   0.00146   1.93741
    A4        1.88423  -0.00051  -0.00015  -0.00366  -0.00381   1.88042
    A5        1.88530  -0.00040  -0.00009  -0.00237  -0.00247   1.88283
    A6        1.88737  -0.00035  -0.00013  -0.00354  -0.00368   1.88369
    A7        1.92923   0.00020   0.00005   0.00306   0.00308   1.93231
    A8        1.94210   0.00011  -0.00016   0.00207   0.00193   1.94403
    A9        1.90057  -0.00020  -0.00011   0.00118   0.00111   1.90168
   A10        1.89005  -0.00044   0.00008  -0.00612  -0.00600   1.88405
   A11        1.91820   0.00028   0.00000   0.00366   0.00364   1.92184
   A12        1.88314   0.00007   0.00014  -0.00397  -0.00390   1.87924
   A13        1.93231   0.00030   0.00007   0.00216   0.00222   1.93453
   A14        1.92695   0.00011   0.00009   0.00064   0.00073   1.92769
   A15        1.92478   0.00009   0.00020   0.00196   0.00215   1.92693
   A16        1.88900  -0.00033  -0.00022  -0.00409  -0.00431   1.88470
   A17        1.89511  -0.00010  -0.00004   0.00009   0.00005   1.89515
   A18        1.89470  -0.00009  -0.00011  -0.00093  -0.00104   1.89367
   A19        1.92556   0.00049   0.00006   0.00216   0.00220   1.92776
   A20        1.93025  -0.00086   0.00025  -0.00060  -0.00032   1.92993
   A21        1.91953   0.00117   0.00002   0.00294   0.00288   1.92241
   A22        1.87399  -0.00013  -0.00021  -0.00364  -0.00385   1.87014
   A23        2.11342  -0.00130  -0.00026  -0.00928  -0.00953   2.10388
   A24        1.68225   0.00046   0.00021   0.00918   0.00943   1.69167
   A25        2.00755  -0.00031   0.00041  -0.00348  -0.00330   2.00425
   A26        1.87990   0.00054  -0.00043   0.00611   0.00575   1.88565
   A27        1.89016  -0.00034  -0.00012  -0.00583  -0.00597   1.88419
   A28        1.86149   0.00030   0.00008   0.01178   0.01190   1.87339
   A29        1.95251   0.00012   0.00034  -0.00378  -0.00341   1.94910
   A30        1.86564  -0.00027  -0.00036  -0.00415  -0.00451   1.86113
   A31        1.92841  -0.00224   0.00054  -0.01962  -0.01921   1.90920
   A32        2.87101  -0.00016  -0.00005   0.00052   0.00073   2.87174
   A33        1.92653   0.00034   0.00006   0.00211   0.00217   1.92870
   A34        1.93595   0.00017   0.00009   0.00138   0.00146   1.93741
   A35        1.94255   0.00068   0.00021   0.00561   0.00581   1.94835
   A36        1.88737  -0.00035  -0.00013  -0.00355  -0.00368   1.88369
   A37        1.88422  -0.00051  -0.00015  -0.00366  -0.00381   1.88041
   A38        1.88530  -0.00039  -0.00009  -0.00236  -0.00246   1.88284
   A39        1.92925   0.00020   0.00005   0.00306   0.00308   1.93232
   A40        1.94211   0.00011  -0.00016   0.00207   0.00194   1.94405
   A41        1.90057  -0.00020  -0.00011   0.00118   0.00110   1.90167
[...]
 ,-0.00002623,-0.00002649,-0.00002715,-0.00001868,-0.00001666,0.0000085
 4,-0.00006147,0.00000484,0.00002898,0.00000930,0.00001083,0.00000565,-
 0.00000310,0.00000038,-0.00001005,0.00003488,-0.00030738,-0.00000041,0
 .00026800,0.00043920,0.00071494,0.00291855,-0.01298854,0.00258257,0.07
 021706,-0.29085492,0.01197872,-0.00050799,0.00150059,0.00077044,-0.000
 42159,0.00099085,-0.00305508,0.00038863,0.00022155,0.00000108,-0.00059
 721,0.00030362,-0.00057234,-0.00009754,0.00034870,-0.00004686,0.000089
 35,-0.00003465,-0.00005374,0.00538414,-0.01226004,-0.00043046,-0.00087
 221,0.00048833,-0.00019009,-0.07738987,0.31193834,0.00001197,0.0000108
 4,0.00001396,-0.00001553,-0.00002256,-0.00004341,0.00001736,0.00000393
 ,0.00000025,0.00003886,0.00005907,0.00003756,0.00009464,-0.00003468,-0
 .00003838,-0.00019858,-0.00008751,-0.00000627,0.00000447,0.00000072,-0
 .00000202,-0.00000450,0.00000331,-0.00000015,-0.00000190,-0.00000269,0
 .00000305,-0.00000907,0.00000500,0.00000133,-0.00000459,-0.00000080,0.
 00000434,0.00001407,-0.00000738,-0.00000523,-0.00000957,-0.00002248,0.
 00000156,-0.00003879,-0.00000082,-0.00000078,-0.00002424,0.00000465,0.
 00000265,-0.00000730,0.00000182,0.00001556,0.00018424,0.00004678,0.000
 01237,0.00103410,-0.00044892,0.00151766,0.00919745,-0.03131210,0.00104
 819,-0.00356621,0.01352408,-0.04912036,-0.00116924,-0.00067960,0.00196
 771,-0.00061589,-0.00051059,-0.00699372,0.00028034,0.00089610,0.001307
 50,-0.00043086,0.00041110,-0.00030661,0.00014490,0.00031205,0.00020564
 ,-0.00009821,0.00003789,-0.00006493,-0.00637175,0.01462503,-0.00069493
 ,-0.00157131,0.01507286,-0.00061716,0.00260647,-0.01058095,0.05200689,
 0.00012166,0.00019743,0.00006490,-0.00065041,-0.00050230,-0.00021523,0
 .00017215,0.00008513,0.00000237,0.00059213,-0.00053162,0.00045597,0.00
 040709,-0.00013533,-0.00166479,-0.00394861,0.00007689,0.00011720,0.000
 10703,0.00002899,0.00000057,-0.00003525,-0.00001023,0.00002093,-0.0000
 4582,-0.00002447,0.00003763,-0.00001773,-0.00001868,0.00000957,0.00004
 371,-0.00000855,0.00008536,0.00000593,-0.00002845,0.00000437,-0.001391
 88,0.00050115,0.00057396,0.00045751,0.00003819,0.00010670,-0.00019275,
 0.00002224,0.00033863,-0.00020458,-0.00021330,0.00056626,0.00600631,-0
 .00130072,-0.00156734,0.00120823,0.00189824,0.00116334,-0.00654800,0.0
 0935179,0.02670085,-0.00311606,-0.00283869,0.00139063,-0.02884611,-0.0
 0078642,0.02238072,0.00164560,0.00041707,-0.00027558,-0.00152148,0.000
 25900,-0.00006961,-0.00027880,0.00006574,-0.00001390,-0.00077310,-0.00
 077660,-0.00079492,0.00065642,-0.00002194,-0.00044844,0.00044228,0.000
 26261,0.00122292,0.00018389,-0.00011483,0.00015804,-0.00006458,-0.0000
 7404,-0.00026049,0.03840395,-0.00009377,-0.00008171,-0.00008887,0.0001
 8328,0.00034328,0.00033274,-0.00004479,-0.00009741,-0.00004334,-0.0006
 1456,-0.00022410,-0.00030585,0.00010433,0.00024916,-0.00038698,0.00015
 924,0.00003635,0.00017924,-0.00006269,-0.00001456,0.00001014,0.0000225
 4,-0.00001160,0.00000547,0.00000484,0.00001190,0.00002178,0.00001803,-
 0.00001666,0.00002248,-0.00002798,-0.00000063,-0.00003237,0.00000929,0
 .00002397,0.00002753,0.00050110,0.00012202,-0.00015187,0.00001681,-0.0
 0002100,-0.00000800,0.00002163,-0.00006703,0.00004064,-0.00002484,-0.0
 0003527,0.00018539,-0.00046924,-0.00025879,0.00000382,-0.00007058,-0.0
 0002705,0.00078213,-0.00148898,0.00867005,0.01958523,-0.00283917,-0.00
 239653,0.00205117,0.01306340,-0.10637778,-0.11071286,-0.00004284,0.002
 25185,0.00336508,-0.00023190,-0.00058002,-0.00076691,0.00020689,-0.000
 19005,-0.00026464,-0.00007026,0.00013378,-0.00041007,-0.00004258,-0.00
 012308,0.00005093,-0.00043104,0.00082808,0.00112586,-0.00004583,-0.000
 08028,-0.00022332,-0.00017474,0.00025952,0.00002873,-0.01079165,0.1085
 9687,0.00009067,0.00008522,0.00009376,-0.00031700,-0.00027808,-0.00025
 347,0.00007058,0.00003145,0.00000451,0.00064852,-0.00036688,0.00037952
 ,0.00008483,-0.00008768,-0.00052955,-0.00089256,0.00022640,0.00023844,
 0.00006674,0.00002239,-0.00001074,-0.00001497,-0.00000835,0.00000362,-
 0.00002073,-0.00000006,-0.00000021,-0.00000959,-0.00000854,0.00000156,
 0.00002747,0.00000290,0.00003354,0.00000031,-0.00001310,-0.00002191,-0
 .00057416,0.00015194,0.00040218,0.00025490,0.00001705,0.00001558,-0.00
 001287,0.00000682,0.00013424,-0.00005295,-0.00007185,0.00022740,0.0013
 5144,-0.00062403,-0.00148525,-0.00102920,-0.00040402,0.00192032,-0.002
 91376,-0.00806271,-0.01869783,0.00383117,0.00400195,-0.00078966,0.0629
 0310,-0.12357307,-0.37094790,-0.00021099,-0.00090407,0.00023488,-0.000
 45026,0.00027725,0.00010203,0.00002269,0.00007031,-0.00004369,0.000562
 44,-0.00011749,0.00040667,-0.00041678,0.00004988,0.00001748,0.00034044
 ,-0.00062621,-0.00121082,-0.00004043,-0.00001040,0.00043301,-0.0001243
 7,-0.00007992,0.00039132,-0.05920205,0.12463674,0.38467745,-0.00011612
 ,-0.00022664,-0.00007553,0.00047368,0.00040903,0.00034121,-0.00003183,
 -0.00016869,-0.00010741,-0.00077722,0.00024896,-0.00018531,-0.00088497
 ,0.00053286,0.00036156,0.00093684,-0.00263916,-0.00009599,-0.00008382,
 0.00000014,0.00001386,0.00007169,-0.00004687,-0.00002363,-0.00000290,0
 .00003090,0.00002177,0.00003672,-0.00006146,0.00003880,-0.00004137,0.0
 0001938,-0.00003525,0.00002425,0.00008288,0.00001466,0.00045755,0.0000
 1676,-0.00025485,-0.00020335,-0.00003932,0.00000732,0.00013146,-0.0000
 6322,0.00002545,-0.00010920,0.00003805,0.00007747,-0.00165650,0.006458
 85,-0.00075106,0.00193124,-0.00166776,-0.00013325,0.00487768,-0.029395
 08,0.00198913,0.00070493,-0.00058034,-0.00079868,-0.06772255,0.1319850
 4,0.01128019,-0.00433138,-0.00208107,0.00201732,0.00058768,0.00056290,
 -0.00008501,-0.00097428,0.00063159,0.00000071,-0.00015941,0.00005990,-
 0.00007196,0.00022982,0.00051355,0.00004153,-0.00012733,0.00005515,-0.
 00021746,-0.00007076,0.00034547,-0.00024860,0.00003102,0.00052036,0.00
 036594,-0.00369619,0.00279354,-0.00385888,0.06949580,0.00000033,0.0000
 2097,0.00000602,0.00001350,-0.00002470,0.00000485,-0.00000118,0.000001
 10,0.00000394,0.00004786,0.00004775,-0.00000307,0.00015947,-0.00003898
 ,-0.00012412,-0.00051479,-0.00041323,-0.00014878,0.00000040,0.00000021
 ,-0.00000465,-0.00000682,0.00000298,0.00000380,0.00000365,0.00000224,0
 .00000037,-0.00000687,0.00000484,0.00000082,-0.00000079,0.00000028,-0.
 00000259,-0.00000062,-0.00001914,0.00000338,0.00003818,-0.00002100,-0.
 00001704,-0.00003932,0.00001362,0.00001578,-0.00006428,0.00001107,-0.0
 0001272,-0.00001668,0.00002269,0.00004086,0.00100440,0.00052047,0.0006
 0682,0.00127012,0.00150787,-0.00124598,0.00902111,-0.02048565,0.002300
 47,0.00028998,0.00145481,-0.00038720,0.09598005,-0.38143507,0.01977527
 ,-0.00508696,-0.00053599,0.00239025,0.00043585,0.00065652,-0.00023783,
 -0.00098813,0.00014960,-0.00029376,-0.00011715,-0.00015712,0.00000432,
 0.00048836,0.00046195,0.00015008,-0.00011042,0.00009988,-0.00031230,-0
 .00005800,-0.00005326,-0.00009195,0.00002443,0.00026950,0.00066769,0.0
 0462136,-0.00999610,0.00433895,-0.10669095,0.40858640,-0.00002773,-0.0
 0010787,0.00000188,0.00021993,0.00006944,-0.00002430,0.00000092,-0.000
 03287,-0.00004503,-0.00014361,0.00000595,0.00012862,-0.00066698,0.0001
 2069,0.00068267,0.00095728,-0.00143377,-0.00046297,-0.00002202,0.00000
 505,0.00000547,0.00003700,-0.00002084,-0.00001960,-0.00000466,0.000011
 57,-0.00000627,0.00002319,-0.00002899,-0.00000077,-0.00002441,0.000006
 30,0.00000100,0.00001838,0.00006413,0.00001331,-0.00010667,0.00000801,
 0.00001556,-0.00000732,-0.00001578,0.00001150,0.00009422,-0.00000088,-
 0.00003183,0.00001648,0.00000994,-0.00018787,-0.00170399,0.00385953,-0
 .00013877,0.00022108,-0.00068893,-0.00016491,-0.00946439,0.01751168,-0
 .00073983,-0.00104454,0.00178946,0.00075233,0.00657296,0.04362382,-0.0
 5628834,0.00381895,0.00124022,-0.00226548,-0.00034426,-0.00034251,0.00
 012704,-0.00002736,-0.00008851,0.00049964,-0.00005902,-0.00030987,-0.0
 0013126,0.00002594,0.00013098,-0.00014584,-0.00007359,-0.00063354,0.00
 022217,-0.00011308,0.00016052,-0.00025463,0.00101585,-0.00088538,-0.00
 068702,0.01063181,-0.03762615,0.00419110,-0.01001387,-0.02762203,0.054
 49894,-0.00010159,-0.00009492,-0.00008847,0.00046334,0.00033442,0.0002
 7514,0.00002161,-0.00008992,-0.00011897,-0.00135202,-0.00039989,0.0012
 4076,0.00002388,0.00013907,-0.00007145,0.00010518,-0.00035618,0.000106
 13,-0.00008566,-0.00002284,0.00000258,0.00001853,0.00001103,0.00000049
 ,0.00001511,0.00000434,0.00001130,0.00000701,0.00000931,0.00002424,-0.
 00007820,-0.00001290,-0.00000632,0.00005674,0.00003959,0.00014011,-0.0
 0019273,0.00002164,0.00001285,0.00013146,-0.00006428,-0.00009420,-0.00
 002187,-0.00004809,-0.00001608,-0.00000503,0.00000125,0.00003653,-0.00
 028994,0.00039803,-0.00022699,0.00015127,0.00085158,-0.00032469,0.0051
 3582,0.00438913,-0.00284223,0.00015750,0.00005974,-0.00006259,0.000697
 43,0.00237997,-0.00013632,-0.17156467,-0.10066043,0.07915050,-0.038347
 82,-0.01249133,0.00596436,0.00031551,-0.00010128,-0.00005354,0.0000095
 4,-0.00015007,-0.00006538,-0.00010560,0.00066404,-0.00023236,0.0001318
 1,-0.00012003,-0.00015360,-0.00003478,0.00013895,0.00014488,0.00012044
 ,-0.00003854,-0.00016280,-0.00020277,0.00014184,-0.00002318,0.00051007
 ,0.00037488,-0.00033057,0.20516623,-0.00000270,0.00002095,-0.00000381,
 -0.00002250,-0.00004093,-0.00000049,-0.00000228,0.00002001,0.00001460,
 -0.00008047,0.00009550,-0.00003705,0.00019694,-0.00008602,-0.00009422,
 -0.00050039,-0.00001470,-0.00020080,0.00000142,-0.00000258,-0.00000019
 ,-0.00000938,0.00000888,0.00000317,0.00000413,-0.00000521,-0.00000332,
 -0.00000314,0.00001082,-0.00000465,-0.00000161,-0.00000587,0.00000309,
 -0.00000147,-0.00001500,0.00000798,0.00002220,-0.00006704,-0.00000680,
 -0.00006322,0.00001108,0.00000087,-0.00004809,0.00000399,0.00000382,0.
 00000745,0.00001400,0.00000289,0.00065300,0.00008609,0.00042730,-0.001
 06397,0.00041983,0.00007649,-0.02273779,-0.01610540,0.01483148,-0.0008
 2340,0.00113583,0.00089518,0.00211874,-0.00748427,-0.00050846,-0.10197
 540,-0.13369083,0.06195136,0.00499669,0.00707726,-0.00352912,0.0001233
 6,0.00032541,-0.00036331,0.00016621,-0.00005444,-0.00001508,0.00111940
 ,-0.00002818,0.00011056,0.00050411,-0.00024556,-0.00078603,-0.00001999
 ,-0.00005520,-0.00002335,0.00025172,0.00035082,0.00001021,0.00016409,0
 .00002755,-0.00016654,-0.00115961,-0.00114160,0.00139980,0.10791239,0.
 14120136,-0.00001492,-0.00001263,-0.00001360,0.00005617,-0.00000699,0.
 00002123,0.00002895,0.00000277,-0.00003670,-0.00052102,-0.00011289,0.0
 0084024,-0.00005867,0.00005305,0.00000342,0.00018342,-0.00005396,0.000
 09170,-0.00001040,0.00000072,0.00000092,0.00000569,-0.00000503,-0.0000
 0325,0.00000005,-0.00000094,0.00000235,0.00000121,-0.00000565,0.000002
 65,-0.00000903,-0.00000020,0.00001099,0.00000656,0.00001174,0.00004442
 ,-0.00033865,-0.00004062,0.00013422,-0.00002543,0.00001271,-0.00003184
 ,0.00001608,-0.00000382,0.00000787,-0.00000594,-0.00001381,0.00001293,
 -0.00027011,-0.00002368,-0.00022427,0.00007853,0.00037621,-0.00017291,
 0.00155387,-0.00205125,-0.00050761,-0.00057473,-0.00073667,0.00050333,
 -0.00042822,0.00120344,0.00061871,0.08599145,0.06596520,-0.10472424,-0
 .02342317,-0.01184176,0.01134822,-0.00017842,-0.00019925,-0.00004513,0
 .00011686,0.00004834,-0.00003447,-0.00055740,0.00034850,0.00019953,0.0
 0006306,-0.00010281,0.00016216,-0.00006366,0.00000316,-0.00004579,-0.0
 0003261,0.00007601,0.00001179,-0.00007250,-0.00057020,0.00056039,0.000
 07967,0.00023389,0.00031488,-0.07843573,-0.06878023,0.10371027,0.00005
 540,0.00003493,0.00007376,0.00009898,-0.00008871,-0.00027091,0.0000640
 9,-0.00003946,-0.00012512,0.00027252,0.00038163,0.00066177,0.00006491,
 0.00004020,-0.00003562,0.00004276,-0.00018930,0.00013352,0.00002445,0.
 00000503,-0.00001313,-0.00000240,-0.00000224,-0.00000489,-0.00001260,-
 0.00000494,0.00001586,0.00000642,-0.00000310,0.00000730,-0.00004959,-0
 .00000950,0.00003597,0.00014240,0.00010238,0.00013330,-0.00020454,-0.0
 0002482,0.00005293,-0.00010919,-0.00001668,-0.00001647,-0.00000503,0.0
 0000745,0.00000594,-0.00000610,-0.00001187,0.00003278,-0.00017002,0.00
 021203,-0.00019168,0.00013943,0.00023696,0.00110604,-0.00061852,0.0012
 9348,0.00954167,-0.00056972,0.00260458,-0.00061778,0.00041106,-0.00082
 764,-0.00083583,-0.06197027,0.01197169,0.04132683,-0.00478809,-0.00896
 093,-0.03936388,0.00009447,-0.00017014,-0.00014914,-0.00034748,0.00046
 316,-0.00052080,0.00004404,0.00004422,0.00005514,0.00017429,-0.0001132
 0,-0.00039358,-0.00003630,0.00019025,0.00004522,0.00022656,0.00053765,
 0.00065042,0.00025155,0.00001284,-0.00014558,-0.00002033,0.00005052,-0
 .00003336,-0.00135449,0.00864509,0.01901196,0.06505859,0.00004439,0.00
 005396,0.00003600,-0.00010084,-0.00017248,-0.00012217,0.00002190,0.000
 04641,0.00002962,0.00033973,0.00004658,0.00012738,0.00009060,-0.000055
 63,-0.00005630,-0.00009905,0.00009552,0.00012073,0.00003303,0.00000761
 ,-0.00000356,-0.00001013,-0.00000107,0.00000111,-0.00000621,-0.0000060
 6,0.00000023,-0.00000575,0.00000038,-0.00000181,0.00002092,-0.00000103
 ,0.00001421,-0.00002897,-0.00004091,-0.00003871,-0.00021337,-0.0000352
 8,0.00007186,0.00003804,0.00002268,-0.00000997,0.00000125,0.00001400,0
 .00001381,-0.00001187,-0.00000683,0.00002849,0.00005993,-0.00005349,-0
 .00016803,-0.00134173,0.00042315,-0.00111115,0.00778045,-0.01349663,-0
 .03088158,0.00176351,-0.00569124,0.00218790,0.00048948,0.00235460,-0.0
 0112987,0.01162103,-0.07840208,-0.06887312,-0.00081207,0.00566146,0.00
 617878,-0.00017379,0.00014202,0.00036611,0.00048148,0.00014354,0.00086
 540,0.00005334,-0.00002132,0.00009259,0.00019605,0.00016091,0.00006310
 ,-0.00016631,0.00020522,0.00008666,0.00018983,-0.00079690,-0.00190405,
 -0.00030729,-0.00103146,0.00110689,0.00002361,0.00045929,0.00005856,-0
 .00249331,0.00762693,0.01629161,-0.01677995,0.08204460,-0.00000722,-0.
 00001724,-0.00000277,0.00007512,0.00003979,-0.00003961,0.00012460,-0.0
 0005887,-0.00013977,-0.00092002,-0.00017097,0.00129769,0.00032362,0.00
 005135,-0.00023547,-0.00019076,-0.00032335,0.00037696,-0.00002188,-0.0
 0000086,0.00000138,-0.00000783,0.00001710,-0.00001028,-0.00000949,-0.0
 0002149,0.00003413,-0.00000200,0.00001005,0.00001556,-0.00007276,-0.00
 002247,0.00005322,0.00017607,0.00010667,0.00017572,-0.00056626,-0.0001
 8536,0.00022736,-0.00007746,-0.00004088,-0.00018787,-0.00003653,-0.000
 00290,0.00001293,-0.00003279,-0.00002847,0.00011846,-0.00012448,0.0003
 9167,-0.00045525,-0.00021690,0.00016365,0.00044493,0.00148163,0.001657
 04,-0.00376438,0.00002389,-0.00043165,0.00125573,-0.00042139,0.0009565
 2,0.00159492,0.04070596,-0.07065727,-0.24250870,-0.01844933,-0.0048535
 3,-0.02227555,0.00020072,-0.00005398,0.00042527,0.00037942,0.00008191,
 0.00063460,-0.00016347,-0.00005172,0.00006046,-0.00011589,0.00010043,0
 .00020925,-0.00000570,0.00042204,0.00014305,-0.00004077,-0.00031342,0.
 00003002,-0.00022046,-0.00128979,0.00033229,-0.00014569,-0.00008780,0.
 00032589,0.00302076,-0.00552826,-0.01046504,-0.02845336,0.07745627,0.2
 7372590,0.00143959,0.00143799,0.00144853,-0.00737695,-0.00485479,-0.00
 370767,-0.00012763,0.00092989,0.00011331,-0.00243803,0.00513091,-0.009
 21981,0.00267957,-0.00215637,-0.00057766,-0.00448109,0.00082756,0.0004
 1395,0.00111300,0.00023865,-0.00015582,-0.00029537,-0.00005780,0.00000
 253,-0.00023887,-0.00010553,-0.00002170,-0.00015873,0.00003487,-0.0001
 8425,0.00062663,0.00000338,0.00043421,-0.00016914,-0.00039885,-0.00114
 134,0.00600617,-0.00046928,-0.00135066,-0.00165661,0.00100466,0.001703
 81,-0.00028996,0.00065306,0.00027003,-0.00017004,0.00005993,0.00012449
 ,0.00456372,0.00078865,0.00083511,-0.00024904,-0.00157346,-0.00000186,
 0.00087460,0.00154591,0.00020350,-0.00038684,-0.00045801,0.00052286,-0
 .00239815,-0.00113316,-0.00040360,-0.04167683,-0.00847795,0.00560577,-
 0.24922616,-0.08430227,0.12703130,0.00060409,-0.00025561,0.00018122,-0
 .00007812,0.00014066,0.00002813,-0.00011861,0.00009760,-0.00006727,-0.
 00005008,0.00011930,0.00002341,0.00006960,0.00095665,0.00037081,0.0003
 6772,-0.00047164,-0.00008441,0.00082866,0.00030784,0.00005498,0.000509
 05,-0.00012148,0.00055745,0.00049868,0.00162851,-0.00217290,0.00309273
 ,-0.00069793,0.00379065,0.28831245,-0.00008291,-0.00028407,0.00001177,
 -0.00310602,-0.00001907,0.00119001,-0.00000173,0.00014441,-0.00011493,
 0.00136603,-0.01095355,-0.00120336,-0.00274114,-0.00022841,0.00182790,
 0.00153213,0.00240391,-0.00094249,0.00002195,0.00006187,-0.00002465,0.
 00007206,-0.00008190,-0.00005247,-0.00001456,0.00001452,-0.00001183,0.
 00053660,-0.00030739,-0.00004670,0.00004729,-0.00018409,0.00014694,-0.
 00051720,0.00073940,-0.00066342,-0.00130037,-0.00025875,0.00062361,0.0
 0645919,0.00052005,-0.00385915,0.00039803,0.00008605,0.00002369,0.0002
 1206,-0.00005352,-0.00039167,0.00078728,-0.00528036,0.00062809,-0.0001
 3202,-0.00096811,0.00036879,0.00422203,0.00185463,-0.00046803,-0.00009
 630,-0.00045545,0.00041598,-0.00116247,0.00042869,-0.00006134,0.002664
 55,0.00126808,-0.00602702,-0.09833990,-0.05659502,0.07442527,0.0001983
 7,-0.00016810,0.00015419,-0.00007319,0.00009090,-0.00012838,-0.0002928
 0,-0.00004856,-0.00007578,-0.00033731,0.00008151,0.00009314,0.00037934
 ,0.00008752,-0.00034812,0.00000527,-0.00012646,-0.00010673,0.00049521,
 0.00007672,0.00037688,-0.00050877,0.00002778,-0.00023775,-0.00072716,0
 .00060650,-0.00006498,0.00040837,0.00030351,0.00268580,0.08962809,0.06
 721675,-0.00198397,-0.00171318,-0.00193178,0.00060011,0.00367545,0.007
 10861,-0.00112184,-0.00025968,0.00114040,-0.00851284,-0.00342515,-0.00
 713374,-0.00253748,0.00085273,0.00109590,0.00255651,0.00109636,-0.0016
 2388,-0.00109031,-0.00021746,0.00032120,0.00030863,0.00002829,-0.00000
 004,0.00031460,0.00011518,-0.00015654,0.00007900,0.00000046,0.00001237
 ,0.00030610,0.00014075,-0.00073643,-0.00103175,-0.00055141,-0.00161660
 ,0.00156814,-0.00000401,-0.00148532,0.00075033,-0.00060679,-0.00013813
 ,0.00022694,-0.00042728,-0.00022419,0.00019167,0.00016799,-0.00045520,
 -0.00083472,-0.00062825,0.00156707,0.00025735,0.00100813,-0.00001082,-
 0.00199529,-0.00081350,0.00010632,0.00039235,-0.00002844,-0.00022434,0
 .00129999,0.00004411,-0.00053150,-0.02202878,-0.01018898,0.01694895,0.
 16611210,0.08033942,-0.15673439,-0.00027459,0.00022813,-0.00022411,-0.
 00002822,-0.00012407,-0.00012573,0.00031533,-0.00004210,0.00001891,-0.
 00006085,-0.00006612,-0.00015565,0.00025494,-0.00054774,-0.00031388,-0
 .00020030,0.00020414,0.00000161,-0.00122745,0.00042611,-0.00081025,0.0
 0042585,0.00004426,-0.00019728,-0.00668516,0.00031290,-0.00229736,-0.0
 0171926,-0.00089700,-0.00141102,-0.12462710,-0.06814326,0.15021682\\-0
 .00000040,0.00000073,0.00000042,-0.00000021,0.00000085,0.00000030,-0.0
 0000018,0.00000058,-0.00000054,-0.00000034,-0.00000103,0.00000029,-0.0
 0000058,-0.00000033,0.00000054,0.00000039,0.00000050,-0.00000013,0.000
 00014,0.00000060,-0.00000008,0.00000027,0.00000052,-0.00000002,0.00000
 002,0.00000048,-0.00000006,0.00000027,0.00000035,0.00000008,0.00000016
 ,0.00000040,0.00000007,0.00000010,0.00000017,0.00000004,-0.00000007,0.
 00000019,-0.00000005,0.00000087,0.00000044,-0.00000053,-0.00000015,0.0
 0000048,-0.00000013,-0.00000022,0.00000039,-0.00000014,0.00000004,-0.0
 0000117,-0.00000028,0.00000040,-0.00000072,0.00000042,0.00000018,-0.00
 000085,0.00000029,0.00000018,-0.00000058,-0.00000054,0.00000028,0.0000
 0082,0.00000051,0.00000061,0.00000031,0.00000055,-0.00000054,-0.000000
 80,-0.00000051,-0.00000027,-0.00000052,-0.00000002,-0.00000002,-0.0000
 0048,-0.00000006,-0.00000014,-0.00000060,-0.00000008,-0.00000015,-0.00
 000040,0.00000007,-0.00000010,-0.00000018,0.00000004,-0.00000027,-0.00
 000035,0.00000008,0.00000005,-0.00000020,-0.00000005,-0.00000083,-0.00
 000041,-0.00000052,0.00000015,-0.00000047,-0.00000012,0.00000021,-0.00
 000040,-0.00000015,0.00000014,0.00000168,0.00000032\\\@


 A MAN IS EXACTLY AS GREAT AS THE TIDE SURGING
 BENEATH HIM.      - BISMARCK
 File lengths (MBytes):  RWF=    190 Int=      0 D2E=      0 Chk=      5 Scr=      1
 Normal termination of Gaussian 16 at Mon Apr  1 15:53:19 2024.
real 2779.08
user 9997.86
sys 46.77
