 Entering Gaussian System, Link 0=g16
 Input=gaussian_test.inp
 Output=gaussian_test.log
 Initial command:
 /sw/restricted/lms/sw/Gaussian/g16_B01/g16/l1.exe "/scratch/user/peterchao1/peterchao1/8625378_1689034736000000027187938/Gau-12451.inp" -scrdir="/scratch/user/peterchao1/peterchao1/8625378_1689034736000000027187938/"
 Entering Link 1 = /sw/restricted/lms/sw/Gaussian/g16_B01/g16/l1.exe PID=     12461.
  
 Copyright (c) 1988-2017, Gaussian, Inc.  All Rights Reserved.
  
 This is part of the Gaussian(R) 16 program.  It is based on
 the Gaussian(R) 09 system (copyright 2009, Gaussian, Inc.),
 the Gaussian(R) 03 system (copyright 2003, Gaussian, Inc.),
 the Gaussian(R) 98 system (copyright 1998, Gaussian, Inc.),
 the Gaussian(R) 94 system (copyright 1995, Gaussian, Inc.),
 the Gaussian 92(TM) system (copyright 1992, Gaussian, Inc.),
 the Gaussian 90(TM) system (copyright 1990, Gaussian, Inc.),
 the Gaussian 88(TM) system (copyright 1988, Gaussian, Inc.),
 the Gaussian 86(TM) system (copyright 1986, Carnegie Mellon
 University), and the Gaussian 82(TM) system (copyright 1983,
 Carnegie Mellon University). Gaussian is a federally registered
 trademark of Gaussian, Inc.
  
 This software contains proprietary and confidential information,
 including trade secrets, belonging to Gaussian, Inc.
  
 This software is provided under written license and may be
 used, copied, transmitted, or stored only in accord with that
 written license.
  
 The following legend is applicable only to US Government
 contracts under FAR:
  
                    RESTRICTED RIGHTS LEGEND
  
 Use, reproduction and disclosure by the US Government is
 subject to restrictions as set forth in subparagraphs (a)
 and (c) of the Commercial Computer Software - Restricted
 Rights clause in FAR 52.227-19.
  
 Gaussian, Inc.
 340 Quinnipiac St., Bldg. 40, Wallingford CT 06492
  
  
 ---------------------------------------------------------------
 Warning -- This program may not be used in any manner that
 competes with the business of Gaussian, Inc. or will provide
 assistance to any competitor of Gaussian, Inc.  The licensee
 of this program is prohibited from giving any competitor of
 Gaussian, Inc. access to this program.  By using this program,
 the user acknowledges that Gaussian, Inc. is engaged in the
 business of creating and licensing software in the field of
 computational chemistry and represents and warrants to the
 licensee that it is not a competitor of Gaussian, Inc. and that
 it will not use this program in any manner prohibited above.
 ---------------------------------------------------------------
  

 Cite this work as:
 Gaussian 16, Revision B.01,
 M. J. Frisch, G. W. Trucks, H. B. Schlegel, G. E. Scuseria, 
 M. A. Robb, J. R. Cheeseman, G. Scalmani, V. Barone, 
 G. A. Petersson, H. Nakatsuji, X. Li, M. Caricato, A. V. Marenich, 
 J. Bloino, B. G. Janesko, R. Gomperts, B. Mennucci, H. P. Hratchian, 
 J. V. Ortiz, A. F. Izmaylov, J. L. Sonnenberg, D. Williams-Young, 
 F. Ding, F. Lipparini, F. Egidi, J. Goings, B. Peng, A. Petrone, 
 T. Henderson, D. Ranasinghe, V. G. Zakrzewski, J. Gao, N. Rega, 
 G. Zheng, W. Liang, M. Hada, M. Ehara, K. Toyota, R. Fukuda, 
 J. Hasegawa, M. Ishida, T. Nakajima, Y. Honda, O. Kitao, H. Nakai, 
 T. Vreven, K. Throssell, J. A. Montgomery, Jr., J. E. Peralta, 
 F. Ogliaro, M. J. Bearpark, J. J. Heyd, E. N. Brothers, K. N. Kudin, 
 V. N. Staroverov, T. A. Keith, R. Kobayashi, J. Normand, 
 K. Raghavachari, A. P. Rendell, J. C. Burant, S. S. Iyengar, 
 J. Tomasi, M. Cossi, J. M. Millam, M. Klene, C. Adamo, R. Cammi, 
 J. W. Ochterski, R. L. Martin, K. Morokuma, O. Farkas, 
 J. B. Foresman, and D. J. Fox, Gaussian, Inc., Wallingford CT, 2016.
 
 ******************************************
 Gaussian 16:  ES64L-G16RevB.01 20-Dec-2017
                10-Jul-2023 
 ******************************************
 %nprocshared=4
 Will use up to    4 processors via shared memory.
 %mem=8000mb
 %chk=35.chk
 %mem=8000mb
 ----------------------------------------------------------------------
 #T wB97XD/def2svpp opt=tight freq int(grid=ultrafine) scf=(verytight,q
 c)
 ----------------------------------------------------------------------
 -------
 comment
 -------
 Symbolic Z-matrix:
 Charge =  1 Multiplicity = 2
 C                    -0.85836   1.64833  -1.04557 
 C                    -0.07343   0.56279  -0.30024 
 C                     1.16993   0.16676  -1.12028 
 O                     1.96444  -0.81317  -0.49534 
 C                     0.35107   1.08138   1.0954 
 O                     0.92906   0.09191   1.89011 
 C                    -0.92718  -0.6787   -0.09301 
 O                    -2.10095  -0.41945   0.48413 
 O                    -0.60337  -1.80206  -0.40231 
 H                    -1.17035   1.30333  -2.04642 
 H                    -0.22721   2.54455  -1.17742 
 H                    -1.76108   1.94044  -0.48623 
 H                     1.80696   1.05835  -1.24535 
 H                     0.85765  -0.16526  -2.12988 
 H                     1.43348  -1.62918  -0.49501 
 H                    -0.53563   1.45526   1.63329 
 H                     1.03354   1.94525   0.93626 
 H                     1.63221  -0.32417   1.35832 
 H                    -2.55524  -1.26979   0.62179 
 

 GradGradGradGradGradGradGradGradGradGradGradGradGradGradGradGradGradGrad
 Initialization pass.
                           ----------------------------
                           !    Initial Parameters    !
                           ! (Angstroms and Degrees)  !
 --------------------------                            --------------------------
 ! Name  Definition              Value          Derivative Info.                !
 --------------------------------------------------------------------------------
 ! R1    R(1,2)                  1.533          estimate D2E/DX2                !
 ! R2    R(1,10)                 1.1037         estimate D2E/DX2                !
 ! R3    R(1,11)                 1.1041         estimate D2E/DX2                !
 ! R4    R(1,12)                 1.1014         estimate D2E/DX2                !
 ! R5    R(2,3)                  1.5412         estimate D2E/DX2                !
 ! R6    R(2,5)                  1.5482         estimate D2E/DX2                !
 ! R7    R(2,7)                  1.5209         estimate D2E/DX2                !
 ! R8    R(3,4)                  1.4079         estimate D2E/DX2                !
 ! R9    R(3,13)                 1.1029         estimate D2E/DX2                !
 ! R10   R(3,14)                 1.1077         estimate D2E/DX2                !
 ! R11   R(4,15)                 0.9735         estimate D2E/DX2                !
 ! R12   R(5,6)                  1.3945         estimate D2E/DX2                !
 ! R13   R(5,16)                 1.1024         estimate D2E/DX2                !
 ! R14   R(5,17)                 1.1124         estimate D2E/DX2                !
 ! R15   R(6,18)                 0.9749         estimate D2E/DX2                !
 ! R16   R(7,8)                  1.3334         estimate D2E/DX2                !
 ! R17   R(7,9)                  1.2093         estimate D2E/DX2                !
 ! R18   R(8,19)                 0.9739         estimate D2E/DX2                !
 ! A1    A(2,1,10)             111.364          estimate D2E/DX2                !
 ! A2    A(2,1,11)             109.8877         estimate D2E/DX2                !
 ! A3    A(2,1,12)             111.1344         estimate D2E/DX2                !
 ! A4    A(10,1,11)            107.8814         estimate D2E/DX2                !
 ! A5    A(10,1,12)            108.1643         estimate D2E/DX2                !
 ! A6    A(11,1,12)            108.295          estimate D2E/DX2                !
 ! A7    A(1,2,3)              109.6544         estimate D2E/DX2                !
 ! A8    A(1,2,5)              109.9672         estimate D2E/DX2                !
 ! A9    A(1,2,7)              110.9075         estimate D2E/DX2                !
 ! A10   A(3,2,5)              110.1525         estimate D2E/DX2                !
 ! A11   A(3,2,7)              108.3978         estimate D2E/DX2                !
 ! A12   A(5,2,7)              107.7287         estimate D2E/DX2                !
 ! A13   A(2,3,4)              113.4502         estimate D2E/DX2                !
 ! A14   A(2,3,13)             108.5777         estimate D2E/DX2                !
 ! A15   A(2,3,14)             109.5444         estimate D2E/DX2                !
 ! A16   A(4,3,13)             106.6826         estimate D2E/DX2                !
 ! A17   A(4,3,14)             110.7956         estimate D2E/DX2                !
 ! A18   A(13,3,14)            107.5648         estimate D2E/DX2                !
 ! A19   A(3,4,15)             106.0084         estimate D2E/DX2                !
 ! A20   A(2,5,6)              112.9355         estimate D2E/DX2                !
 ! A21   A(2,5,16)             109.445          estimate D2E/DX2                !
 ! A22   A(2,5,17)             107.4209         estimate D2E/DX2                !
 ! A23   A(6,5,16)             107.2148         estimate D2E/DX2                !
 ! A24   A(6,5,17)             112.2262         estimate D2E/DX2                !
 ! A25   A(16,5,17)            107.4513         estimate D2E/DX2                !
 ! A26   A(5,6,18)             106.9129         estimate D2E/DX2                !
 ! A27   A(2,7,8)              113.2283         estimate D2E/DX2                !
 ! A28   A(2,7,9)              124.9674         estimate D2E/DX2                !
 ! A29   A(8,7,9)              121.8035         estimate D2E/DX2                !
 ! A30   A(7,8,19)             107.5805         estimate D2E/DX2                !
 ! D1    D(10,1,2,3)            58.5716         estimate D2E/DX2                !
 ! D2    D(10,1,2,5)           179.8363         estimate D2E/DX2                !
 ! D3    D(10,1,2,7)           -61.111          estimate D2E/DX2                !
 ! D4    D(11,1,2,3)           -60.9084         estimate D2E/DX2                !
 ! D5    D(11,1,2,5)            60.3563         estimate D2E/DX2                !
 ! D6    D(11,1,2,7)           179.4089         estimate D2E/DX2                !
 ! D7    D(12,1,2,3)           179.2418         estimate D2E/DX2                !
 ! D8    D(12,1,2,5)           -59.4935         estimate D2E/DX2                !
 ! D9    D(12,1,2,7)            59.5591         estimate D2E/DX2                !
 ! D10   D(1,2,3,4)            178.9606         estimate D2E/DX2                !
 ! D11   D(1,2,3,13)            60.542          estimate D2E/DX2                !
 ! D12   D(1,2,3,14)           -56.6616         estimate D2E/DX2                !
 ! D13   D(5,2,3,4)             57.8076         estimate D2E/DX2                !
 ! D14   D(5,2,3,13)           -60.611          estimate D2E/DX2                !
 ! D15   D(5,2,3,14)          -177.8146         estimate D2E/DX2                !
 ! D16   D(7,2,3,4)            -59.8317         estimate D2E/DX2                !
 ! D17   D(7,2,3,13)          -178.2503         estimate D2E/DX2                !
 ! D18   D(7,2,3,14)            64.5461         estimate D2E/DX2                !
 ! D19   D(1,2,5,6)            172.7509         estimate D2E/DX2                !
 ! D20   D(1,2,5,16)            53.3981         estimate D2E/DX2                !
 ! D21   D(1,2,5,17)           -62.9678         estimate D2E/DX2                !
 ! D22   D(3,2,5,6)            -66.2832         estimate D2E/DX2                !
 ! D23   D(3,2,5,16)           174.364          estimate D2E/DX2                !
 ! D24   D(3,2,5,17)            57.9981         estimate D2E/DX2                !
 ! D25   D(7,2,5,6)             51.7692         estimate D2E/DX2                !
 ! D26   D(7,2,5,16)           -67.5836         estimate D2E/DX2                !
 ! D27   D(7,2,5,17)           176.0505         estimate D2E/DX2                !
 ! D28   D(1,2,7,8)            -52.8253         estimate D2E/DX2                !
 ! D29   D(1,2,7,9)            127.4998         estimate D2E/DX2                !
 ! D30   D(3,2,7,8)           -173.2568         estimate D2E/DX2                !
 ! D31   D(3,2,7,9)              7.0683         estimate D2E/DX2                !
 ! D32   D(5,2,7,8)             67.5659         estimate D2E/DX2                !
 ! D33   D(5,2,7,9)           -112.1089         estimate D2E/DX2                !
 ! D34   D(2,3,4,15)            67.7051         estimate D2E/DX2                !
 ! D35   D(13,3,4,15)         -172.788          estimate D2E/DX2                !
 ! D36   D(14,3,4,15)          -55.9922         estimate D2E/DX2                !
 ! D37   D(2,5,6,18)            51.3493         estimate D2E/DX2                !
 ! D38   D(16,5,6,18)          171.9823         estimate D2E/DX2                !
 ! D39   D(17,5,6,18)          -70.2578         estimate D2E/DX2                !
 ! D40   D(2,7,8,19)          -176.9085         estimate D2E/DX2                !
 ! D41   D(9,7,8,19)             2.778          estimate D2E/DX2                !
 --------------------------------------------------------------------------------
 Number of steps in this run=     99 maximum allowed number of steps=    114.
 GradGradGradGradGradGradGradGradGradGradGradGradGradGradGradGradGradGrad

                    Distance matrix (angstroms):
                    1          2          3          4          5
     1  C    0.000000
     2  C    1.532980   0.000000
     3  C    2.512888   1.541190   0.000000
     4  O    3.785492   2.466629   1.407857   0.000000
     5  C    2.523468   1.548205   2.533043   2.953429   0.000000
     6  O    3.773003   2.454456   3.020939   2.753458   1.394527
     7  C    2.515392   1.520897   2.483542   2.922569   2.478729
     8  O    2.856518   2.385546   3.690044   4.200208   2.939133
     9  O    3.519093   2.425649   2.745242   2.753216   3.386488
    10  H    1.103662   2.191070   2.761606   4.088075   3.497858
    11  H    1.104056   2.172663   2.758464   4.067288   2.764236
    12  H    1.101404   2.186475   3.484078   4.632707   2.775016
    13  H    2.737138   2.162104   1.102891   2.022350   2.756678
    14  H    2.722052   2.178205   1.107726   2.077616   3.494737
    15  H    4.037044   2.667106   1.919853   0.973550   3.323877
    16  H    2.705125   2.179138   3.485870   3.990884   1.102420
    17  H    2.755921   2.159982   2.722310   3.244214   1.112376
    18  H    3.984014   2.539040   2.568688   1.945648   1.919900
    19  H    3.764961   3.219917   4.356080   4.678035   3.768148
                    6          7          8          9         10
     6  O    0.000000
     7  C    2.823512   0.000000
     8  O    3.379237   1.333428   0.000000
     9  O    3.345242   1.209320   2.222641   0.000000
    10  H    4.622918   2.793459   3.199630   3.559217   0.000000
    11  H    4.094166   3.472067   3.880324   4.431173   1.784737
    12  H    4.037446   2.776675   2.574134   3.918374   1.785793
    13  H    3.396444   3.438132   4.521804   3.834364   3.092915
    14  H    4.028841   2.756464   3.956129   2.792524   2.505304
    15  H    2.984187   2.576374   3.861906   2.046268   4.217396
    16  H    2.017426   2.772580   2.699136   3.841664   3.737139
    17  H    2.087017   3.433504   3.952374   4.302743   3.763722
    18  H    0.974852   2.963531   3.835333   3.206526   4.700570
    19  H    3.950095   1.873743   0.973869   2.267575   3.957046
                   11         12         13         14         15
    11  H    0.000000
    12  H    1.787586   0.000000
    13  H    2.520166   3.753035   0.000000
    14  H    3.070369   3.740768   1.783481   0.000000
    15  H    4.543520   4.790353   2.815195   2.268794   0.000000
    16  H    3.030145   2.495898   3.732533   4.327674   4.233296
    17  H    2.533046   3.135832   2.478747   3.726450   3.871053
    18  H    4.256402   4.477192   2.953130   3.576692   2.275389
    19  H    4.817270   3.487691   5.285381   4.521008   4.157676
                   16         17         18         19
    16  H    0.000000
    17  H    1.785562   0.000000
    18  H    2.818064   2.384698   0.000000
    19  H    3.539477   4.828539   4.355625   0.000000
 Framework group  C1[X(C5H10O4)]
 Deg. of freedom    51
                         Standard orientation:                         
 ---------------------------------------------------------------------
 Center     Atomic      Atomic             Coordinates (Angstroms)
 Number     Number       Type             X           Y           Z
 ---------------------------------------------------------------------
      1          6           0       -0.858360    1.648333   -1.045566
      2          6           0       -0.073433    0.562791   -0.300236
      3          6           0        1.169934    0.166764   -1.120278
      4          8           0        1.964440   -0.813170   -0.495337
      5          6           0        0.351065    1.081379    1.095402
      6          8           0        0.929063    0.091905    1.890112
      7          6           0       -0.927178   -0.678701   -0.093005
      8          8           0       -2.100948   -0.419446    0.484127
      9          8           0       -0.603369   -1.802060   -0.402308
     10          1           0       -1.170353    1.303332   -2.046418
     11          1           0       -0.227208    2.544547   -1.177425
     12          1           0       -1.761082    1.940441   -0.486230
     13          1           0        1.806960    1.058349   -1.245349
     14          1           0        0.857653   -0.165264   -2.129879
     15          1           0        1.433475   -1.629182   -0.495009
     16          1           0       -0.535625    1.455261    1.633289
     17          1           0        1.033545    1.945251    0.936261
     18          1           0        1.632212   -0.324165    1.358320
     19          1           0       -2.555243   -1.269791    0.621789
 ---------------------------------------------------------------------
 Rotational constants (GHZ):           1.8440999           1.4921720           1.4185965
   146 basis functions,   265 primitive gaussians,   155 cartesian basis functions
    36 alpha electrons       35 beta electrons
       nuclear repulsion energy       516.9292851115 Hartrees.
 NAtoms=   19 NActive=   19 NUniq=   19 SFac= 1.00D+00 NAtFMM=   60 NAOKFM=F Big=F
 Nuclear repulsion after empirical dispersion term =      516.9169454751 Hartrees.
   1 Symmetry operations used in ECPInt.
 ECPInt:  NShTT=    2775 NPrTT=   11173 LenC2=    2754 LenP2D=    8776.
 LDataN:  DoStor=T MaxTD1= 4 Len=   56
 ExpMin= 1.22D-01 ExpMax= 2.27D+03 ExpMxC= 3.41D+02 IAcc=3 IRadAn=         5 AccDes= 0.00D+00
 Harris functional with IExCor= 4639 and IRadAn=       5 diagonalized for initial guess.
 HarFok:  IExCor= 4639 AccDes= 0.00D+00 IRadAn=         5 IDoV= 1 UseB2=F ITyADJ=14
 ICtDFT=  3500011 ScaDFX=  1.000000  1.000000  1.000000  1.000000
 FoFCou: FMM=F IPFlag=           0 FMFlag=      100000 FMFlg1=           0
         NFxFlg=           0 DoJE=T BraDBF=F KetDBF=T FulRan=T
         wScrn=  0.000000 ICntrl=       500 IOpCl=  0 I1Cent=   200000004 NGrid=           0
         NMat0=    1 NMatS0=      1 NMatT0=    0 NMatD0=    1 NMtDS0=    0 NMtDT0=    0
 Petite list used in FoFCou.
 Initial guess <Sx>= 0.0000 <Sy>= 0.0000 <Sz>= 0.5000 <S**2>= 0.7500 S= 0.5000
     Accept linear search using points  3 and  4.
     Accept linear search using points  2 and  3.
     Minimum is close to point  2 DX=  2.85D-02 DF= -4.41D-06 DXR=  5.39D-02 DFR=  2.91D-03 which will be used.
     Accept linear search using points  1 and  2.
     Minimum is close to point  4 DX=  5.57D-02 DF= -3.18D-07 DXR=  2.36D-02 DFR=  5.54D-04 which will be used.
     Minimum is close to point  3 DX=  6.92D-03 DF= -8.68D-08 DXR=  1.70D-02 DFR=  2.89D-04 which will be used.
 Incorrect curvature in search direction -- initial direction reversed.
     Accept linear search using points  1 and  2.
     Accept linear search using points  1 and  2.
     Minimum is close to point  2 DX= -3.38D-02 DF= -2.94D-07 DXR=  4.41D-02 DFR=  1.16D-03 which will be used.
     Accept linear search using points  1 and  2.
 Incorrect curvature in search direction -- initial direction reversed.
     Accept linear search using points  1 and  2.
     Minimum is close to point  3 DX= -3.31D-02 DF= -7.52D-06 DXR=  7.09D-02 DFR=  5.05D-03 which will be used.
     Accept linear search using points  1 and  2.
     Minimum is close to point  2 DX=  6.42D-03 DF= -8.63D-09 DXR=  6.38D-03 DFR=  4.07D-05 which will be used.
     Minimum is close to point  2 DX=  2.35D-02 DF= -2.48D-09 DXR=  2.29D-02 DFR=  5.26D-04 which will be used.
 SCF Done:  E(UwB97XD) =  -496.546008547     a.u. after   21 cycles
            Convg  =    0.1316D-06                   158 Fock formations.
              S**2 =  0.7550                  -V/T =  2.0080
 <Sx>= 0.0000 <Sy>= 0.0000 <Sz>= 0.5000 <S**2>= 0.7550 S= 0.5025
 <L.S>=  0.00000000000    
 Annihilation of the first spin contaminant:
 S**2 before annihilation     0.7550,   after     0.7500

 **********************************************************************

            Population analysis using the SCF Density.

 **********************************************************************

 Orbital symmetries:
 Alpha Orbitals:
       Occupied  (A) (A) (A) (A) (A) (A) (A) (A) (A) (A) (A) (A)
                 (A) (A) (A) (A) (A) (A) (A) (A) (A) (A) (A) (A)
                 (A) (A) (A) (A) (A) (A) (A) (A) (A) (A) (A) (A)
       Virtual   (A) (A) (A) (A) (A) (A) (A) (A) (A) (A) (A) (A)
                 (A) (A) (A) (A) (A) (A) (A) (A) (A) (A) (A) (A)
                 (A) (A) (A) (A) (A) (A) (A) (A) (A) (A) (A) (A)
                 (A) (A) (A) (A) (A) (A) (A) (A) (A) (A) (A) (A)
                 (A) (A) (A) (A) (A) (A) (A) (A) (A) (A) (A) (A)
                 (A) (A) (A) (A) (A) (A) (A) (A) (A) (A) (A) (A)
                 (A) (A) (A) (A) (A) (A) (A) (A) (A) (A) (A) (A)
                 (A) (A) (A) (A) (A) (A) (A) (A) (A) (A) (A) (A)
                 (A) (A) (A) (A) (A) (A) (A) (A) (A) (A) (A) (A)
                 (A) (A)
 Beta  Orbitals:
       Occupied  (A) (A) (A) (A) (A) (A) (A) (A) (A) (A) (A) (A)
                 (A) (A) (A) (A) (A) (A) (A) (A) (A) (A) (A) (A)
                 (A) (A) (A) (A) (A) (A) (A) (A) (A) (A) (A)
       Virtual   (A) (A) (A) (A) (A) (A) (A) (A) (A) (A) (A) (A)
                 (A) (A) (A) (A) (A) (A) (A) (A) (A) (A) (A) (A)
                 (A) (A) (A) (A) (A) (A) (A) (A) (A) (A) (A) (A)
                 (A) (A) (A) (A) (A) (A) (A) (A) (A) (A) (A) (A)
                 (A) (A) (A) (A) (A) (A) (A) (A) (A) (A) (A) (A)
                 (A) (A) (A) (A) (A) (A) (A) (A) (A) (A) (A) (A)
                 (A) (A) (A) (A) (A) (A) (A) (A) (A) (A) (A) (A)
                 (A) (A) (A) (A) (A) (A) (A) (A) (A) (A) (A) (A)
                 (A) (A) (A) (A) (A) (A) (A) (A) (A) (A) (A) (A)
                 (A) (A) (A)
 The electronic state is 2-A.
 Alpha  occ. eigenvalues --  -19.54794 -19.50751 -19.48991 -19.45799 -10.63496
 Alpha  occ. eigenvalues --  -10.57950 -10.56050 -10.55883 -10.48038  -1.40688
 Alpha  occ. eigenvalues --   -1.39522  -1.35869  -1.30725  -1.14102  -1.00286
 Alpha  occ. eigenvalues --   -0.98090  -0.95625  -0.89251  -0.86513  -0.82023
 Alpha  occ. eigenvalues --   -0.79008  -0.78432  -0.76682  -0.75924  -0.73605
 Alpha  occ. eigenvalues --   -0.72659  -0.70880  -0.69436  -0.66813  -0.66004
 Alpha  occ. eigenvalues --   -0.65290  -0.63707  -0.62924  -0.60126  -0.59595
 Alpha  occ. eigenvalues --   -0.56788
 Alpha virt. eigenvalues --   -0.11911  -0.04413  -0.03256  -0.01555   0.00031
 Alpha virt. eigenvalues --    0.01283   0.03203   0.04204   0.04375   0.05631
 Alpha virt. eigenvalues --    0.06800   0.08639   0.09249   0.10134   0.11327
 Alpha virt. eigenvalues --    0.12300   0.13649   0.21359   0.23729   0.32056
 Alpha virt. eigenvalues --    0.32590   0.35317   0.35498   0.39440   0.41468
 Alpha virt. eigenvalues --    0.42148   0.43965   0.46179   0.47924   0.49204
 Alpha virt. eigenvalues --    0.50264   0.51314   0.52988   0.54789   0.55114
 Alpha virt. eigenvalues --    0.57095   0.58597   0.60106   0.60667   0.62236
 Alpha virt. eigenvalues --    0.63081   0.64178   0.65102   0.67690   0.71071
 Alpha virt. eigenvalues --    0.78887   0.81600   0.85314   0.86190   0.89511
 Alpha virt. eigenvalues --    0.90779   0.92595   0.94844   0.98502   1.00010
 Alpha virt. eigenvalues --    1.04804   1.07154   1.11583   1.18431   1.20801
 Alpha virt. eigenvalues --    1.21828   1.28431   1.32616   1.34488   1.42307
 Alpha virt. eigenvalues --    1.45107   1.48168   1.55736   1.59556   1.60216
 Alpha virt. eigenvalues --    1.65197   1.68553   1.71103   1.73571   1.83032
 Alpha virt. eigenvalues --    1.85152   1.85599   1.91110   1.91585   1.94609
 Alpha virt. eigenvalues --    1.97496   1.99972   2.01873   2.05094   2.14390
 Alpha virt. eigenvalues --    2.27820   2.30470   2.40180   2.41901   2.43408
 Alpha virt. eigenvalues --    2.46396   2.49005   2.50487   2.53819   2.59275
 Alpha virt. eigenvalues --    2.68024   2.68928   2.75477   2.79163   2.81240
 Alpha virt. eigenvalues --    2.83234   2.85243   2.85483   2.96342   3.07253
 Alpha virt. eigenvalues --    3.18943   3.22221   3.24516   3.48377   3.52375
  Beta  occ. eigenvalues --  -19.53780 -19.50215 -19.48984 -19.45621 -10.63509
  Beta  occ. eigenvalues --  -10.57858 -10.55863 -10.55803 -10.48049  -1.40230
  Beta  occ. eigenvalues --   -1.37513  -1.34535  -1.30414  -1.13177  -0.99241
  Beta  occ. eigenvalues --   -0.97715  -0.95354  -0.88479  -0.85684  -0.81236
  Beta  occ. eigenvalues --   -0.78226  -0.77022  -0.76211  -0.74951  -0.72348
  Beta  occ. eigenvalues --   -0.71306  -0.69284  -0.68307  -0.66179  -0.65404
  Beta  occ. eigenvalues --   -0.64170  -0.63049  -0.59959  -0.57150  -0.55383
  Beta virt. eigenvalues --   -0.37718  -0.11728  -0.04067  -0.03085  -0.01430
  Beta virt. eigenvalues --    0.00279   0.01524   0.03497   0.04429   0.04763
  Beta virt. eigenvalues --    0.05882   0.07013   0.09038   0.09483   0.10420
  Beta virt. eigenvalues --    0.11741   0.12671   0.14340   0.21654   0.24043
  Beta virt. eigenvalues --    0.32242   0.32817   0.35647   0.35727   0.39618
  Beta virt. eigenvalues --    0.41861   0.42493   0.44309   0.46414   0.48257
  Beta virt. eigenvalues --    0.49526   0.50596   0.51828   0.53285   0.55167
  Beta virt. eigenvalues --    0.55692   0.57353   0.59083   0.60375   0.60965
  Beta virt. eigenvalues --    0.62361   0.63248   0.64397   0.65211   0.67950
  Beta virt. eigenvalues --    0.71389   0.79171   0.82063   0.85682   0.86474
  Beta virt. eigenvalues --    0.89845   0.91041   0.93878   0.95283   0.99233
  Beta virt. eigenvalues --    1.00439   1.05499   1.07794   1.12192   1.19007
  Beta virt. eigenvalues --    1.21010   1.22222   1.29073   1.33032   1.35075
  Beta virt. eigenvalues --    1.42747   1.45509   1.48273   1.55974   1.60181
  Beta virt. eigenvalues --    1.60849   1.65829   1.68806   1.71584   1.73805
  Beta virt. eigenvalues --    1.83452   1.85457   1.85802   1.91333   1.91803
  Beta virt. eigenvalues --    1.95151   1.97884   2.00357   2.02017   2.05288
  Beta virt. eigenvalues --    2.14606   2.28386   2.30964   2.42475   2.42762
  Beta virt. eigenvalues --    2.44378   2.46501   2.50500   2.51682   2.54577
  Beta virt. eigenvalues --    2.59864   2.69425   2.69740   2.76222   2.80810
  Beta virt. eigenvalues --    2.82509   2.84399   2.86637   2.86721   2.96611
  Beta virt. eigenvalues --    3.07408   3.19150   3.23278   3.25200   3.48552
  Beta virt. eigenvalues --    3.52623
          Condensed to atoms (all electrons):
          Atomic-Atomic Spin Densities.
 Mulliken charges and spin densities:
               1          2
     1  C   -0.286725  -0.004724
     2  C   -0.466933   0.150169
     3  C    0.046327   0.007915
     4  O   -0.399077   0.215840
     5  C    0.043318   0.043558
     6  O   -0.265409   0.417158
     7  C    0.314802  -0.007806
     8  O   -0.334244   0.002640
     9  O   -0.198003   0.076094
    10  H    0.193862   0.014065
    11  H    0.179510   0.001206
    12  H    0.202310   0.006188
    13  H    0.181399  -0.000344
    14  H    0.216044   0.051917
    15  H    0.383200  -0.007886
    16  H    0.212141   0.004334
    17  H    0.214949   0.044902
    18  H    0.377639  -0.014974
    19  H    0.384890  -0.000254
 Sum of Mulliken charges =   1.00000   1.00000
 Mulliken charges and spin densities with hydrogens summed into heavy atoms:
               1          2
     1  C    0.288956   0.016735
     2  C   -0.466933   0.150169
     3  C    0.443770   0.059488
     4  O   -0.015876   0.207955
     5  C    0.470408   0.092794
     6  O    0.112230   0.402184
     7  C    0.314802  -0.007806
     8  O    0.050646   0.002387
     9  O   -0.198003   0.076094
 Electronic spatial extent (au):  <R**2>=           1071.6361
 Charge=              1.0000 electrons
 Dipole moment (field-independent basis, Debye):
    X=              0.3078    Y=              2.2671    Z=             -0.4424  Tot=              2.3303
                          Isotropic Fermi Contact Couplings
        Atom                 a.u.       MegaHertz       Gauss      10(-4) cm-1
     1  C(13)             -0.00827      -9.29926      -3.31821      -3.10190
     2  C(13)             -0.00110      -1.23639      -0.44118      -0.41242
     3  C(13)             -0.01562     -17.56316      -6.26697      -5.85844
     4  O(17)              0.08212     -49.78206     -17.76348     -16.60551
     5  C(13)             -0.01759     -19.77657      -7.05677      -6.59675
     6  O(17)              0.15309     -92.80094     -33.11368     -30.95506
     7  C(13)             -0.00789      -8.86751      -3.16415      -2.95788
     8  O(17)             -0.00435       2.63928       0.94176       0.88037
     9  O(17)              0.02127     -12.89355      -4.60074      -4.30083
    10  H(1)               0.00588      26.28019       9.37743       8.76613
    11  H(1)               0.00036       1.61899       0.57770       0.54004
    12  H(1)               0.00286      12.78651       4.56254       4.26512
    13  H(1)              -0.00004      -0.17095      -0.06100      -0.05702
    14  H(1)               0.02412     107.79473      38.46384      35.95645
    15  H(1)              -0.00305     -13.61499      -4.85817      -4.54147
    16  H(1)               0.00205       9.17810       3.27498       3.06149
    17  H(1)               0.02073      92.67038      33.06710      30.91151
    18  H(1)              -0.00466     -20.82855      -7.43215      -6.94766
    19  H(1)              -0.00018      -0.80036      -0.28559      -0.26697
 --------------------------------------------------------
       Center         ----  Spin Dipole Couplings  ----
                      3XX-RR        3YY-RR        3ZZ-RR
 --------------------------------------------------------
     1   Atom       -0.005378     -0.003899      0.009276
     2   Atom       -0.141819     -0.023628      0.165447
     3   Atom       -0.023236     -0.020887      0.044123
     4   Atom       -0.347897     -0.329920      0.677817
     5   Atom       -0.052183     -0.001356      0.053539
     6   Atom       -0.320422      0.228032      0.092389
     7   Atom       -0.001043      0.015218     -0.014175
     8   Atom       -0.002994      0.000672      0.002322
     9   Atom        0.042091     -0.001299     -0.040792
    10   Atom       -0.000242     -0.002197      0.002439
    11   Atom       -0.003135      0.002888      0.000247
    12   Atom        0.003580     -0.000911     -0.002669
    13   Atom       -0.001162      0.001911     -0.000749
    14   Atom       -0.003695     -0.006697      0.010392
    15   Atom       -0.004277      0.020159     -0.015882
    16   Atom        0.010018     -0.005110     -0.004908
    17   Atom       -0.001874      0.007974     -0.006100
    18   Atom        0.046418     -0.034770     -0.011648
    19   Atom        0.003343     -0.001130     -0.002212
 --------------------------------------------------------
                        XY            XZ            YZ
 --------------------------------------------------------
     1   Atom       -0.003626      0.000190      0.004101
     2   Atom       -0.012835     -0.011885      0.184335
     3   Atom       -0.018507     -0.028947      0.027767
     4   Atom       -0.108646     -0.336346      0.349891
     5   Atom        0.039665      0.073991      0.090989
     6   Atom        0.746386      0.715262      0.998163
     7   Atom        0.009406     -0.003943     -0.002472
     8   Atom       -0.004481     -0.020099      0.019100
     9   Atom        0.177686     -0.133413     -0.120154
    10   Atom       -0.001905      0.004313     -0.001184
    11   Atom       -0.001503      0.001042     -0.003758
    12   Atom       -0.004233      0.001738     -0.001146
    13   Atom        0.004617     -0.003993     -0.003214
    14   Atom        0.001580      0.007825      0.003397
    15   Atom        0.028312     -0.007686      0.002645
    16   Atom       -0.008925     -0.006457      0.003984
    17   Atom        0.012752     -0.007548     -0.009831
    18   Atom       -0.031678     -0.047588      0.030419
    19   Atom        0.001901     -0.001313      0.000013
 --------------------------------------------------------


 ---------------------------------------------------------------------------------
              Anisotropic Spin Dipole Couplings in Principal Axis System
 ---------------------------------------------------------------------------------

       Atom             a.u.   MegaHertz   Gauss  10(-4) cm-1        Axes

              Baa    -0.0088    -1.179    -0.421    -0.393  0.7236  0.6714 -0.1601
     1 C(13)  Bbb    -0.0017    -0.229    -0.082    -0.076  0.6881 -0.6836  0.2433
              Bcc     0.0105     1.408     0.502     0.470 -0.0539  0.2862  0.9567
 
              Baa    -0.1451   -19.465    -6.946    -6.493  0.8793  0.4236 -0.2178
     2 C(13)  Bbb    -0.1337   -17.940    -6.401    -5.984 -0.4746  0.7408 -0.4753
              Bcc     0.2787    37.405    13.347    12.477 -0.0400  0.5213  0.8524
 
              Baa    -0.0407    -5.463    -1.949    -1.822  0.7643  0.6429  0.0503
     3 C(13)  Bbb    -0.0262    -3.519    -1.256    -1.174 -0.5413  0.6820 -0.4919
              Bcc     0.0669     8.982     3.205     2.996 -0.3506  0.3487  0.8692
 
              Baa    -0.4498    32.550    11.615    10.857  0.9224  0.3481  0.1671
     4 O(17)  Bbb    -0.4386    31.736    11.324    10.586 -0.2712  0.8921 -0.3613
              Bcc     0.8884   -64.286   -22.939   -21.444 -0.2749  0.2880  0.9173
 
              Baa    -0.0914   -12.261    -4.375    -4.090  0.8297  0.1715 -0.5313
     5 C(13)  Bbb    -0.0632    -8.484    -3.027    -2.830 -0.4148  0.8263 -0.3811
              Bcc     0.1546    20.745     7.402     6.920  0.3737  0.5365  0.7567
 
              Baa    -0.8588    62.139    22.173    20.727  0.7538  0.0812 -0.6521
     6 O(17)  Bbb    -0.8330    60.273    21.507    20.105 -0.4722  0.7570 -0.4516
              Bcc     1.6917  -122.412   -43.680   -40.832  0.4570  0.6483  0.6090
 
              Baa    -0.0153    -2.049    -0.731    -0.683  0.2704 -0.0054  0.9627
     7 C(13)  Bbb    -0.0047    -0.630    -0.225    -0.210  0.8645 -0.4387 -0.2452
              Bcc     0.0200     2.679     0.956     0.894  0.4237  0.8986 -0.1140
 
              Baa    -0.0251     1.814     0.647     0.605  0.5589 -0.4292  0.7095
     8 O(17)  Bbb    -0.0055     0.398     0.142     0.133  0.6698  0.7381 -0.0812
              Bcc     0.0306    -2.211    -0.789    -0.738 -0.4888  0.5206  0.7000
 
              Baa    -0.1587    11.483     4.097     3.830 -0.6411  0.7655  0.0546
     9 O(17)  Bbb    -0.1366     9.885     3.527     3.297  0.3927  0.2660  0.8803
              Bcc     0.2953   -21.368    -7.625    -7.128  0.6594  0.5859 -0.4712
 
              Baa    -0.0040    -2.108    -0.752    -0.703  0.7428  0.5353 -0.4022
    10 H(1)   Bbb    -0.0022    -1.168    -0.417    -0.390 -0.3128  0.8086  0.4984
              Bcc     0.0061     3.276     1.169     1.093  0.5920 -0.2443  0.7680
 
              Baa    -0.0035    -1.870    -0.667    -0.624  0.9801  0.1712 -0.1008
    11 H(1)   Bbb    -0.0024    -1.289    -0.460    -0.430 -0.0163  0.5750  0.8180
              Bcc     0.0059     3.159     1.127     1.054 -0.1980  0.8000 -0.5664
 
              Baa    -0.0035    -1.856    -0.662    -0.619  0.4573  0.8582  0.2333
    12 H(1)   Bbb    -0.0031    -1.662    -0.593    -0.554 -0.3058 -0.0947  0.9474
              Bcc     0.0066     3.518     1.255     1.173  0.8351 -0.5046  0.2191
 
              Baa    -0.0053    -2.835    -1.011    -0.945  0.8124 -0.2957  0.5026
    13 H(1)   Bbb    -0.0027    -1.466    -0.523    -0.489 -0.1915  0.6789  0.7089
              Bcc     0.0081     4.301     1.535     1.435  0.5508  0.6721 -0.4949
 
              Baa    -0.0074    -3.936    -1.404    -1.313 -0.3355  0.9415 -0.0322
    14 H(1)   Bbb    -0.0072    -3.821    -1.363    -1.275  0.8524  0.2888 -0.4359
              Bcc     0.0145     7.757     2.768     2.587  0.4011  0.1737  0.8994
 
              Baa    -0.0280   -14.954    -5.336    -4.988  0.7089 -0.4465  0.5459
    15 H(1)   Bbb    -0.0108    -5.776    -2.061    -1.927 -0.4377  0.3285  0.8370
              Bcc     0.0389    20.730     7.397     6.915  0.5530  0.8323 -0.0374
 
              Baa    -0.0096    -5.121    -1.827    -1.708  0.2847  0.8876 -0.3621
    16 H(1)   Bbb    -0.0072    -3.829    -1.366    -1.277  0.4392  0.2150  0.8723
              Bcc     0.0168     8.950     3.193     2.985  0.8521 -0.4073 -0.3286
 
              Baa    -0.0118    -6.312    -2.252    -2.106  0.5720  0.0384  0.8194
    17 H(1)   Bbb    -0.0103    -5.503    -1.964    -1.836 -0.6305  0.6596  0.4092
              Bcc     0.0221    11.816     4.216     3.941  0.5247  0.7507 -0.4015
 
              Baa    -0.0558   -29.755   -10.617    -9.925 -0.0181  0.8139 -0.5807
    18 H(1)   Bbb    -0.0322   -17.182    -6.131    -5.731  0.5877  0.4785  0.6524
              Bcc     0.0880    46.938    16.749    15.657  0.8089 -0.3295 -0.4870
 
              Baa    -0.0027    -1.434    -0.512    -0.478  0.3108 -0.3863  0.8684
    19 H(1)   Bbb    -0.0016    -0.847    -0.302    -0.282 -0.2105  0.8630  0.4593
              Bcc     0.0043     2.281     0.814     0.761  0.9269  0.3255 -0.1869
 

 ---------------------------------------------------------------------------------

   1 Symmetry operations used in ECPInt.
 ECPInt:  NShTT=    2775 NPrTT=   11173 LenC2=    2754 LenP2D=    8776.
 LDataN:  DoStor=T MaxTD1= 5 Len=  102
 Calling FoFJK, ICntrl=      2127 FMM=F ISym2X=0 I1Cent= 0 IOpClX= 1 NMat=1 NMatS=1 NMatT=0.

 GradGradGradGradGradGradGradGradGradGradGradGradGradGradGradGradGradGrad
 FormGI is forming the generalized inverse of G from B-inverse, IUseBI=4.
 Internal  Forces:  Max     0.019365648 RMS     0.006532529
 Step number   1 out of a maximum of   99
 All quantities printed in internal units (Hartrees-Bohrs-Radians)
 Mixed Optimization -- RFO/linear search
 Second derivative matrix not updated -- first step.
 ITU=  0
     Eigenvalues ---    0.00230   0.00230   0.00330   0.00490   0.00982
     Eigenvalues ---    0.01588   0.01764   0.02572   0.04593   0.04659
     Eigenvalues ---    0.04777   0.05226   0.05456   0.05572   0.05615
     Eigenvalues ---    0.05831   0.05928   0.11670   0.11768   0.14022
     Eigenvalues ---    0.14056   0.14879   0.15254   0.16000   0.16000
     Eigenvalues ---    0.16000   0.16000   0.16000   0.16000   0.22058
     Eigenvalues ---    0.22070   0.25000   0.25000   0.27804   0.28414
     Eigenvalues ---    0.29150   0.30280   0.32350   0.32842   0.33238
     Eigenvalues ---    0.33280   0.33364   0.33416   0.33527   0.44343
     Eigenvalues ---    0.46540   0.52398   0.52594   0.52658   0.58703
     Eigenvalues ---    1.00276
 Linear search not attempted -- first point.
 Iteration  1 RMS(Cart)=  0.12328575 RMS(Int)=  0.00732977
 Iteration  2 RMS(Cart)=  0.00911423 RMS(Int)=  0.00074247
 Iteration  3 RMS(Cart)=  0.00005783 RMS(Int)=  0.00074112
 Iteration  4 RMS(Cart)=  0.00000004 RMS(Int)=  0.00074112
 Variable       Old X    -DE/DX   Delta X   Delta X   Delta X     New X
                                 (Linear)    (Quad)   (Total)
    R1        2.89691  -0.00239   0.00000  -0.00758  -0.00758   2.88934
    R2        2.08562  -0.00064   0.00000  -0.00179  -0.00179   2.08383
    R3        2.08636  -0.00054   0.00000  -0.00151  -0.00151   2.08485
    R4        2.08135  -0.00010   0.00000  -0.00028  -0.00028   2.08108
    R5        2.91243  -0.00377   0.00000  -0.01225  -0.01225   2.90018
    R6        2.92568   0.01854   0.00000   0.06142   0.06142   2.98710
    R7        2.87408   0.00616   0.00000   0.01887   0.01887   2.89295
    R8        2.66046  -0.00868   0.00000  -0.01859  -0.01859   2.64188
    R9        2.08416  -0.00123   0.00000  -0.00344  -0.00344   2.08073
   R10        2.09330   0.00095   0.00000   0.00268   0.00268   2.09598
   R11        1.83974   0.01087   0.00000   0.01975   0.01975   1.85949
   R12        2.63527  -0.01746   0.00000  -0.03569  -0.03569   2.59958
   R13        2.08327  -0.00109   0.00000  -0.00304  -0.00304   2.08023
   R14        2.10209  -0.00020   0.00000  -0.00058  -0.00058   2.10151
   R15        1.84220   0.01937   0.00000   0.03536   0.03536   1.87756
   R16        2.51981  -0.01248   0.00000  -0.02043  -0.02043   2.49938
   R17        2.28528  -0.00684   0.00000  -0.00667  -0.00667   2.27862
   R18        1.84035   0.00437   0.00000   0.00796   0.00796   1.84831
    A1        1.94367  -0.00226   0.00000  -0.01554  -0.01560   1.92807
    A2        1.91790   0.00146   0.00000   0.01197   0.01198   1.92988
    A3        1.93966  -0.00059   0.00000  -0.00400  -0.00410   1.93556
    A4        1.88289   0.00063   0.00000   0.00487   0.00492   1.88781
    A5        1.88782   0.00021   0.00000  -0.00626  -0.00642   1.88140
    A6        1.89010   0.00063   0.00000   0.00963   0.00959   1.89970
    A7        1.91383   0.00780   0.00000   0.05886   0.05905   1.97288
    A8        1.91929   0.00353   0.00000   0.02288   0.02430   1.94359
    A9        1.93570  -0.00381   0.00000   0.00534   0.00452   1.94022
   A10        1.92252  -0.01221   0.00000  -0.09509  -0.09523   1.82729
   A11        1.89190   0.00191   0.00000   0.00804   0.00588   1.89778
   A12        1.88022   0.00245   0.00000  -0.00289  -0.00391   1.87631
   A13        1.98008  -0.01705   0.00000  -0.07602  -0.07685   1.90323
   A14        1.89504   0.00703   0.00000   0.04722   0.04802   1.94306
   A15        1.91191   0.00071   0.00000  -0.01657  -0.01845   1.89346
   A16        1.86196   0.00566   0.00000   0.03582   0.03698   1.89894
   A17        1.93375   0.00512   0.00000  -0.00247  -0.00532   1.92842
   A18        1.87736  -0.00049   0.00000   0.01972   0.01959   1.89695
   A19        1.85020   0.00664   0.00000   0.03615   0.03615   1.88635
   A20        1.97110  -0.00772   0.00000  -0.04127  -0.04238   1.92872
   A21        1.91018  -0.00257   0.00000  -0.00602  -0.00564   1.90454
   A22        1.87485   0.00158   0.00000  -0.00874  -0.01076   1.86408
   A23        1.87125   0.00760   0.00000   0.05535   0.05569   1.92695
   A24        1.95872  -0.00272   0.00000  -0.04835  -0.05019   1.90852
   A25        1.87538   0.00429   0.00000   0.05435   0.05476   1.93014
   A26        1.86598   0.01187   0.00000   0.06458   0.06458   1.93056
   A27        1.97621   0.00086   0.00000   0.00315   0.00315   1.97936
   A28        2.18109  -0.01632   0.00000  -0.05964  -0.05964   2.12145
   A29        2.12587   0.01546   0.00000   0.05647   0.05647   2.18234
   A30        1.87763   0.00713   0.00000   0.03882   0.03882   1.91645
    D1        1.02227   0.00516   0.00000   0.05516   0.05489   1.07716
    D2        3.13874  -0.00273   0.00000  -0.01044  -0.01017   3.12856
    D3       -1.06659   0.00017   0.00000   0.00396   0.00378  -1.06281
    D4       -1.06305   0.00486   0.00000   0.05116   0.05097  -1.01208
    D5        1.05342  -0.00304   0.00000  -0.01444  -0.01409   1.03932
    D6        3.13128  -0.00013   0.00000  -0.00005  -0.00014   3.13114
    D7        3.12836   0.00349   0.00000   0.03387   0.03370  -3.12112
    D8       -1.03836  -0.00440   0.00000  -0.03172  -0.03136  -1.06972
    D9        1.03950  -0.00149   0.00000  -0.01733  -0.01741   1.02209
   D10        3.12345   0.00272   0.00000   0.03676   0.03496  -3.12477
   D11        1.05666   0.00140   0.00000   0.00692   0.00640   1.06305
   D12       -0.98893  -0.00243   0.00000  -0.03446  -0.03461  -1.02354
   D13        1.00893   0.00111   0.00000   0.03117   0.03101   1.03994
   D14       -1.05786  -0.00021   0.00000   0.00133   0.00245  -1.05541
   D15       -3.10345  -0.00404   0.00000  -0.04005  -0.03855   3.14118
   D16       -1.04426   0.00396   0.00000   0.08390   0.08293  -0.96134
   D17       -3.11106   0.00264   0.00000   0.05406   0.05436  -3.05669
   D18        1.12654  -0.00119   0.00000   0.01268   0.01336   1.13990
   D19        3.01507   0.00491   0.00000   0.16452   0.16412  -3.10399
   D20        0.93197   0.00204   0.00000   0.12532   0.12526   1.05723
   D21       -1.09899  -0.00256   0.00000   0.06895   0.06931  -1.02969
   D22       -1.15686   0.00904   0.00000   0.19133   0.19051  -0.96635
   D23        3.04323   0.00617   0.00000   0.15213   0.15165  -3.08831
   D24        1.01226   0.00157   0.00000   0.09577   0.09570   1.10796
   D25        0.90354   0.00595   0.00000   0.14626   0.14639   1.04994
   D26       -1.17956   0.00308   0.00000   0.10706   0.10753  -1.07203
   D27        3.07266  -0.00152   0.00000   0.05070   0.05158   3.12424
   D28       -0.92198   0.00174   0.00000   0.02073   0.02047  -0.90151
   D29        2.22529   0.00181   0.00000   0.02349   0.02318   2.24847
   D30       -3.02390  -0.00676   0.00000  -0.06019  -0.06033  -3.08424
   D31        0.12337  -0.00669   0.00000  -0.05743  -0.05763   0.06574
   D32        1.17925   0.00534   0.00000   0.05011   0.05059   1.22984
   D33       -1.95667   0.00541   0.00000   0.05287   0.05330  -1.90337
   D34        1.18168  -0.00197   0.00000  -0.00271  -0.00197   1.17970
   D35       -3.01572   0.00047   0.00000   0.03490   0.03460  -2.98112
   D36       -0.97725   0.00585   0.00000   0.07778   0.07735  -0.89990
   D37        0.89621   0.00623   0.00000   0.14610   0.14754   1.04375
   D38        3.00166   0.00345   0.00000   0.15078   0.15076  -3.13076
   D39       -1.22623   0.01189   0.00000   0.22430   0.22288  -1.00335
   D40       -3.08764  -0.00077   0.00000  -0.01585  -0.01577  -3.10340
   D41        0.04848  -0.00095   0.00000  -0.01894  -0.01902   0.02946
         Item               Value     Threshold  Converged?
 Maximum Force            0.019366     0.000015     NO 
 RMS     Force            0.006533     0.000010     NO 
 Maximum Displacement     0.523744     0.000060     NO 
 RMS     Displacement     0.123378     0.000040     NO 
 GradGradGradGradGradGradGradGradGradGradGradGradGradGradGradGradGradGrad

                    Distance matrix (angstroms):
                    1          2          3          4          5
     1  C    0.000000
     2  C    1.528971   0.000000
     3  C    2.555315   1.534708   0.000000
     4  O    3.761470   2.389596   1.398022   0.000000
     5  C    2.568445   1.580708   2.466747   2.785629   0.000000
     6  O    3.770469   2.431995   2.775255   2.356593   1.375638
     7  C    2.524225   1.530884   2.491622   2.796128   2.509577
     8  O    2.857036   2.387839   3.688727   4.050276   2.988667
     9  O    3.505884   2.393592   2.689877   2.568270   3.360812
    10  H    1.102715   2.175550   2.829393   4.093258   3.532370
    11  H    1.103258   2.177268   2.802051   4.086217   2.811552
    12  H    1.101258   2.179870   3.510125   4.564708   2.829888
    13  H    2.836754   2.190192   1.101073   2.039374   2.702184
    14  H    2.778482   2.159877   1.109146   2.066461   3.448678
    15  H    4.007077   2.608370   1.943339   0.984001   3.211895
    16  H    2.809831   2.202375   3.435266   3.773020   1.100812
    17  H    2.765217   2.179848   2.679003   3.178132   1.112071
    18  H    4.016159   2.620398   2.369681   1.664960   1.960078
    19  H    3.774491   3.243742   4.383689   4.554071   3.826454
                    6          7          8          9         10
     6  O    0.000000
     7  C    2.878465   0.000000
     8  O    3.529393   1.322617   0.000000
     9  O    3.310709   1.205792   2.243771   0.000000
    10  H    4.595056   2.785417   3.179130   3.537589   0.000000
    11  H    4.065102   3.485976   3.885731   4.412046   1.786518
    12  H    4.100627   2.772723   2.566599   3.909232   1.780746
    13  H    3.111709   3.465092   4.549002   3.781706   3.220064
    14  H    3.803811   2.754966   3.960558   2.718681   2.598548
    15  H    2.724782   2.439267   3.699288   1.835853   4.200720
    16  H    2.039646   2.743933   2.699717   3.764274   3.822677
    17  H    2.035404   3.457638   3.976321   4.279058   3.772298
    18  H    0.993562   3.204434   4.127767   3.386769   4.721648
    19  H    4.133316   1.892764   0.978081   2.347415   3.946136
                   11         12         13         14         15
    11  H    0.000000
    12  H    1.792993   0.000000
    13  H    2.635807   3.837051   0.000000
    14  H    3.121289   3.790511   1.795867   0.000000
    15  H    4.554646   4.714535   2.850060   2.262985   0.000000
    16  H    3.162707   2.623941   3.729417   4.308140   4.034460
    17  H    2.549819   3.146732   2.440191   3.691656   3.847453
    18  H    4.207384   4.573232   2.603270   3.397926   2.263504
    19  H    4.830570   3.477275   5.331973   4.552179   4.016923
                   16         17         18         19
    16  H    0.000000
    17  H    1.819199   0.000000
    18  H    2.880452   2.302450   0.000000
    19  H    3.521132   4.867009   4.713745   0.000000
 Framework group  C1[X(C5H10O4)]
 Deg. of freedom    51
                         Standard orientation:                         
 ---------------------------------------------------------------------
 Center     Atomic      Atomic             Coordinates (Angstroms)
 Number     Number       Type             X           Y           Z
 ---------------------------------------------------------------------
      1          6           0       -0.996319    1.715542   -0.851393
      2          6           0       -0.139216    0.587802   -0.275780
      3          6           0        1.048582    0.217640   -1.174358
      4          8           0        1.759070   -0.830863   -0.582485
      5          6           0        0.514750    1.006956    1.100910
      6          8           0        1.319411   -0.001192    1.578968
      7          6           0       -0.975999   -0.669235   -0.024269
      8          8           0       -2.067133   -0.440446    0.687348
      9          8           0       -0.635886   -1.747736   -0.442712
     10          1           0       -1.434200    1.412703   -1.817069
     11          1           0       -0.386254    2.619415   -1.018758
     12          1           0       -1.824457    1.966445   -0.170215
     13          1           0        1.727931    1.073036   -1.312723
     14          1           0        0.657329   -0.089425   -2.165740
     15          1           0        1.189705   -1.633238   -0.599114
     16          1           0       -0.282909    1.236851    1.823873
     17          1           0        1.133632    1.909109    0.901395
     18          1           0        2.046545   -0.204386    0.933094
     19          1           0       -2.541808   -1.280846    0.845635
 ---------------------------------------------------------------------
 Rotational constants (GHZ):           1.9634385           1.5405798           1.4084970
   146 basis functions,   265 primitive gaussians,   155 cartesian basis functions
    36 alpha electrons       35 beta electrons
       nuclear repulsion energy       522.7137973120 Hartrees.
 NAtoms=   19 NActive=   19 NUniq=   19 SFac= 1.00D+00 NAtFMM=   60 NAOKFM=F Big=F
 Nuclear repulsion after empirical dispersion term =      522.7016939124 Hartrees.
   1 Symmetry operations used in ECPInt.
 ECPInt:  NShTT=    2775 NPrTT=   11173 LenC2=    2756 LenP2D=    8801.
 LDataN:  DoStor=T MaxTD1= 4 Len=   56
 Initial guess from the checkpoint file:  "35.chk"
 B after Tr=    -0.000000   -0.000000    0.000000
         Rot=    0.997695   -0.023095   -0.063545    0.005709 Ang=  -7.78 deg.
 Initial guess <Sx>= 0.0000 <Sy>= 0.0000 <Sz>= 0.5000 <S**2>= 0.7550 S= 0.5025
 ExpMin= 1.22D-01 ExpMax= 2.27D+03 ExpMxC= 3.41D+02 IAcc=3 IRadAn=         5 AccDes= 0.00D+00
 Harris functional with IExCor= 4639 and IRadAn=       5 diagonalized for initial guess.
 HarFok:  IExCor= 4639 AccDes= 0.00D+00 IRadAn=         5 IDoV= 1 UseB2=F ITyADJ=14
 ICtDFT=  3500011 ScaDFX=  1.000000  1.000000  1.000000  1.000000
 FoFCou: FMM=F IPFlag=           0 FMFlag=      100000 FMFlg1=           0
         NFxFlg=           0 DoJE=T BraDBF=F KetDBF=T FulRan=T
         wScrn=  0.000000 ICntrl=       500 IOpCl=  0 I1Cent=   200000004 NGrid=           0
         NMat0=    1 NMatS0=      1 NMatT0=    0 NMatD0=    1 NMtDS0=    0 NMtDT0=    0
 Petite list used in FoFCou.
     Minimum is close to point  4 DX=  3.42D-03 DF= -2.04D-07 DXR=  2.84D-03 DFR=  8.07D-06 which will be used.
     Accept linear search using points  1 and  2.
     Minimum is close to point  2 DX= -3.07D-03 DF= -2.37D-08 DXR=  3.08D-03 DFR=  9.48D-06 which will be used.
     Accept linear search using points  1 and  2.
     Minimum is close to point  2 DX= -6.20D-02 DF= -5.53D-06 DXR=  7.40D-02 DFR=  4.51D-03 which will be used.
     Accept linear search using points  1 and  2.
     Minimum is close to point  2 DX= -5.53D-03 DF= -2.04D-08 DXR=  6.18D-03 DFR=  3.05D-05 which will be used.
     Minimum is close to point  2 DX=  6.13D-02 DF= -1.64D-06 DXR=  6.38D-02 DFR=  4.08D-03 which will be used.
     Accept linear search using points  1 and  2.
     Minimum is close to point  2 DX=  8.22D-02 DF= -8.60D-07 DXR=  7.59D-02 DFR=  5.80D-03 which will be used.
     Minimum is close to point  2 DX=  6.64D-03 DF= -5.22D-09 DXR=  6.60D-03 DFR=  4.35D-05 which will be used.
     Accept linear search using points  1 and  2.
     Minimum is close to point  2 DX= -5.44D-02 DF= -3.36D-07 DXR=  5.75D-02 DFR=  3.32D-03 which will be used.
     Accept linear search using points  1 and  2.
     Accept linear search using points  1 and  2.
     Minimum is close to point  2 DX=  5.90D-02 DF= -1.97D-07 DXR=  5.57D-02 DFR=  3.11D-03 which will be used.
     Accept linear search using points  1 and  2.
     Minimum is close to point  2 DX= -8.69D-03 DF= -4.41D-09 DXR=  8.77D-03 DFR=  7.68D-05 which will be used.
     Accept linear search using points  1 and  2.
     Minimum is close to point  2 DX= -6.99D-02 DF= -2.98D-07 DXR=  7.51D-02 DFR=  5.68D-03 which will be used.
     Accept linear search using points  1 and  2.
     Accept linear search using points  1 and  2.
     Minimum is close to point  2 DX= -3.74D-02 DF= -1.31D-06 DXR=  3.89D-02 DFR=  1.57D-03 which will be used.
     Minimum is close to point  2 DX=  2.94D-04 DF= -1.25D-12 DXR=  2.94D-04 DFR=  8.91D-08 which will be used.
 SCF Done:  E(UwB97XD) =  -496.558243354     a.u. after   22 cycles
            Convg  =    0.1454D-08                    91 Fock formations.
              S**2 =  0.7552                  -V/T =  2.0079
 <Sx>= 0.0000 <Sy>= 0.0000 <Sz>= 0.5000 <S**2>= 0.7552 S= 0.5026
 <L.S>=  0.00000000000    
 Annihilation of the first spin contaminant:
 S**2 before annihilation     0.7552,   after     0.7500
   1 Symmetry operations used in ECPInt.
 ECPInt:  NShTT=    2775 NPrTT=   11173 LenC2=    2756 LenP2D=    8801.
 LDataN:  DoStor=T MaxTD1= 5 Len=  102
 Calling FoFJK, ICntrl=      2127 FMM=F ISym2X=0 I1Cent= 0 IOpClX= 1 NMat=1 NMatS=1 NMatT=0.

 GradGradGradGradGradGradGradGradGradGradGradGradGradGradGradGradGradGrad
 Using GEDIIS/GDIIS optimizer.
 FormGI is forming the generalized inverse of G from B-inverse, IUseBI=4.
 Internal  Forces:  Max     0.021997586 RMS     0.005016057
 Step number   2 out of a maximum of   99
 All quantities printed in internal units (Hartrees-Bohrs-Radians)
 Mixed Optimization -- RFO/linear search
 Trust test= 7.70D-01 RLast= 5.89D-01 DXMaxT set to 5.05D-01
 ITU=  1  0
 Use linear search instead of GDIIS.
     Eigenvalues ---    0.00230   0.00294   0.00330   0.00490   0.01042
     Eigenvalues ---    0.01581   0.01690   0.02570   0.04395   0.04780
     Eigenvalues ---    0.05024   0.05377   0.05523   0.05597   0.05818
     Eigenvalues ---    0.06031   0.07627   0.11068   0.11367   0.13293
     Eigenvalues ---    0.13821   0.14463   0.14683   0.15878   0.16000
     Eigenvalues ---    0.16000   0.16000   0.16000   0.16349   0.22082
     Eigenvalues ---    0.23521   0.24632   0.25421   0.27845   0.29125
     Eigenvalues ---    0.30106   0.32287   0.32837   0.33237   0.33276
     Eigenvalues ---    0.33359   0.33404   0.33527   0.36502   0.44037
     Eigenvalues ---    0.45870   0.51007   0.52580   0.52789   0.58298
     Eigenvalues ---    1.00380
 Quartic linear search produced a step of -0.09683.
 Iteration  1 RMS(Cart)=  0.08236293 RMS(Int)=  0.00641886
 Iteration  2 RMS(Cart)=  0.00689775 RMS(Int)=  0.00030910
 Iteration  3 RMS(Cart)=  0.00010016 RMS(Int)=  0.00029169
 Iteration  4 RMS(Cart)=  0.00000003 RMS(Int)=  0.00029169
 Variable       Old X    -DE/DX   Delta X   Delta X   Delta X     New X
                                 (Linear)    (Quad)   (Total)
    R1        2.88934  -0.00317   0.00073  -0.01226  -0.01153   2.87781
    R2        2.08383   0.00024   0.00017  -0.00023  -0.00006   2.08377
    R3        2.08485  -0.00021   0.00015  -0.00120  -0.00105   2.08380
    R4        2.08108  -0.00008   0.00003  -0.00032  -0.00029   2.08079
    R5        2.90018   0.01355   0.00119   0.03298   0.03416   2.93434
    R6        2.98710   0.01589  -0.00595   0.07416   0.06821   3.05531
    R7        2.89295   0.00670  -0.00183   0.02653   0.02470   2.91765
    R8        2.64188  -0.00159   0.00180  -0.01134  -0.00954   2.63234
    R9        2.08073  -0.00064   0.00033  -0.00312  -0.00279   2.07794
   R10        2.09598  -0.00016  -0.00026   0.00083   0.00057   2.09656
   R11        1.85949   0.00641  -0.00191   0.01892   0.01701   1.87650
   R12        2.59958  -0.00172   0.00346  -0.01916  -0.01571   2.58387
   R13        2.08023   0.00040   0.00029  -0.00041  -0.00011   2.08012
   R14        2.10151  -0.00273   0.00006  -0.00712  -0.00706   2.09445
   R15        1.87756   0.00252  -0.00342   0.01991   0.01649   1.89405
   R16        2.49938  -0.00875   0.00198  -0.02149  -0.01951   2.47988
   R17        2.27862   0.00294   0.00065  -0.00056   0.00009   2.27871
   R18        1.84831   0.00022  -0.00077   0.00394   0.00317   1.85147
    A1        1.92807  -0.00116   0.00151  -0.01424  -0.01276   1.91532
    A2        1.92988   0.00084  -0.00116   0.01152   0.01037   1.94025
    A3        1.93556  -0.00029   0.00040  -0.00387  -0.00353   1.93203
    A4        1.88781   0.00035  -0.00048   0.00506   0.00461   1.89242
    A5        1.88140   0.00021   0.00062  -0.00563  -0.00510   1.87630
    A6        1.89970   0.00007  -0.00093   0.00722   0.00628   1.90597
    A7        1.97288  -0.00497  -0.00572  -0.00510  -0.01072   1.96216
    A8        1.94359  -0.00376  -0.00235  -0.02631  -0.02883   1.91476
    A9        1.94022   0.00129  -0.00044  -0.00832  -0.00881   1.93142
   A10        1.82729   0.00695   0.00922   0.00666   0.01553   1.84282
   A11        1.89778   0.00231  -0.00057   0.03607   0.03564   1.93343
   A12        1.87631  -0.00134   0.00038  -0.00090  -0.00112   1.87519
   A13        1.90323   0.02200   0.00744   0.04841   0.05563   1.95886
   A14        1.94306  -0.00288  -0.00465   0.02133   0.01606   1.95912
   A15        1.89346  -0.00650   0.00179  -0.03668  -0.03414   1.85932
   A16        1.89894  -0.00831  -0.00358  -0.00683  -0.01177   1.88718
   A17        1.92842  -0.00705   0.00052  -0.03145  -0.03011   1.89832
   A18        1.89695   0.00254  -0.00190   0.00451   0.00258   1.89953
   A19        1.88635  -0.00168  -0.00350   0.00845   0.00495   1.89130
   A20        1.92872   0.01248   0.00410   0.02471   0.02824   1.95696
   A21        1.90454  -0.00625   0.00055  -0.05170  -0.05136   1.85318
   A22        1.86408  -0.00249   0.00104   0.00669   0.00715   1.87123
   A23        1.92695  -0.00802  -0.00539  -0.04045  -0.04598   1.88097
   A24        1.90852   0.00170   0.00486   0.02594   0.03030   1.93883
   A25        1.93014   0.00292  -0.00530   0.03684   0.03187   1.96201
   A26        1.93056   0.01009  -0.00625   0.07945   0.07320   2.00376
   A27        1.97936  -0.00439  -0.00031  -0.01263  -0.01304   1.96632
   A28        2.12145   0.00832   0.00577  -0.00040   0.00527   2.12672
   A29        2.18234  -0.00393  -0.00547   0.01323   0.00766   2.19000
   A30        1.91645   0.00139  -0.00376   0.02479   0.02103   1.93748
    D1        1.07716  -0.00038  -0.00532   0.04086   0.03543   1.11259
    D2        3.12856   0.00260   0.00098   0.02797   0.02894  -3.12568
    D3       -1.06281  -0.00075  -0.00037   0.00359   0.00326  -1.05955
    D4       -1.01208  -0.00060  -0.00494   0.03632   0.03131  -0.98077
    D5        1.03932   0.00238   0.00136   0.02343   0.02482   1.06415
    D6        3.13114  -0.00097   0.00001  -0.00095  -0.00085   3.13029
    D7       -3.12112  -0.00106  -0.00326   0.02208   0.01875  -3.10237
    D8       -1.06972   0.00192   0.00304   0.00920   0.01227  -1.05746
    D9        1.02209  -0.00143   0.00169  -0.01519  -0.01341   1.00868
   D10       -3.12477  -0.00081  -0.00339  -0.00821  -0.01100  -3.13577
   D11        1.06305  -0.00301  -0.00062  -0.04457  -0.04550   1.01755
   D12       -1.02354  -0.00025   0.00335  -0.03962  -0.03639  -1.05992
   D13        1.03994   0.00203  -0.00300   0.02253   0.02018   1.06013
   D14       -1.05541  -0.00016  -0.00024  -0.01382  -0.01432  -1.06974
   D15        3.14118   0.00260   0.00373  -0.00888  -0.00521   3.13597
   D16       -0.96134  -0.00089  -0.00803   0.00424  -0.00341  -0.96475
   D17       -3.05669  -0.00308  -0.00526  -0.03211  -0.03792  -3.09461
   D18        1.13990  -0.00032  -0.00129  -0.02717  -0.02880   1.11110
   D19       -3.10399  -0.00427  -0.01589   0.00858  -0.00727  -3.11126
   D20        1.05723   0.00182  -0.01213   0.07685   0.06474   1.12196
   D21       -1.02969   0.00317  -0.00671   0.05732   0.05084  -0.97885
   D22       -0.96635  -0.00801  -0.01845  -0.00812  -0.02660  -0.99295
   D23       -3.08831  -0.00192  -0.01468   0.06015   0.04540  -3.04291
   D24        1.10796  -0.00057  -0.00927   0.04062   0.03150   1.13946
   D25        1.04994  -0.00267  -0.01417   0.03568   0.02135   1.07128
   D26       -1.07203   0.00343  -0.01041   0.10395   0.09335  -0.97868
   D27        3.12424   0.00477  -0.00499   0.08443   0.07945  -3.07949
   D28       -0.90151   0.00041  -0.00198   0.02041   0.01848  -0.88302
   D29        2.24847  -0.00026  -0.00224  -0.00528  -0.00744   2.24103
   D30       -3.08424   0.00420   0.00584   0.00696   0.01279  -3.07145
   D31        0.06574   0.00353   0.00558  -0.01873  -0.01314   0.05260
   D32        1.22984  -0.00432  -0.00490  -0.01783  -0.02280   1.20704
   D33       -1.90337  -0.00500  -0.00516  -0.04351  -0.04873  -1.95209
   D34        1.17970  -0.00211   0.00019  -0.03869  -0.03868   1.14102
   D35       -2.98112   0.00273  -0.00335   0.01282   0.00927  -2.97185
   D36       -0.89990  -0.00353  -0.00749  -0.00474  -0.01186  -0.91176
   D37        1.04375   0.00733  -0.01429   0.24815   0.23407   1.27782
   D38       -3.13076   0.00242  -0.01460   0.17298   0.15870  -2.97206
   D39       -1.00335   0.00200  -0.02158   0.20985   0.18775  -0.81560
   D40       -3.10340  -0.00096   0.00153  -0.03559  -0.03410  -3.13750
   D41        0.02946  -0.00019   0.00184  -0.00895  -0.00707   0.02239
         Item               Value     Threshold  Converged?
 Maximum Force            0.021998     0.000015     NO 
 RMS     Force            0.005016     0.000010     NO 
 Maximum Displacement     0.473201     0.000060     NO 
 RMS     Displacement     0.085106     0.000040     NO 
 GradGradGradGradGradGradGradGradGradGradGradGradGradGradGradGradGradGrad

                    Distance matrix (angstroms):
                    1          2          3          4          5
     1  C    0.000000
     2  C    1.522871   0.000000
     3  C    2.556228   1.552787   0.000000
     4  O    3.788690   2.447132   1.392974   0.000000
     5  C    2.567834   1.616802   2.524731   2.906305   0.000000
     6  O    3.779914   2.479694   2.875618   2.557014   1.367327
     7  C    2.522345   1.543955   2.548695   2.920624   2.548372
     8  O    2.828111   2.380591   3.720731   4.168056   2.989730
     9  O    3.504046   2.408910   2.765141   2.718256   3.421377
    10  H    1.102684   2.160870   2.829795   4.105531   3.536840
    11  H    1.102702   2.178962   2.791469   4.091401   2.817394
    12  H    1.101104   2.171834   3.513938   4.609008   2.806416
    13  H    2.830993   2.216588   1.099597   2.025490   2.777667
    14  H    2.765534   2.149974   1.109449   2.040973   3.488909
    15  H    4.047886   2.661740   1.948840   0.993002   3.315274
    16  H    2.792310   2.194887   3.461307   3.867514   1.100752
    17  H    2.743327   2.214285   2.759151   3.308214   1.108334
    18  H    4.171861   2.833465   2.664040   2.060559   2.006027
    19  H    3.743800   3.251643   4.443832   4.716303   3.848872
                    6          7          8          9         10
     6  O    0.000000
     7  C    2.952674   0.000000
     8  O    3.559491   1.312294   0.000000
     9  O    3.433468   1.205840   2.238971   0.000000
    10  H    4.619714   2.766052   3.134018   3.513967   0.000000
    11  H    4.073372   3.492232   3.861332   4.421105   1.789022
    12  H    4.079606   2.756410   2.522803   3.891519   1.777281
    13  H    3.224592   3.519809   4.574374   3.856569   3.210820
    14  H    3.895113   2.773173   3.957433   2.752833   2.583785
    15  H    2.892961   2.569907   3.833985   2.002054   4.227921
    16  H    2.000004   2.691355   2.611780   3.725771   3.789033
    17  H    2.046570   3.492793   3.951865   4.352168   3.767334
    18  H    1.002288   3.475975   4.317659   3.738035   4.929584
    19  H    4.202504   1.898411   0.979758   2.364466   3.892738
                   11         12         13         14         15
    11  H    0.000000
    12  H    1.796430   0.000000
    13  H    2.617593   3.835237   0.000000
    14  H    3.105452   3.776928   1.796578   0.000000
    15  H    4.575140   4.772414   2.848804   2.243659   0.000000
    16  H    3.185840   2.581808   3.795742   4.300771   4.100212
    17  H    2.535384   3.086095   2.555456   3.759534   3.957143
    18  H    4.321520   4.680119   2.847299   3.711539   2.619804
    19  H    4.805020   3.420869   5.383080   4.572232   4.201039
                   16         17         18         19
    16  H    0.000000
    17  H    1.835883   0.000000
    18  H    2.883949   2.321340   0.000000
    19  H    3.439341   4.864485   4.952250   0.000000
 Framework group  C1[X(C5H10O4)]
 Deg. of freedom    51
                         Standard orientation:                         
 ---------------------------------------------------------------------
 Center     Atomic      Atomic             Coordinates (Angstroms)
 Number     Number       Type             X           Y           Z
 ---------------------------------------------------------------------
      1          6           0       -0.919844    1.561383   -1.128914
      2          6           0       -0.115322    0.512061   -0.373398
      3          6           0        1.092666   -0.013313   -1.195524
      4          8           0        1.821362   -0.978141   -0.503797
      5          6           0        0.519721    1.168317    0.960804
      6          8           0        1.285752    0.276468    1.658933
      7          6           0       -1.023599   -0.654367    0.071882
      8          8           0       -2.101715   -0.245040    0.698168
      9          8           0       -0.746523   -1.803463   -0.166567
     10          1           0       -1.366686    1.110208   -2.030404
     11          1           0       -0.281075    2.404302   -1.441023
     12          1           0       -1.743981    1.942693   -0.506152
     13          1           0        1.781583    0.793313   -1.485112
     14          1           0        0.673359   -0.473199   -2.113981
     15          1           0        1.244040   -1.776380   -0.379032
     16          1           0       -0.331670    1.451335    1.598527
     17          1           0        1.118726    2.044689    0.642101
     18          1           0        2.170759    0.063511    1.239414
     19          1           0       -2.657802   -1.003553    0.972667
 ---------------------------------------------------------------------
 Rotational constants (GHZ):           1.9021660           1.4738109           1.3699694
   146 basis functions,   265 primitive gaussians,   155 cartesian basis functions
    36 alpha electrons       35 beta electrons
       nuclear repulsion energy       515.5809949458 Hartrees.
 NAtoms=   19 NActive=   19 NUniq=   19 SFac= 1.00D+00 NAtFMM=   60 NAOKFM=F Big=F
 Nuclear repulsion after empirical dispersion term =      515.5688619545 Hartrees.
   1 Symmetry operations used in ECPInt.
 ECPInt:  NShTT=    2775 NPrTT=   11173 LenC2=    2756 LenP2D=    8781.
 LDataN:  DoStor=T MaxTD1= 4 Len=   56
 Initial guess from the checkpoint file:  "35.chk"
 B after Tr=    -0.000000    0.000000   -0.000000
         Rot=    0.996503    0.081831    0.010174    0.013477 Ang=   9.59 deg.
 Initial guess <Sx>= 0.0000 <Sy>= 0.0000 <Sz>= 0.5000 <S**2>= 0.7552 S= 0.5026
 ExpMin= 1.22D-01 ExpMax= 2.27D+03 ExpMxC= 3.41D+02 IAcc=3 IRadAn=         5 AccDes= 0.00D+00
 Harris functional with IExCor= 4639 and IRadAn=       5 diagonalized for initial guess.
 HarFok:  IExCor= 4639 AccDes= 0.00D+00 IRadAn=         5 IDoV= 1 UseB2=F ITyADJ=14
 ICtDFT=  3500011 ScaDFX=  1.000000  1.000000  1.000000  1.000000
 FoFCou: FMM=F IPFlag=           0 FMFlag=      100000 FMFlg1=           0
         NFxFlg=           0 DoJE=T BraDBF=F KetDBF=T FulRan=T
         wScrn=  0.000000 ICntrl=       500 IOpCl=  0 I1Cent=   200000004 NGrid=           0
         NMat0=    1 NMatS0=      1 NMatT0=    0 NMatD0=    1 NMtDS0=    0 NMtDT0=    0
 Petite list used in FoFCou.
     Minimum is close to point  4 DX=  1.25D-02 DF= -1.26D-06 DXR=  1.03D-02 DFR=  1.07D-04 which will be used.
     Accept linear search using points  2 and  3.
     Minimum is close to point  2 DX=  3.05D-02 DF= -1.04D-06 DXR=  2.96D-02 DFR=  8.80D-04 which will be used.
     Accept linear search using points  1 and  2.
     Minimum is close to point  2 DX= -7.96D-02 DF= -4.47D-06 DXR=  8.65D-02 DFR=  7.53D-03 which will be used.
     Accept linear search using points  1 and  2.
     Accept linear search using points  1 and  2.
     Accept linear search using points  1 and  2.
     Accept linear search using points  1 and  2.
     Accept linear search using points  1 and  2.
     Minimum is close to point  2 DX= -1.56D-04 DF= -1.11D-11 DXR=  1.56D-04 DFR=  2.44D-08 which will be used.
     Accept linear search using points  1 and  2.
     Minimum is close to point  2 DX= -2.61D-05 DF=  0.00D+00 DXR=  2.61D-05 DFR=  0.00D+00 which will be used.
 SCF Done:  E(UwB97XD) =  -496.561938197     a.u. after   14 cycles
            Convg  =    0.1377D-06                    65 Fock formations.
              S**2 =  0.7553                  -V/T =  2.0083
 <Sx>= 0.0000 <Sy>= 0.0000 <Sz>= 0.5000 <S**2>= 0.7553 S= 0.5027
 <L.S>=  0.00000000000    
 Annihilation of the first spin contaminant:
 S**2 before annihilation     0.7553,   after     0.7500
   1 Symmetry operations used in ECPInt.
 ECPInt:  NShTT=    2775 NPrTT=   11173 LenC2=    2756 LenP2D=    8781.
 LDataN:  DoStor=T MaxTD1= 5 Len=  102
 Calling FoFJK, ICntrl=      2127 FMM=F ISym2X=0 I1Cent= 0 IOpClX= 1 NMat=1 NMatS=1 NMatT=0.

 GradGradGradGradGradGradGradGradGradGradGradGradGradGradGradGradGradGrad
 Using GEDIIS/GDIIS optimizer.
 FormGI is forming the generalized inverse of G from B-inverse, IUseBI=4.
 Internal  Forces:  Max     0.016624371 RMS     0.003764388
 Step number   3 out of a maximum of   99
 All quantities printed in internal units (Hartrees-Bohrs-Radians)
 Mixed Optimization -- RFO/linear search
 Trust test= 5.95D-01 RLast= 4.34D-01 DXMaxT set to 8.49D-01
 ITU=  1  1  0
 Use linear search instead of GDIIS.
     Eigenvalues ---    0.00221   0.00296   0.00330   0.00490   0.01050
     Eigenvalues ---    0.01341   0.01726   0.02570   0.04264   0.04745
     Eigenvalues ---    0.05073   0.05217   0.05484   0.05689   0.05879
     Eigenvalues ---    0.06110   0.07952   0.10858   0.11776   0.13543
     Eigenvalues ---    0.13922   0.14721   0.14836   0.15982   0.16000
     Eigenvalues ---    0.16000   0.16000   0.16010   0.16474   0.22149
     Eigenvalues ---    0.24015   0.24719   0.25421   0.27722   0.29122
     Eigenvalues ---    0.30079   0.32319   0.32811   0.33236   0.33280
     Eigenvalues ---    0.33359   0.33415   0.33527   0.41794   0.45601
     Eigenvalues ---    0.46787   0.52466   0.52596   0.57634   0.65206
     Eigenvalues ---    1.00437
 Quartic linear search produced a step of -0.20493.
 Iteration  1 RMS(Cart)=  0.07669798 RMS(Int)=  0.00348879
 Iteration  2 RMS(Cart)=  0.00437026 RMS(Int)=  0.00027140
 Iteration  3 RMS(Cart)=  0.00001453 RMS(Int)=  0.00027104
 Iteration  4 RMS(Cart)=  0.00000000 RMS(Int)=  0.00027104
 Variable       Old X    -DE/DX   Delta X   Delta X   Delta X     New X
                                 (Linear)    (Quad)   (Total)
    R1        2.87781   0.00009   0.00236  -0.00749  -0.00513   2.87268
    R2        2.08377   0.00071   0.00001   0.00164   0.00166   2.08543
    R3        2.08380  -0.00007   0.00022  -0.00080  -0.00058   2.08322
    R4        2.08079  -0.00003   0.00006  -0.00026  -0.00020   2.08059
    R5        2.93434  -0.00956  -0.00700   0.00032  -0.00668   2.92766
    R6        3.05531  -0.00503  -0.01398   0.03118   0.01720   3.07251
    R7        2.91765  -0.00578  -0.00506   0.00229  -0.00278   2.91488
    R8        2.63234  -0.00719   0.00195  -0.01771  -0.01575   2.61659
    R9        2.07794   0.00016   0.00057  -0.00142  -0.00085   2.07709
   R10        2.09656   0.00192  -0.00012   0.00455   0.00443   2.10099
   R11        1.87650  -0.00476  -0.00349   0.00429   0.00081   1.87731
   R12        2.58387  -0.00414   0.00322  -0.01568  -0.01246   2.57141
   R13        2.08012   0.00103   0.00002   0.00240   0.00242   2.08254
   R14        2.09445  -0.00185   0.00145  -0.00921  -0.00776   2.08669
   R15        1.89405  -0.01662  -0.00338  -0.01385  -0.01723   1.87682
   R16        2.47988   0.00185   0.00400  -0.01044  -0.00644   2.47344
   R17        2.27871  -0.00025  -0.00002   0.00026   0.00024   2.27895
   R18        1.85147  -0.00165  -0.00065  -0.00054  -0.00119   1.85029
    A1        1.91532   0.00120   0.00261  -0.00183   0.00079   1.91610
    A2        1.94025   0.00006  -0.00213   0.00640   0.00427   1.94452
    A3        1.93203   0.00005   0.00072  -0.00226  -0.00153   1.93051
    A4        1.89242  -0.00054  -0.00095   0.00102   0.00006   1.89248
    A5        1.87630  -0.00069   0.00104  -0.00576  -0.00469   1.87161
    A6        1.90597  -0.00012  -0.00129   0.00210   0.00082   1.90679
    A7        1.96216   0.00353   0.00220   0.01023   0.01262   1.97478
    A8        1.91476   0.00285   0.00591   0.00905   0.01500   1.92976
    A9        1.93142   0.00120   0.00180   0.02463   0.02646   1.95788
   A10        1.84282  -0.00599  -0.00318  -0.03419  -0.03748   1.80534
   A11        1.93343  -0.00281  -0.00730  -0.00974  -0.01754   1.91588
   A12        1.87519   0.00087   0.00023  -0.00309  -0.00357   1.87162
   A13        1.95886  -0.00904  -0.01140   0.01225   0.00091   1.95977
   A14        1.95912   0.00169  -0.00329   0.00545   0.00226   1.96138
   A15        1.85932  -0.00123   0.00700  -0.03031  -0.02342   1.83590
   A16        1.88718   0.00267   0.00241  -0.00985  -0.00719   1.87999
   A17        1.89832   0.00589   0.00617   0.01283   0.01888   1.91720
   A18        1.89953   0.00038  -0.00053   0.01023   0.00968   1.90921
   A19        1.89130  -0.00171  -0.00101  -0.00699  -0.00800   1.88329
   A20        1.95696  -0.01339  -0.00579  -0.02226  -0.02848   1.92848
   A21        1.85318   0.00089   0.01052  -0.04499  -0.03539   1.81779
   A22        1.87123   0.00106  -0.00146   0.00597   0.00484   1.87607
   A23        1.88097   0.00392   0.00942  -0.02963  -0.02175   1.85922
   A24        1.93883   0.00710  -0.00621   0.06200   0.05601   1.99484
   A25        1.96201  -0.00027  -0.00653   0.02433   0.01772   1.97974
   A26        2.00376  -0.00481  -0.01500   0.02484   0.00984   2.01359
   A27        1.96632   0.00162   0.00267  -0.00445  -0.00213   1.96419
   A28        2.12672  -0.00194  -0.00108   0.00224   0.00081   2.12753
   A29        2.19000   0.00034  -0.00157   0.00294   0.00102   2.19102
   A30        1.93748  -0.00161  -0.00431   0.00462   0.00031   1.93779
    D1        1.11259   0.00135  -0.00726   0.03855   0.03140   1.14399
    D2       -3.12568  -0.00208  -0.00593   0.00816   0.00217  -3.12352
    D3       -1.05955   0.00150  -0.00067   0.02504   0.02434  -1.03521
    D4       -0.98077   0.00120  -0.00642   0.03440   0.02808  -0.95268
    D5        1.06415  -0.00223  -0.00509   0.00401  -0.00115   1.06299
    D6        3.13029   0.00135   0.00017   0.02089   0.02102  -3.13188
    D7       -3.10237   0.00128  -0.00384   0.02892   0.02518  -3.07719
    D8       -1.05746  -0.00215  -0.00251  -0.00147  -0.00405  -1.06151
    D9        1.00868   0.00143   0.00275   0.01541   0.01812   1.02680
   D10       -3.13577  -0.00219   0.00225  -0.13525  -0.13306   3.01435
   D11        1.01755  -0.00025   0.00932  -0.13542  -0.12600   0.89155
   D12       -1.05992  -0.00089   0.00746  -0.13182  -0.12432  -1.18425
   D13        1.06013  -0.00383  -0.00414  -0.13029  -0.13436   0.92577
   D14       -1.06974  -0.00189   0.00294  -0.13047  -0.12729  -1.19703
   D15        3.13597  -0.00253   0.00107  -0.12687  -0.12562   3.01036
   D16       -0.96475  -0.00012   0.00070  -0.10274  -0.10232  -1.06707
   D17       -3.09461   0.00182   0.00777  -0.10291  -0.09525   3.09332
   D18        1.11110   0.00118   0.00590  -0.09931  -0.09358   1.01752
   D19       -3.11126  -0.00019   0.00149  -0.04786  -0.04595   3.12598
   D20        1.12196   0.00174  -0.01327   0.02726   0.01360   1.13557
   D21       -0.97885   0.00104  -0.01042   0.01956   0.00911  -0.96974
   D22       -0.99295   0.00205   0.00545  -0.05087  -0.04507  -1.03802
   D23       -3.04291   0.00398  -0.00930   0.02426   0.01449  -3.02842
   D24        1.13946   0.00328  -0.00646   0.01656   0.00999   1.14946
   D25        1.07128  -0.00380  -0.00437  -0.08094  -0.08482   0.98646
   D26       -0.97868  -0.00187  -0.01913  -0.00582  -0.02526  -1.00394
   D27       -3.07949  -0.00257  -0.01628  -0.01352  -0.02976  -3.10925
   D28       -0.88302  -0.00106  -0.00379  -0.03213  -0.03599  -0.91901
   D29        2.24103   0.00009   0.00152   0.01081   0.01225   2.25328
   D30       -3.07145  -0.00447  -0.00262  -0.05632  -0.05889  -3.13034
   D31        0.05260  -0.00332   0.00269  -0.01339  -0.01065   0.04195
   D32        1.20704   0.00363   0.00467  -0.00880  -0.00409   1.20295
   D33       -1.95209   0.00478   0.00999   0.03413   0.04414  -1.90795
   D34        1.14102  -0.00196   0.00793  -0.08478  -0.07685   1.06417
[...]
 239903,-0.00319141,0.03874867,-0.17017757,0.07282245,0.06274642,0.4136
 8554,0.00195736,-0.00145157,-0.00193623,-0.01530670,-0.01039302,-0.004
 28965,-0.03536786,0.06751231,-0.07456482,0.02459845,-0.12906790,0.1470
 3666,-0.00884275,-0.00070097,-0.01615371,-0.05453701,-0.02391139,-0.02
 018437,-0.02555952,0.02907631,0.00256241,0.00867972,-0.00093077,0.0253
 3921,0.55432563,0.01013761,0.00645922,0.02063242,-0.03404017,-0.089576
 69,-0.03056438,0.01871208,-0.01001864,-0.00233273,-0.00240794,0.002665
 82,-0.01698482,0.06590054,0.58025491,-0.00926934,0.00407718,-0.0139224
 4,-0.00786808,-0.02434151,-0.10271585,-0.00097452,-0.01822737,-0.04739
 785,-0.00125364,0.00195838,0.01177495,-0.08788801,-0.00272545,0.436832
 41,-0.00090139,-0.00306433,-0.00272397,-0.03148308,0.01996048,-0.02460
 807,0.01309819,-0.01063923,0.00817012,-0.01316457,0.00359238,0.0062470
 0,-0.11591590,0.07902234,-0.04346097,0.56705853,-0.00089009,0.00124463
 ,-0.00109900,0.02126669,0.00623947,0.02010625,-0.01733729,0.00926363,-
 0.01511142,0.00631725,-0.00953495,0.00571515,0.01194069,-0.19483883,0.
 03022352,0.02765088,0.30644769,-0.00377671,-0.00316350,-0.00442678,-0.
 01413090,0.02538853,-0.01984946,-0.01907505,0.00885801,-0.01314729,0.0
 0943641,-0.00820459,-0.01229401,-0.03900793,0.06247726,-0.08974823,0.2
 0212145,-0.04263842,0.17485285,0.01802503,0.01004956,-0.00002732,-0.11
 871386,-0.04321648,0.00405137,-0.02560350,-0.02189258,0.00988517,0.004
 89760,0.00192435,-0.00267586,-0.00911641,-0.01355228,-0.00475574,0.001
 75646,-0.00018559,0.00154019,0.76064214,-0.00523215,-0.02409111,0.0066
 7931,-0.04817621,-0.13116422,0.01500411,0.00449325,0.01278778,0.001283
 44,-0.01985161,-0.01840467,0.00680151,-0.00393822,-0.00705370,-0.01617
 082,-0.00282484,0.00007278,0.00443529,-0.16098121,0.94068204,0.0103447
 7,0.01528638,-0.00290999,0.00357558,0.01331081,-0.09061656,0.01668011,
 0.01565212,-0.00893101,-0.00240368,-0.00056695,0.00335101,-0.02125949,
 -0.03063167,0.00085758,-0.00127475,-0.00095548,-0.00026075,-0.12445252
 ,0.02775459,0.27439497,-0.00250059,0.00137080,-0.00062271,-0.03047784,
 -0.00108561,0.00930056,-0.00243627,-0.00491817,-0.00075404,-0.00441280
 ,-0.00516188,0.00215988,-0.00004299,0.00038684,0.00313678,-0.00164446,
 -0.00006822,-0.00129917,-0.37466364,0.04261904,0.07721713,0.59271794,-
 0.00221477,-0.00200013,0.00017543,-0.02816575,0.00492575,0.00844608,-0
 .00427395,-0.00639362,0.00050865,0.00555611,0.00503069,-0.00136262,-0.
 00213550,-0.00109280,0.00197942,0.00066504,-0.00005949,-0.00113043,0.0
 1227529,-0.13871651,-0.00146134,0.09130729,0.51706242,0.00053356,-0.00
 026003,0.00003419,0.00961864,0.00063839,0.00642113,0.00116784,0.000950
 50,0.00096823,0.00172167,0.00210823,-0.00162090,0.00105076,0.00083675,
 -0.00176344,0.00081139,-0.00001843,0.00067230,0.07955583,-0.00824812,-
 0.08792286,-0.14540982,-0.03904874,0.08785170,-0.00183054,-0.00173798,
 0.00018748,0.01281977,-0.00893548,0.00266924,-0.00187814,0.00365535,-0
 .00221759,-0.03963711,-0.02641493,0.00894103,0.00417388,0.00203184,-0.
 00283578,-0.00424567,0.00039829,-0.00007522,-0.19766891,0.19582756,0.0
 2540115,-0.05422215,0.08454076,0.02092361,0.24660925,-0.00853562,-0.00
 391564,-0.00111138,0.01814672,-0.04507794,-0.00191913,0.00156742,-0.00
 114672,-0.00259736,0.00099518,0.01100632,-0.00187801,-0.00295690,-0.00
 429905,0.00573283,0.00142145,0.00019236,-0.00265076,0.20173465,-0.6645
 4541,-0.03739438,0.06139464,-0.01615617,-0.01609802,-0.25339181,0.7509
 9370,-0.00255680,-0.00108026,-0.00018179,0.00511253,0.00205979,0.02120
 228,-0.00057225,-0.00070987,0.00051936,0.00264412,0.00205743,0.0026261
 1,0.00134661,0.00555094,-0.00067667,-0.00050034,-0.00104212,-0.0001552
 6,0.02442464,-0.03981267,-0.08294382,0.02001596,-0.01959245,0.02505146
 ,-0.04687020,0.05255004,0.04784253,-0.08397176,-0.03219235,-0.08892866
 ,-0.00819199,-0.00466348,-0.01348537,0.00100317,-0.00092975,-0.0009331
 7,-0.00002945,0.00020940,-0.00041660,-0.00044450,0.00208382,0.00123872
 ,-0.00048085,0.00069578,-0.00067164,0.00090784,-0.00090648,0.00047350,
 -0.00030553,0.00008735,-0.00012029,-0.00034935,0.00039569,0.00005111,0
 .08672428,-0.03323225,-0.07598211,-0.07746801,0.00958136,0.00770606,0.
 02449935,-0.00043612,0.00050286,0.00059244,-0.00032297,-0.00041768,0.0
 0030466,0.00169398,-0.00388385,-0.00002419,0.00112983,0.00035041,0.001
 49784,0.00060826,0.00110643,0.00094264,-0.00022976,-0.00006346,0.00007
 222,-0.00023795,0.00012299,-0.00012377,0.03088920,0.07908206,-0.089694
 17,-0.07484222,-0.26274915,-0.00285028,-0.00331107,-0.01085900,0.00032
 641,-0.00005981,0.00004610,0.00043261,0.00007416,0.00022461,-0.0005575
 1,0.00207079,0.00051189,-0.00050663,-0.00029182,-0.00057337,-0.0018017
 0,-0.00007461,0.00006482,0.00089718,-0.00010772,0.00022158,0.00046685,
 -0.00008674,-0.00015749,0.09806209,0.07840144,0.27731321,-0.15189985,-
 0.13206776,0.02643555,0.01132890,0.01648123,-0.00367707,0.00078332,0.0
 0115916,-0.00029777,0.00029545,-0.00053324,0.00009763,0.00069201,0.000
 60044,0.00014014,0.00016981,-0.00013325,0.00020713,-0.00470929,0.00159
 474,-0.00175589,0.00091604,-0.00063514,0.00025713,0.00099926,0.0012670
 8,0.00034964,-0.00579564,-0.00626521,0.00346411,0.15827430,-0.12973908
 ,-0.21477199,0.03283209,-0.01376922,-0.01962422,0.00383007,-0.00113306
 ,-0.00054152,0.00009814,0.00022530,0.00109246,-0.00006226,-0.00053865,
 0.00028537,-0.00066854,-0.00000284,0.00060069,-0.00046170,0.00463375,0
 .00033010,0.00190751,-0.00051834,0.00008158,-0.00013875,-0.00044969,-0
 .00215892,-0.00036569,-0.00364324,-0.00536831,0.00233327,0.13758368,0.
 22983572,0.02498493,0.03226339,-0.05596059,0.00996099,0.01074525,-0.00
 428087,-0.00013070,-0.00046803,0.00042348,-0.00004175,-0.00043694,0.00
 014800,0.00123932,0.00147290,0.00001457,-0.00009724,-0.00057759,0.0000
 7287,-0.00245860,0.00047077,-0.00101244,0.00043788,0.00032014,0.000306
 16,0.00016213,0.00142867,0.00021672,-0.01659215,-0.02188042,0.00783220
 ,-0.02571316,-0.03857003,0.05430141,-0.21288922,0.06330427,0.12425794,
 -0.01309910,0.00445960,0.00705383,0.00051351,0.00055463,-0.00237101,-0
 .00079120,0.00070308,0.00048365,0.00039799,0.00009922,0.00121756,0.000
 00368,0.00017019,0.00011742,-0.00013190,-0.00029602,-0.00005337,-0.000
 56587,-0.00152942,0.00032884,-0.00013673,0.00015356,0.00004793,0.01146
 514,-0.00448156,-0.00786822,-0.01105910,0.00674384,0.00866937,0.225513
 88,0.06114350,-0.07123248,-0.04568438,0.01799624,-0.00826444,-0.014522
 75,0.00078921,-0.00287026,0.00262094,0.00153064,-0.00060070,-0.0003515
 0,0.00024013,0.00023625,-0.00032143,-0.00037104,0.00019616,0.00023733,
 0.00315745,-0.00030134,-0.00154680,-0.00135010,-0.00042274,0.00044271,
 -0.00119481,0.00090549,0.00027179,0.00723609,-0.00293381,-0.00429058,-
 0.01875815,0.01012578,0.01505160,-0.06994681,0.07421004,0.12531310,-0.
 04785494,-0.14030856,-0.01432083,0.00444209,0.00913393,-0.00107151,0.0
 0192983,-0.00153363,-0.00119738,0.00044489,0.00059862,-0.00052768,0.00
 042843,0.00067947,-0.00023844,0.00006397,-0.00040974,0.00085747,-0.000
 63001,0.00054139,-0.00007730,0.00110463,-0.00057957,-0.00024914,0.0000
 1467,0.00007992,0.02182773,-0.00663538,-0.01257801,0.00048693,-0.00116
 521,-0.00188637,-0.13102301,0.04738194,0.14653406,0.00063377,-0.001172
 03,0.00026660,-0.01335102,-0.01763679,0.00241528,-0.16655281,-0.144067
 56,0.02917779,0.01635104,0.02652928,-0.00505697,0.00095678,-0.00045498
 ,-0.00161879,-0.00027206,0.00002206,0.00013225,-0.00166224,0.00370154,
 0.00235488,-0.00141058,-0.00145694,0.00031531,0.00097707,-0.00050221,0
 .00007153,-0.00007140,0.00001809,0.00001785,-0.00029673,0.00090018,-0.
 00007717,0.00018607,0.00025576,-0.00007363,0.17058668,-0.00001286,0.00
 124381,-0.00053420,0.00686668,0.00911360,-0.00189668,-0.13206041,-0.21
 114563,0.03224989,-0.01135980,-0.02685564,0.00805351,-0.00025842,0.000
 67982,0.00072960,0.00069232,-0.00022634,-0.00006556,0.00174081,-0.0018
 5179,-0.00146090,0.00069165,0.00098622,-0.00007354,-0.00082165,0.00079
 447,-0.00022825,-0.00003008,-0.00001255,0.00005599,-0.00002035,-0.0001
 7394,-0.00009187,0.00001654,-0.00001562,0.00003852,0.13657341,0.233149
 55,-0.00095285,0.00041399,0.00023065,0.01188792,0.00984901,-0.00595084
 ,0.02291324,0.02779239,-0.05400683,0.00871197,0.02015579,-0.00976154,0
 .00166615,0.00110435,0.00191461,-0.00044191,0.00059002,0.00030442,0.00
 206050,-0.00310730,-0.00057094,0.00069137,0.00086788,-0.00021911,-0.00
 045366,0.00040238,0.00061945,-0.00008005,-0.00011930,0.00002022,-0.000
 08083,-0.00022206,0.00035125,-0.00013002,0.00005145,-0.00019678,-0.027
 75179,-0.04184766,0.05999565,0.00148376,-0.00058246,-0.00017224,-0.003
 67150,0.01181789,0.02307925,-0.04864445,-0.04620508,-0.06434387,-0.015
 66603,0.00903572,-0.02604654,0.00421794,-0.00339280,0.00420259,-0.0048
 4927,0.00535240,0.00392141,0.00055739,-0.00205917,0.00115942,0.0001591
 1,0.00082421,-0.00014670,-0.00132406,0.00083815,-0.00014087,-0.0005211
 4,0.00025459,-0.00017416,-0.00006338,0.00000768,-0.00002952,-0.0000231
 3,-0.00039036,0.00003567,-0.00376285,-0.00613801,-0.01504152,0.0714213
 4,-0.00064333,0.00019612,-0.00069381,-0.00058696,-0.00229922,-0.008151
 09,-0.03933275,-0.08781972,-0.08859364,0.01385070,0.00445649,0.0226730
 5,-0.00009073,-0.00099333,0.00022712,0.00312548,-0.00096324,0.00163626
 ,-0.00070561,0.00087040,0.00146962,0.00064480,-0.00024452,-0.00018609,
 0.00033420,-0.00090250,-0.00025327,0.00043120,0.00007097,0.00005185,-0
 .00008042,0.00000351,-0.00002964,0.00018672,0.00002925,0.00028913,-0.0
 0484573,-0.00583207,-0.01909183,0.03057438,0.09132647,-0.00118368,0.00
 077105,0.00078865,-0.00003480,-0.00936301,-0.01745760,-0.06607199,-0.0
 8833298,-0.22054018,-0.01105794,0.00432279,-0.02431167,0.00250848,-0.0
 0050657,0.00008579,-0.00026013,0.00062427,0.00165603,0.00085832,-0.001
 28962,0.00030255,-0.00075517,-0.00003176,0.00001585,-0.00059360,0.0005
 6943,0.00083829,0.00006631,-0.00007122,0.00042899,0.00009831,0.0000817
 5,0.00000048,0.00021471,0.00035502,0.00001096,0.00306824,0.00212105,0.
 00619146,0.07513302,0.08947585,0.25178018,-0.00269593,-0.00165586,-0.0
 0159334,0.00812214,0.00071845,0.00507623,0.01449647,0.01989910,-0.0034
 3328,-0.16618689,-0.15303315,0.02751416,-0.00990817,0.00032192,0.00260
 781,0.00634545,-0.00225324,-0.00120866,-0.01881802,0.04133525,0.004629
 87,0.01318798,-0.01044390,-0.00525293,0.02434786,-0.02210633,0.0007061
 0,0.00010033,0.00065026,-0.00040997,0.00030159,-0.00080810,0.00048200,
 0.00038844,0.00045872,0.00031595,-0.00285344,0.00422138,-0.00315268,0.
 00238210,-0.00151343,-0.00165171,0.13583013,-0.00124251,-0.00102581,-0
 .00047170,0.00183346,0.00139224,0.00492241,-0.01394670,-0.02986262,0.0
 0428725,-0.12118731,-0.18938629,0.04617734,-0.00543516,-0.00176887,-0.
 00097367,0.00378433,-0.00369299,0.00009585,0.00497378,0.01657724,-0.00
 040295,0.00440467,-0.00524745,-0.00195457,0.00504757,-0.02056365,0.001
 68053,0.00003025,0.00038588,-0.00026020,0.00013568,-0.00016157,0.00019
 102,0.00015612,0.00042451,0.00012197,0.00166278,-0.00010347,0.00365264
 ,0.00019623,0.00067519,0.00087438,0.12247471,0.23033914,0.00086903,0.0
 0020485,0.00031594,-0.00587708,0.00223957,0.00314395,0.01715161,0.0166
 2486,-0.01193584,0.01682309,0.03813180,-0.03330899,0.00589877,-0.00208
 983,-0.00262573,-0.00663635,-0.00037109,-0.00034608,0.00273884,-0.0060
 0810,-0.00082784,-0.00103581,0.00110908,0.00244595,-0.00216958,0.00402
 345,-0.01001669,-0.00001066,-0.00017864,0.00006288,-0.00001752,-0.0000
 1810,-0.00006525,-0.00021695,-0.00024360,-0.00003199,-0.00363481,0.002
 85684,0.00186956,-0.00105303,0.00212731,0.00109216,-0.02408870,-0.0565
 3359,0.05112304,0.00044265,-0.00008053,0.00036330,0.00438671,-0.001926
 32,-0.00877907,0.00492487,-0.00489447,0.00068893,-0.00167064,0.0003913
 7,-0.00472810,-0.19171345,0.01672674,0.13317467,-0.02409093,0.01854784
 ,0.00268855,0.00210428,-0.00225149,-0.00073070,-0.00085689,0.00029189,
 0.00025251,-0.00157055,0.00105519,0.00005792,0.00008334,-0.00011031,0.
 00012026,-0.00002220,0.00002946,-0.00004782,-0.00014228,0.00013695,-0.
 00037592,-0.00007109,0.00024953,-0.00012500,-0.00094656,0.00036245,-0.
 00017186,0.00223641,0.00133029,-0.00103525,0.21707419,-0.00034078,0.00
 016184,0.00127633,0.00485242,-0.00114270,-0.01084466,-0.00016476,-0.00
 234464,-0.00032755,-0.00079024,-0.00125855,0.00148984,0.01916156,-0.05
 200851,-0.01694873,0.02612625,-0.00866742,-0.00931549,0.00224313,-0.00
 188601,-0.00173992,-0.00073545,0.00039088,0.00060705,-0.00178716,0.000
 92834,0.00034079,0.00002759,-0.00029602,0.00006478,-0.00005206,-0.0000
 0047,0.00000391,-0.00000459,0.00035095,0.00017417,0.00009147,0.0002894
 3,-0.00019491,-0.00018190,0.00089987,0.00013745,0.00276516,0.00159361,
 -0.00123811,-0.03497934,0.05901913,0.00113316,-0.00057317,0.00071065,0
 .01616933,-0.00557694,-0.02256221,0.00123705,-0.00213223,-0.00090287,-
 0.00165829,0.00163574,-0.00393398,0.13671079,-0.02395537,-0.14293960,-
 0.01749673,0.00879426,0.01053050,0.00118219,-0.00037759,0.00062978,-0.
 00006025,0.00044215,0.00003755,-0.00006231,0.00044163,-0.00034279,-0.0
 0043283,-0.00003917,0.00027523,-0.00005228,-0.00008268,0.00000618,-0.0
 0064015,0.00035931,-0.00015187,-0.00022852,-0.00009211,0.00003716,0.00
 028034,-0.00127586,-0.00083380,-0.00018700,-0.00014722,0.00034536,-0.1
 3268774,0.02271348,0.15923482,0.00039528,-0.00071600,0.00023568,-0.007
 42271,-0.00793622,0.00274454,0.00203321,0.00091148,0.00104656,0.000298
 59,0.00065528,-0.00116907,-0.14289951,-0.13313070,0.01596550,0.0100069
 2,0.03018778,-0.00622191,0.00027071,0.00165633,-0.00240161,-0.00007658
 ,-0.00040320,-0.00015850,0.00062738,-0.00130199,0.00032906,0.00000554,
 0.00033803,0.00001328,-0.00003024,0.00035361,-0.00057164,-0.00012341,-
 0.00014794,0.00004812,0.00047363,-0.00008948,0.00004742,-0.00033584,-0
 .00004418,-0.00000066,-0.00104576,-0.00057675,-0.00006385,-0.00905258,
 -0.01825317,-0.00060049,0.14350471,0.00041799,0.00104425,0.00060224,-0
 .00385243,-0.00566683,-0.00154118,-0.00191178,-0.00013186,0.00002696,0
 .00018283,-0.00044580,0.00168460,-0.12112970,-0.23387992,0.02123835,-0
 .00420567,-0.02596451,0.00713793,0.00038639,0.00033050,-0.00087297,-0.
 00025614,0.00001980,0.00022299,-0.00024304,0.00011319,-0.00006791,0.00
 027847,-0.00002587,0.00001229,-0.00021782,0.00035628,0.00003908,0.0000
 1617,0.00006690,-0.00017730,0.00032562,-0.00001298,-0.00050031,0.00029
 105,0.00058134,0.00010115,0.00040466,0.00031025,0.00005685,0.00290791,
 0.00651971,-0.00085303,0.12747144,0.25676635,0.00067016,-0.00125415,0.
 00117276,-0.01802465,-0.02447975,-0.00125397,-0.00126874,0.00033969,0.
 00184770,0.00059154,0.00010650,-0.00031947,0.01446268,0.01836336,-0.05
 166166,0.00315074,0.01737247,-0.00118265,-0.00009558,0.00241140,-0.006
 23444,-0.00077919,-0.00056489,0.00075950,0.00096073,-0.00200316,0.0012
 4610,0.00022836,0.00010240,0.00002260,0.00001980,0.00067632,-0.0004345
 9,0.00002695,0.00010305,0.00005935,0.00062481,-0.00008229,-0.00052804,
 -0.00018316,-0.00001986,0.00011450,-0.00150958,-0.00081699,0.00006989,
 0.00991562,0.01547253,0.00062674,-0.00997231,-0.02607266,0.05525830,0.
 00080320,-0.00068206,-0.00164555,-0.00290492,0.00190260,0.00503891,0.0
 0470616,0.00157717,0.00230457,0.00194838,0.00277095,-0.00609346,-0.014
 45699,-0.00928258,-0.00181272,-0.40176519,-0.10172308,-0.13481336,-0.0
 0165611,0.00076207,0.00074245,0.00128117,0.00000159,-0.00043437,0.0020
 4002,-0.00020200,-0.00044507,-0.00016582,0.00027755,-0.00004656,-0.000
 06656,0.00009007,0.00003651,0.00019896,-0.00031200,0.00030858,0.000379
 36,-0.00047606,0.00003958,-0.00047778,-0.00168719,-0.00029589,-0.00336
 294,-0.00269182,0.00208786,-0.00107731,0.00222475,-0.00227759,0.003207
 00,-0.00082451,0.00117130,0.41155858,0.00052768,0.00051594,0.00112371,
 0.00162182,-0.00385202,-0.00140394,0.00032611,0.00065940,0.00020501,-0
 .00089088,-0.00104732,0.00136520,0.03394152,0.00872458,0.01453039,-0.1
 4613743,-0.08060695,-0.04431709,0.00045239,-0.00094165,0.00010710,-0.0
 0005317,0.00008823,0.00000909,-0.00030610,0.00018267,-0.00043749,0.000
 01629,-0.00033426,0.00017249,-0.00004035,-0.00002595,0.00004616,-0.000
 10949,0.00006283,-0.00002509,-0.00006401,-0.00005853,0.00020239,-0.000
 14510,-0.00007992,0.00007498,-0.00069980,0.00022681,-0.00080388,0.0022
 3816,-0.00245032,0.00080104,0.00089499,0.00002127,0.00030166,0.1083797
 4,0.07887696,0.00023990,-0.00065945,-0.00014975,-0.00490732,0.00157558
 ,-0.00846406,0.00051142,-0.00031389,0.00068511,-0.00271310,-0.00030652
 ,0.00009453,-0.00815162,-0.00411873,0.00080566,-0.12192250,-0.02140043
 ,-0.04526333,-0.00124933,-0.00055856,0.00051158,0.00071964,0.00022319,
 -0.00025959,0.00049982,0.00064189,-0.00017949,-0.00025831,0.00010085,-
 0.00001919,0.00002145,0.00007090,0.00003781,-0.00011124,-0.00003972,0.
 00005486,0.00008078,0.00018050,-0.00029301,-0.00065392,0.00020898,-0.0
 0012790,0.00003047,-0.00090954,-0.00113074,0.00142868,-0.00154699,-0.0
 0103421,0.00061350,-0.00106332,0.00018372,0.13600101,0.02800989,0.0544
 4286,0.00047528,0.00081623,-0.00001496,-0.00385194,0.00331960,0.002882
 22,-0.00067611,-0.00158136,0.00026213,0.00156080,0.00127687,-0.0004772
 1,-0.00000674,0.00023805,0.00005383,0.00037432,0.00004091,0.00011571,-
 0.03641759,-0.04547237,0.01175314,-0.13464608,-0.14429096,0.03498553,0
 .01026874,0.00002714,-0.00407163,0.00003779,-0.00012502,0.00010855,0.0
 0018230,0.00003464,-0.00021340,0.00029427,-0.00047349,-0.00003871,-0.0
 0024017,0.00021481,0.00019217,0.00006435,0.00002040,0.00013003,-0.0028
 6775,-0.00094962,0.00027038,-0.00003796,-0.00020286,-0.00032868,0.0001
 6365,-0.00004144,0.00001055,-0.00018920,0.00004763,-0.00017933,0.16551
 204,0.00018535,-0.00009061,-0.00013217,0.00140522,0.00075560,0.0001771
 6,0.00042266,0.00002122,-0.00012216,0.00008658,0.00037577,-0.00022549,
 0.00007169,0.00010821,-0.00029509,0.00007459,-0.00005308,0.00018325,-0
 .00364606,0.01619914,0.00060259,-0.18844289,-0.35818867,0.06013838,0.0
 0368503,-0.00647354,-0.00079755,-0.00001575,-0.00000974,0.00008771,-0.
 00001825,0.00011540,0.00002163,-0.00019605,0.00003322,0.00005368,0.000
 12006,0.00003165,0.00000109,-0.00009740,0.00002492,0.00008598,-0.00073
 580,-0.00011214,0.00011035,-0.00002533,-0.00009913,-0.00008223,0.00013
 071,-0.00000206,0.00004436,-0.00010519,0.00003822,-0.00009462,0.187100
 84,0.34732562,-0.00007352,-0.00061046,0.00036334,0.00240751,0.00006240
 ,0.00531830,-0.00030299,-0.00032774,0.00015453,-0.00054838,-0.00055741
 ,0.00048676,0.00094514,0.00097235,-0.00002547,-0.00033268,0.00001588,-
 0.00043202,0.01036211,0.01143698,0.00157696,0.03621709,0.04812329,-0.0
 3242015,-0.00468495,-0.00006609,-0.00558824,-0.00001807,0.00002624,-0.
 00008812,0.00001668,-0.00007502,-0.00007102,-0.00000426,0.00012564,-0.
 00001603,-0.00008362,0.00008715,-0.00000733,0.00017383,0.00013591,-0.0
 0003472,0.00112525,0.00046706,-0.00017959,-0.00000898,-0.00012395,0.00
 026736,0.00011638,0.00002627,0.00025365,0.00013380,0.00003839,0.000105
 14,-0.04544033,-0.05975687,0.03033663\\0.00000099,-0.00000014,-0.00000
 029,-0.00000026,0.00000038,-0.00000032,-0.00000045,-0.00000184,-0.0000
 0052,-0.00000157,-0.00000176,0.00000027,0.00000062,0.00000195,-0.00000
 069,0.00000163,-0.00000066,0.00000045,-0.00000145,0.00000073,0.0000009
 9,0.00000020,0.00000151,0.00000157,-0.00000142,0.00000049,0.00000174,-
 0.00000019,-0.00000003,-0.00000012,0.00000109,-0.00000041,-0.00000134,
 0.00000105,0.00000115,-0.00000025,-0.00000024,-0.00000185,-0.00000132,
 -0.00000144,-0.00000178,0.00000004,-0.00000129,-0.00000097,0.00000044,
 0.00000153,0.00000123,-0.00000046,0.00000172,-0.00000017,-0.00000157,0
 .00000050,-0.00000038,-0.00000095,-0.00000101,0.00000255,0.00000232\\\
 @


 Once you get people laughing, they're
 listening and you can tell them almost anything.
                                 -- Herb Gardner
 Job cpu time:       0 days  0 hours 12 minutes 37.1 seconds.
 Elapsed time:       0 days  0 hours  3 minutes 10.6 seconds.
 File lengths (MBytes):  RWF=    106 Int=      0 D2E=      0 Chk=      4 Scr=      1
 Normal termination of Gaussian 16 at Mon Jul 10 19:55:18 2023.
real 2182.04
user 8158.26
sys 23.38
