 Entering Gaussian System, Link 0=g16
 Input=gaussian_test.inp
 Output=gaussian_test.log
 Initial command:
 /sw/restricted/lms/sw/Gaussian/g16_B01/g16/l1.exe "/scratch/user/peterchao1/peterchao1/9993825_1712001971000000679201480/Gau-114771.inp" -scrdir="/scratch/user/peterchao1/peterchao1/9993825_1712001971000000679201480/"
 Entering Link 1 = /sw/restricted/lms/sw/Gaussian/g16_B01/g16/l1.exe PID=    114800.
  
 Copyright (c) 1988-2017, Gaussian, Inc.  All Rights Reserved.
  
 This is part of the Gaussian(R) 16 program.  It is based on
 the Gaussian(R) 09 system (copyright 2009, Gaussian, Inc.),
 the Gaussian(R) 03 system (copyright 2003, Gaussian, Inc.),
 the Gaussian(R) 98 system (copyright 1998, Gaussian, Inc.),
 the Gaussian(R) 94 system (copyright 1995, Gaussian, Inc.),
 the Gaussian 92(TM) system (copyright 1992, Gaussian, Inc.),
 the Gaussian 90(TM) system (copyright 1990, Gaussian, Inc.),
 the Gaussian 88(TM) system (copyright 1988, Gaussian, Inc.),
 the Gaussian 86(TM) system (copyright 1986, Carnegie Mellon
 University), and the Gaussian 82(TM) system (copyright 1983,
 Carnegie Mellon University). Gaussian is a federally registered
 trademark of Gaussian, Inc.
  
 This software contains proprietary and confidential information,
 including trade secrets, belonging to Gaussian, Inc.
  
 This software is provided under written license and may be
 used, copied, transmitted, or stored only in accord with that
 written license.
  
 The following legend is applicable only to US Government
 contracts under FAR:
  
                    RESTRICTED RIGHTS LEGEND
  
 Use, reproduction and disclosure by the US Government is
 subject to restrictions as set forth in subparagraphs (a)
 and (c) of the Commercial Computer Software - Restricted
 Rights clause in FAR 52.227-19.
  
 Gaussian, Inc.
 340 Quinnipiac St., Bldg. 40, Wallingford CT 06492
  
  
 ---------------------------------------------------------------
 Warning -- This program may not be used in any manner that
 competes with the business of Gaussian, Inc. or will provide
 assistance to any competitor of Gaussian, Inc.  The licensee
 of this program is prohibited from giving any competitor of
 Gaussian, Inc. access to this program.  By using this program,
 the user acknowledges that Gaussian, Inc. is engaged in the
 business of creating and licensing software in the field of
 computational chemistry and represents and warrants to the
 licensee that it is not a competitor of Gaussian, Inc. and that
 it will not use this program in any manner prohibited above.
 ---------------------------------------------------------------
  

 Cite this work as:
 Gaussian 16, Revision B.01,
 M. J. Frisch, G. W. Trucks, H. B. Schlegel, G. E. Scuseria, 
 M. A. Robb, J. R. Cheeseman, G. Scalmani, V. Barone, 
 G. A. Petersson, H. Nakatsuji, X. Li, M. Caricato, A. V. Marenich, 
 J. Bloino, B. G. Janesko, R. Gomperts, B. Mennucci, H. P. Hratchian, 
 J. V. Ortiz, A. F. Izmaylov, J. L. Sonnenberg, D. Williams-Young, 
 F. Ding, F. Lipparini, F. Egidi, J. Goings, B. Peng, A. Petrone, 
 T. Henderson, D. Ranasinghe, V. G. Zakrzewski, J. Gao, N. Rega, 
 G. Zheng, W. Liang, M. Hada, M. Ehara, K. Toyota, R. Fukuda, 
 J. Hasegawa, M. Ishida, T. Nakajima, Y. Honda, O. Kitao, H. Nakai, 
 T. Vreven, K. Throssell, J. A. Montgomery, Jr., J. E. Peralta, 
 F. Ogliaro, M. J. Bearpark, J. J. Heyd, E. N. Brothers, K. N. Kudin, 
 V. N. Staroverov, T. A. Keith, R. Kobayashi, J. Normand, 
 K. Raghavachari, A. P. Rendell, J. C. Burant, S. S. Iyengar, 
 J. Tomasi, M. Cossi, J. M. Millam, M. Klene, C. Adamo, R. Cammi, 
 J. W. Ochterski, R. L. Martin, K. Morokuma, O. Farkas, 
 J. B. Foresman, and D. J. Fox, Gaussian, Inc., Wallingford CT, 2016.
 
 ******************************************
 Gaussian 16:  ES64L-G16RevB.01 20-Dec-2017
                 1-Apr-2024 
 ******************************************
 %nprocshared=4
 Will use up to    4 processors via shared memory.
 %mem=8000mb
 %chk=dimer.chk
 %nprocshared=4
 Will use up to    4 processors via shared memory.
 %mem=8000mb
 ----------------------------------------------------------------------
 #T wB97XD/def2svpp opt=tight freq int(grid=ultrafine) scf=(verytight,q
 c) Volume=tight
 ----------------------------------------------------------------------
 -----
 Dimer
 -----
 Symbolic Z-matrix:
 Charge =  0 Multiplicity = 1
 O                    -1.2638   -0.00115   1.35766 
 C                    -1.88341  -0.00001   0.21518 
 O                    -1.34134   0.00133  -0.86955 
 C                    -3.41346  -0.0003    0.37306 
 C                    -3.80684   1.24947   1.16774 
 Cl                   -3.11114   2.70185   0.4004 
 C                    -4.04643   0.00134  -1.01878 
 Cl                   -5.81956   0.00256  -0.91602 
 C                    -3.80724  -1.25185   1.16462 
 Cl                   -3.10934  -2.70238   0.39551 
 H                    -0.26122  -0.00031   1.25368 
 H                    -3.40932   1.20434   2.18076 
 H                    -4.88925   1.37216   1.18416 
 H                    -3.74858  -0.88936  -1.57117 
 H                    -3.74724   0.89246  -1.56974 
 H                    -4.88961  -1.37526   1.17898 
 H                    -3.4115   -1.20855   2.17844 
 O                     1.264     0.00118  -1.3569 
 C                     1.88378   0.00077  -0.21451 
 O                     1.34174   0.00127   0.87024 
 C                     3.41376  -0.0005   -0.37282 
 C                     3.80819   1.24901  -1.16731 
 Cl                    3.11451   2.70217  -0.3994 
 C                     4.04729   0.00009   1.01875 
 Cl                    5.82038  -0.00156   0.9149 
 C                     3.80566  -1.25246  -1.16471 
 Cl                    3.10439  -2.70197  -0.3965 
 H                     0.26142   0.00135  -1.25278 
 H                     3.41016   1.20458  -2.18019 
 H                     4.89073   1.37051  -1.18424 
 H                     3.74823  -0.89011   1.5712 
 H                     3.74985   0.89172   1.56978 
 H                     4.88778  -1.37806  -1.17845 
 H                     3.41056  -1.20803  -2.17872 
 
 Add virtual bond connecting atoms O20        and H11        Dist= 3.11D+00.
 Add virtual bond connecting atoms H28        and O3         Dist= 3.11D+00.

 GradGradGradGradGradGradGradGradGradGradGradGradGradGradGradGradGradGrad
 Initialization pass.
                           ----------------------------
                           !    Initial Parameters    !
                           ! (Angstroms and Degrees)  !
 --------------------------                            --------------------------
 ! Name  Definition              Value          Derivative Info.                !
 --------------------------------------------------------------------------------
 ! R1    R(1,2)                  1.2997         estimate D2E/DX2                !
 ! R2    R(1,11)                 1.008          estimate D2E/DX2                !
 ! R3    R(2,3)                  1.2126         estimate D2E/DX2                !
 ! R4    R(2,4)                  1.5382         estimate D2E/DX2                !
 ! R5    R(3,28)                 1.6479         estimate D2E/DX2                !
 ! R6    R(4,5)                  1.5324         estimate D2E/DX2                !
 ! R7    R(4,7)                  1.529          estimate D2E/DX2                !
 ! R8    R(4,9)                  1.5323         estimate D2E/DX2                !
 ! R9    R(5,6)                  1.7839         estimate D2E/DX2                !
 ! R10   R(5,12)                 1.0892         estimate D2E/DX2                !
 ! R11   R(5,13)                 1.0895         estimate D2E/DX2                !
 ! R12   R(7,8)                  1.7761         estimate D2E/DX2                !
 ! R13   R(7,14)                 1.0896         estimate D2E/DX2                !
 ! R14   R(7,15)                 1.0896         estimate D2E/DX2                !
 ! R15   R(9,10)                 1.784          estimate D2E/DX2                !
 ! R16   R(9,16)                 1.0895         estimate D2E/DX2                !
 ! R17   R(9,17)                 1.0892         estimate D2E/DX2                !
 ! R18   R(11,20)                1.6482         estimate D2E/DX2                !
 ! R19   R(18,19)                1.2997         estimate D2E/DX2                !
 ! R20   R(18,28)                1.008          estimate D2E/DX2                !
 ! R21   R(19,20)                1.2126         estimate D2E/DX2                !
 ! R22   R(19,21)                1.5382         estimate D2E/DX2                !
 ! R23   R(21,22)                1.5323         estimate D2E/DX2                !
 ! R24   R(21,24)                1.529          estimate D2E/DX2                !
 ! R25   R(21,26)                1.5323         estimate D2E/DX2                !
 ! R26   R(22,23)                1.784          estimate D2E/DX2                !
 ! R27   R(22,29)                1.0892         estimate D2E/DX2                !
 ! R28   R(22,30)                1.0895         estimate D2E/DX2                !
 ! R29   R(24,25)                1.7761         estimate D2E/DX2                !
 ! R30   R(24,31)                1.0895         estimate D2E/DX2                !
 ! R31   R(24,32)                1.0895         estimate D2E/DX2                !
 ! R32   R(26,27)                1.7841         estimate D2E/DX2                !
 ! R33   R(26,33)                1.0895         estimate D2E/DX2                !
 ! R34   R(26,34)                1.0892         estimate D2E/DX2                !
 ! A1    A(2,1,11)             112.5514         estimate D2E/DX2                !
 ! A2    A(1,2,3)              124.9743         estimate D2E/DX2                !
 ! A3    A(1,2,4)              112.5818         estimate D2E/DX2                !
 ! A4    A(3,2,4)              122.4439         estimate D2E/DX2                !
 ! A5    A(2,3,28)             130.0002         estimate D2E/DX2                !
 ! A6    A(2,4,5)              107.9645         estimate D2E/DX2                !
 ! A7    A(2,4,7)              108.5635         estimate D2E/DX2                !
 ! A8    A(2,4,9)              107.9868         estimate D2E/DX2                !
 ! A9    A(5,4,7)              111.4028         estimate D2E/DX2                !
 ! A10   A(5,4,9)              109.4067         estimate D2E/DX2                !
 ! A11   A(7,4,9)              111.391          estimate D2E/DX2                !
 ! A12   A(4,5,6)              109.9275         estimate D2E/DX2                !
 ! A13   A(4,5,12)             110.7843         estimate D2E/DX2                !
 ! A14   A(4,5,13)             110.7756         estimate D2E/DX2                !
 ! A15   A(6,5,12)             106.9467         estimate D2E/DX2                !
 ! A16   A(6,5,13)             107.5935         estimate D2E/DX2                !
 ! A17   A(12,5,13)            110.6869         estimate D2E/DX2                !
 ! A18   A(4,7,8)              111.1376         estimate D2E/DX2                !
 ! A19   A(4,7,14)             110.3313         estimate D2E/DX2                !
 ! A20   A(4,7,15)             110.3348         estimate D2E/DX2                !
 ! A21   A(8,7,14)             107.6254         estimate D2E/DX2                !
 ! A22   A(8,7,15)             107.6277         estimate D2E/DX2                !
 ! A23   A(14,7,15)            109.7041         estimate D2E/DX2                !
 ! A24   A(4,9,10)             109.9292         estimate D2E/DX2                !
 ! A25   A(4,9,16)             110.7711         estimate D2E/DX2                !
 ! A26   A(4,9,17)             110.7935         estimate D2E/DX2                !
 ! A27   A(10,9,16)            107.5913         estimate D2E/DX2                !
 ! A28   A(10,9,17)            106.9463         estimate D2E/DX2                !
 ! A29   A(16,9,17)            110.6829         estimate D2E/DX2                !
 ! A30   A(19,18,28)           112.5519         estimate D2E/DX2                !
 ! A31   A(18,19,20)           124.9685         estimate D2E/DX2                !
 ! A32   A(18,19,21)           112.5735         estimate D2E/DX2                !
 ! A33   A(20,19,21)           122.458          estimate D2E/DX2                !
 ! A34   A(11,20,19)           130.0032         estimate D2E/DX2                !
 ! A35   A(19,21,22)           107.9824         estimate D2E/DX2                !
 ! A36   A(19,21,24)           108.5707         estimate D2E/DX2                !
 ! A37   A(19,21,26)           107.9548         estimate D2E/DX2                !
 ! A38   A(22,21,24)           111.4018         estimate D2E/DX2                !
 ! A39   A(22,21,26)           109.4171         estimate D2E/DX2                !
 ! A40   A(24,21,26)           111.3879         estimate D2E/DX2                !
 ! A41   A(21,22,23)           109.9347         estimate D2E/DX2                !
 ! A42   A(21,22,29)           110.783          estimate D2E/DX2                !
 ! A43   A(21,22,30)           110.7794         estimate D2E/DX2                !
 ! A44   A(23,22,29)           106.9425         estimate D2E/DX2                !
 ! A45   A(23,22,30)           107.5905         estimate D2E/DX2                !
 ! A46   A(29,22,30)           110.6841         estimate D2E/DX2                !
 ! A47   A(21,24,25)           111.126          estimate D2E/DX2                !
 ! A48   A(21,24,31)           110.3299         estimate D2E/DX2                !
 ! A49   A(21,24,32)           110.3336         estimate D2E/DX2                !
 ! A50   A(25,24,31)           107.6322         estimate D2E/DX2                !
 ! A51   A(25,24,32)           107.6295         estimate D2E/DX2                !
 ! A52   A(31,24,32)           109.7101         estimate D2E/DX2                !
 ! A53   A(21,26,27)           109.9224         estimate D2E/DX2                !
 ! A54   A(21,26,33)           110.7778         estimate D2E/DX2                !
 ! A55   A(21,26,34)           110.7947         estimate D2E/DX2                !
 ! A56   A(27,26,33)           107.5885         estimate D2E/DX2                !
 ! A57   A(27,26,34)           106.9431         estimate D2E/DX2                !
 ! A58   A(33,26,34)           110.6872         estimate D2E/DX2                !
 ! A59   L(1,11,20,3,-1)       172.4688         estimate D2E/DX2                !
 ! A60   L(3,28,18,20,-1)      172.4817         estimate D2E/DX2                !
 ! A61   L(1,11,20,3,-2)       180.0009         estimate D2E/DX2                !
 ! A62   L(3,28,18,20,-2)      179.9891         estimate D2E/DX2                !
 ! D1    D(11,1,2,3)             0.031          estimate D2E/DX2                !
 ! D2    D(11,1,2,4)          -179.9595         estimate D2E/DX2                !
 ! D3    D(2,1,20,19)           -0.139          estimate D2E/DX2                !
 ! D4    D(1,2,3,28)             0.035          estimate D2E/DX2                !
 ! D5    D(4,2,3,28)          -179.9753         estimate D2E/DX2                !
 ! D6    D(1,2,4,5)             59.0889         estimate D2E/DX2                !
 ! D7    D(1,2,4,7)            179.9906         estimate D2E/DX2                !
 ! D8    D(1,2,4,9)            -59.1089         estimate D2E/DX2                !
 ! D9    D(3,2,4,5)           -120.902          estimate D2E/DX2                !
 ! D10   D(3,2,4,7)             -0.0003         estimate D2E/DX2                !
 ! D11   D(3,2,4,9)            120.9003         estimate D2E/DX2                !
 ! D12   D(2,3,18,19)           -0.0641         estimate D2E/DX2                !
 ! D13   D(2,4,5,6)             53.0676         estimate D2E/DX2                !
 ! D14   D(2,4,5,12)           -64.9167         estimate D2E/DX2                !
 ! D15   D(2,4,5,13)           171.8452         estimate D2E/DX2                !
 ! D16   D(7,4,5,6)            -66.0462         estimate D2E/DX2                !
 ! D17   D(7,4,5,12)           175.9696         estimate D2E/DX2                !
 ! D18   D(7,4,5,13)            52.7314         estimate D2E/DX2                !
 ! D19   D(9,4,5,6)            170.3516         estimate D2E/DX2                !
 ! D20   D(9,4,5,12)            52.3674         estimate D2E/DX2                !
 ! D21   D(9,4,5,13)           -70.8708         estimate D2E/DX2                !
 ! D22   D(2,4,7,8)           -179.9496         estimate D2E/DX2                !
 ! D23   D(2,4,7,14)            60.7453         estimate D2E/DX2                !
 ! D24   D(2,4,7,15)           -60.6395         estimate D2E/DX2                !
 ! D25   D(5,4,7,8)            -61.1935         estimate D2E/DX2                !
 ! D26   D(5,4,7,14)           179.5014         estimate D2E/DX2                !
 ! D27   D(5,4,7,15)            58.1167         estimate D2E/DX2                !
 ! D28   D(9,4,7,8)             61.2739         estimate D2E/DX2                !
 ! D29   D(9,4,7,14)           -58.0312         estimate D2E/DX2                !
 ! D30   D(9,4,7,15)          -179.416          estimate D2E/DX2                !
 ! D31   D(2,4,9,10)           -52.971          estimate D2E/DX2                !
 ! D32   D(2,4,9,16)          -171.7441         estimate D2E/DX2                !
 ! D33   D(2,4,9,17)            65.0194         estimate D2E/DX2                !
 ! D34   D(5,4,9,10)          -170.241          estimate D2E/DX2                !
 ! D35   D(5,4,9,16)            70.9859         estimate D2E/DX2                !
 ! D36   D(5,4,9,17)           -52.2506         estimate D2E/DX2                !
 ! D37   D(7,4,9,10)            66.1498         estimate D2E/DX2                !
 ! D38   D(7,4,9,16)           -52.6233         estimate D2E/DX2                !
 ! D39   D(7,4,9,17)          -175.8597         estimate D2E/DX2                !
 ! D40   D(28,18,19,20)         -0.0382         estimate D2E/DX2                !
 ! D41   D(28,18,19,21)        179.9589         estimate D2E/DX2                !
 ! D42   D(18,19,20,11)          0.1296         estimate D2E/DX2                !
 ! D43   D(21,19,20,11)       -179.8672         estimate D2E/DX2                !
 ! D44   D(18,19,21,22)         59.0456         estimate D2E/DX2                !
 ! D45   D(18,19,21,24)        179.9609         estimate D2E/DX2                !
 ! D46   D(18,19,21,26)        -59.1569         estimate D2E/DX2                !
 ! D47   D(20,19,21,22)       -120.9572         estimate D2E/DX2                !
 ! D48   D(20,19,21,24)         -0.0419         estimate D2E/DX2                !
 ! D49   D(20,19,21,26)        120.8403         estimate D2E/DX2                !
 ! D50   D(19,21,22,23)         53.0884         estimate D2E/DX2                !
 ! D51   D(19,21,22,29)        -64.8944         estimate D2E/DX2                !
 ! D52   D(19,21,22,30)        171.8692         estimate D2E/DX2                !
 ! D53   D(24,21,22,23)        -66.0449         estimate D2E/DX2                !
 ! D54   D(24,21,22,29)        175.9723         estimate D2E/DX2                !
 ! D55   D(24,21,22,30)         52.7359         estimate D2E/DX2                !
 ! D56   D(26,21,22,23)        170.3501         estimate D2E/DX2                !
 ! D57   D(26,21,22,29)         52.3674         estimate D2E/DX2                !
 ! D58   D(26,21,22,30)        -70.8691         estimate D2E/DX2                !
 ! D59   D(19,21,24,25)        179.992          estimate D2E/DX2                !
 ! D60   D(19,21,24,31)         60.6869         estimate D2E/DX2                !
 ! D61   D(19,21,24,32)        -60.7037         estimate D2E/DX2                !
 ! D62   D(22,21,24,25)        -61.2258         estimate D2E/DX2                !
 ! D63   D(22,21,24,31)        179.4691         estimate D2E/DX2                !
 ! D64   D(22,21,24,32)         58.0785         estimate D2E/DX2                !
 ! D65   D(26,21,24,25)         61.2522         estimate D2E/DX2                !
 ! D66   D(26,21,24,31)        -58.053          estimate D2E/DX2                !
 ! D67   D(26,21,24,32)       -179.4435         estimate D2E/DX2                !
 ! D68   D(19,21,26,27)        -52.8863         estimate D2E/DX2                !
 ! D69   D(19,21,26,33)       -171.6559         estimate D2E/DX2                !
 ! D70   D(19,21,26,34)         65.0967         estimate D2E/DX2                !
 ! D71   D(22,21,26,27)       -170.1654         estimate D2E/DX2                !
 ! D72   D(22,21,26,33)         71.065          estimate D2E/DX2                !
 ! D73   D(22,21,26,34)        -52.1824         estimate D2E/DX2                !
 ! D74   D(24,21,26,27)         66.2214         estimate D2E/DX2                !
 ! D75   D(24,21,26,33)        -52.5482         estimate D2E/DX2                !
 ! D76   D(24,21,26,34)       -175.7956         estimate D2E/DX2                !
 --------------------------------------------------------------------------------
 Number of steps in this run=    182 maximum allowed number of steps=    204.
 GradGradGradGradGradGradGradGradGradGradGradGradGradGradGradGradGradGrad

                    Distance matrix (angstroms):
                    1          2          3          4          5
     1  O    0.000000
     2  C    1.299684   0.000000
     3  O    2.228564   1.212643   0.000000
     4  C    2.364420   1.538169   2.416150   0.000000
     5  C    2.840277   2.483570   3.433235   1.532382   0.000000
     6  Cl   3.411052   2.973499   3.469556   2.719151   1.783875
     7  C    3.659304   2.490241   2.709205   1.529010   2.529053
     8  Cl   5.091619   4.095471   4.478468   2.729661   3.154027
     9  C    2.840876   2.483875   3.433512   1.532324   2.501325
    10  Cl   3.410041   2.972914   3.469335   2.719234   4.086561
    11  H    1.007962   1.926134   2.382174   3.272938   3.760419
    12  H    2.594986   2.764478   3.876622   2.172321   1.089166
    13  H    3.880715   3.443369   4.322565   2.172436   1.089464
    14  H    3.942216   2.731452   2.660907   2.163961   3.475567
    15  H    3.941532   2.730620   2.659463   2.163994   2.761299
    16  H    3.881572   3.443464   4.322241   2.172341   2.839326
    17  H    2.596946   2.765869   3.878106   2.172398   2.686954
    18  O    3.709266   3.518195   2.650529   4.987126   5.800471
    19  C    3.518378   3.791618   3.290959   5.329723   5.987733
    20  O    2.650740   3.291006   3.197776   4.781120   5.306067
    21  C    4.987397   5.329707   4.780967   6.867840   7.488174
    22  C    5.802027   5.988801   5.306882   7.489044   7.964995
    23  Cl   5.437355   5.714781   5.231645   7.107348   7.243704
    24  C    5.321897   5.984899   5.709905   7.488642   7.954277
    25  Cl   7.098000   7.735502   7.380676   9.249720   9.711450
    26  C    5.798931   5.986515   5.305724   7.486547   8.345666
    27  Cl   5.427026   5.705522   5.224569   7.097440   8.113313
    28  H    3.023359   2.599081   1.647931   4.018466   4.895651
    29  H    5.984653   5.933866   5.073685   7.384617   7.955855
    30  H    6.798598   7.051646   6.388448   8.559428   9.010774
    31  H    5.094733   5.860587   5.714509   7.315540   7.862547
    32  H    5.096953   5.862064   5.715181   7.317163   7.575829
    33  H    6.794831   7.049139   6.387491   8.556637   9.381095
    34  H    5.984331   5.934330   5.075135   7.384947   8.326400
                    6          7          8          9         10
     6  Cl   0.000000
     7  C    3.190863   0.000000
     8  Cl   4.044092   1.776112   0.000000
     9  C    4.086608   2.528828   3.154688   0.000000
    10  Cl   5.404238   3.191939   4.047481   1.783993   0.000000
    11  H    4.018934   4.414962   5.966806   3.761456   4.018640
    12  H    2.345453   3.477099   4.104096   2.687704   4.305762
    13  H    2.354573   2.728084   2.674328   2.838408   4.515742
    14  H    4.146106   1.089578   2.348125   2.760322   2.750182
    15  H    2.749542   1.089562   2.348144   3.475395   4.146319
    16  H    4.515755   2.726937   2.674367   1.089480   2.354660
    17  H    4.306154   3.476961   4.103808   1.089181   2.345565
    18  O    5.433567   5.321184   7.097274   5.800489   5.431975
    19  C    5.711669   5.984493   7.735213   5.988215   5.710551
    20  O    5.228963   5.709707   7.380715   5.307441   5.229456
    21  C    7.104571   7.488098   9.249284   7.488149   7.102203
    22  C    7.241940   7.954482   9.711357   8.347874   8.118384
    23  Cl   6.276812   7.678351   9.347319   8.123486   8.281145
    24  C    7.676269   8.346249  10.054759   7.955017   7.675232
    25  Cl   9.345865  10.054499  11.783057   9.711670   9.343663
    26  C    8.119628   7.952902   9.709888   7.961287   7.235598
    27  Cl   8.274616   7.670030   9.339238   7.232606   6.264006
    28  H    4.625999   4.314194   6.090297   4.895744   4.624829
    29  H    7.171375   7.641814   9.393122   8.325421   8.025115
    30  H    8.265195   9.042937  10.800626   9.383418   9.115106
    31  H    7.830964   8.261924   9.926014   7.575041   7.189773
    32  H    7.191474   8.262892   9.926906   7.865662   7.832303
    33  H    9.117087   9.041479  10.799176   9.006071   8.257432
    34  H    8.029426   7.642951   9.394420   7.954652   7.167208
                   11         12         13         14         15
    11  H    0.000000
    12  H    3.495883   0.000000
    13  H    4.827748   1.792087   0.000000
    14  H    4.575135   4.309946   3.742643   0.000000
    15  H    4.573953   3.778586   3.019640   1.781813   0.000000
    16  H    4.828883   3.138343   2.747432   3.016847   3.742062
    17  H    3.498480   2.412897   3.135671   3.778239   4.309969
    18  O    3.023477   5.983526   6.796988   5.095586   5.094335
    19  C    2.599342   5.933191   7.050589   5.861424   5.860040
    20  O    1.648179   5.073202   6.387727   5.715336   5.713617
    21  C    4.018823   7.384226   8.558520   7.316092   7.315045
    22  C    4.897149   7.956384   9.010551   7.863877   7.574541
    23  Cl   4.629425   7.173634   8.266597   7.834162   7.192241
    24  C    4.314911   7.642090   9.042770   8.262837   8.261438
    25  Cl   6.091022   9.393820  10.800723   9.926413   9.925320
    26  C    4.894487   8.323702   9.381219   7.573883   7.862002
    27  Cl   4.620542   8.020597   9.110176   7.185311   7.825681
    28  H    2.560366   5.168238   5.860641   4.120052   4.118721
    29  H    5.169349   8.094636   8.956953   7.483521   7.190164
    30  H    5.862176   8.957766  10.062662   8.938365   8.659770
    31  H    4.119253   7.482565   8.937208   8.128755   8.320164
    32  H    4.121202   7.191992   8.661037   8.322515   8.127912
    33  H    5.858811   9.316383  10.427652   8.659091   8.937112
    34  H    5.169323   8.446027   9.319503   7.191941   7.484453
                   16         17         18         19         20
    16  H    0.000000
    17  H    1.792071   0.000000
    18  O    6.796491   5.985190   0.000000
    19  C    7.050821   5.935378   1.299678   0.000000
    20  O    6.389044   5.076257   2.228499   1.212642   0.000000
    21  C    8.558269   7.385968   2.364286   1.538150   2.416293
    22  C    9.383160   8.328128   2.840054   2.483805   3.433928
    23  Cl   9.120454   8.032925   3.411234   2.974297   3.471251
    24  C    9.043534   7.644563   3.659293   2.490333   2.709628
    25  Cl  10.800954   9.395795   5.091327   4.095413   4.478861
    26  C    9.006431   7.954001   2.840525   2.483368   3.432753
    27  Cl   8.255082   7.163626   3.408290   2.971172   3.466858
    28  H    5.860173   5.169867   1.007980   1.926148   2.382083
    29  H    9.318036   8.447246   2.594601   2.764573   3.877039
    30  H   10.429722   9.321280   3.880462   3.443589   4.323313
    31  H    8.660340   7.192491   3.942025   2.731053   2.660283
    32  H    8.940483   7.487765   3.941817   2.731247   2.661062
    33  H   10.057580   8.954086   3.881484   3.443025   4.321358
    34  H    8.955165   8.094779   2.597170   2.765934   3.877965
                   21         22         23         24         25
    21  C    0.000000
    22  C    1.532341   0.000000
    23  Cl   2.719326   1.783980   0.000000
    24  C    1.529003   2.528999   3.191008   0.000000
    25  Cl   2.729477   3.154108   4.044666   1.776122   0.000000
    26  C    1.532338   2.501464   4.086869   2.528786   3.154136
    27  Cl   2.719227   4.086529   5.404157   3.192668   4.048277
    28  H    3.272855   3.760794   4.020300   4.415057   5.966647
    29  H    2.172282   1.089182   2.345501   3.477060   4.104081
    30  H    2.172447   1.089462   2.354624   2.728117   2.674553
    31  H    2.163910   3.475468   4.146013   1.089541   2.348201
    32  H    2.163955   2.760924   2.749380   1.089540   2.348164
    33  H    2.172430   2.840266   4.516607   2.726432   2.673314
    34  H    2.172419   2.686652   4.306197   3.476898   4.102837
                   26         27         28         29         30
    26  C    0.000000
    27  Cl   1.784105   0.000000
    28  H    3.760517   4.015432   0.000000
    29  H    2.687872   4.305369   3.496059   0.000000
    30  H    2.838609   4.516266   4.828023   1.792069   0.000000
    31  H    2.760399   2.751218   4.574653   4.309866   3.742752
    32  H    3.475341   4.146980   4.574796   3.778290   3.019180
    33  H    1.089469   2.354714   4.828205   3.139566   2.748580
    34  H    1.089173   2.345615   3.498154   2.412616   3.135087
                   31         32         33         34
    31  H    0.000000
    32  H    1.781831   0.000000
    33  H    3.016170   3.741595   0.000000
    34  H    3.778493   4.309905   1.792101   0.000000
 Framework group  C1[X(C10H14Cl6O4)]
 Deg. of freedom    96
                         Standard orientation:                         
 ---------------------------------------------------------------------
 Center     Atomic      Atomic             Coordinates (Angstroms)
 Number     Number       Type             X           Y           Z
 ---------------------------------------------------------------------
      1          8           0        1.273572    0.001130    1.348499
      2          6           0        1.884926   -0.000015    0.201580
      3          8           0        1.335033   -0.001361   -0.879216
      4          6           0        3.416071    0.000280    0.348408
      5          6           0        3.815176   -1.249488    1.140233
      6         17           0        3.113968   -2.701875    0.377940
      7          6           0        4.038978   -0.001364   -1.047964
      8         17           0        5.812809   -0.002575   -0.957994
      9          6           0        3.815546    1.251835    1.137108
     10         17           0        3.112112    2.702361    0.373047
     11          1           0        0.270264    0.000279    1.251750
     12          1           0        3.424976   -1.204354    2.156101
     13          1           0        4.897676   -1.372173    1.148843
     14          1           0        3.737153    0.889332   -1.598184
     15          1           0        3.735827   -0.892480   -1.596741
     16          1           0        4.897993    1.375254    1.143657
     17          1           0        3.427137    1.208542    2.153760
     18          8           0       -1.273755   -0.001223   -1.347753
     19          6           0       -1.885267   -0.000813   -0.200924
     20          8           0       -1.335417   -0.001305    0.879893
     21          6           0       -3.416351    0.000459   -0.348188
     22          6           0       -3.816506   -1.249055   -1.139806
     23         17           0       -3.117289   -2.702219   -0.376919
     24          6           0       -4.039829   -0.000131    1.047922
     25         17           0       -5.813615    0.001513    0.956866
     26          6           0       -3.813967    1.252406   -1.137232
     27         17           0       -3.107175    2.701928   -0.374106
     28          1           0       -0.270442   -0.001389   -1.250870
     29          1           0       -3.425791   -1.204635   -2.155525
     30          1           0       -4.899131   -1.370566   -1.148924
     31          1           0       -3.736790    0.890074    1.598195
     32          1           0       -3.738417   -0.891756    1.596787
     33          1           0       -4.896156    1.378006   -1.143168
     34          1           0       -3.426190    1.207981   -2.154067
 ---------------------------------------------------------------------
 Rotational constants (GHZ):           0.3585648           0.0874305           0.0766077
   332 basis functions,   628 primitive gaussians,   352 cartesian basis functions
   104 alpha electrons      104 beta electrons
       nuclear repulsion energy      2591.3435450822 Hartrees.
 NAtoms=   34 NActive=   34 NUniq=   34 SFac= 1.00D+00 NAtFMM=   60 NAOKFM=F Big=F
 Nuclear repulsion after empirical dispersion term =     2591.3158033038 Hartrees.
   1 Symmetry operations used in ECPInt.
 ECPInt:  NShTT=   12880 NPrTT=   55640 LenC2=   10919 LenP2D=   30380.
 LDataN:  DoStor=T MaxTD1= 4 Len=   56
 ExpMin= 1.22D-01 ExpMax= 1.04D+04 ExpMxC= 1.57D+03 IAcc=3 IRadAn=         5 AccDes= 0.00D+00
 Harris functional with IExCor= 4639 and IRadAn=       5 diagonalized for initial guess.
 HarFok:  IExCor= 4639 AccDes= 0.00D+00 IRadAn=         5 IDoV= 1 UseB2=F ITyADJ=14
 ICtDFT=  3500011 ScaDFX=  1.000000  1.000000  1.000000  1.000000
 FoFCou: FMM=F IPFlag=           0 FMFlag=      100000 FMFlg1=           0
         NFxFlg=           0 DoJE=T BraDBF=F KetDBF=T FulRan=T
         wScrn=  0.000000 ICntrl=       500 IOpCl=  0 I1Cent=   200000004 NGrid=           0
         NMat0=    1 NMatS0=      1 NMatT0=    0 NMatD0=    1 NMtDS0=    0 NMtDT0=    0
 Petite list used in FoFCou.
     Accept linear search using points  3 and  4.
     Accept linear search using points  1 and  2.
     Minimum is close to point  2 DX=  2.47D-04 DF= -2.73D-12 DXR=  2.47D-04 DFR=  5.95D-08 which will be used.
 SCF Done:  E(RwB97XD) =  -3450.04111659     a.u. after    8 cycles
            Convg  =    0.3735D-09                    38 Fock formations.
              S**2 =  0.0000                  -V/T =  2.0034

 **********************************************************************

            Population analysis using the SCF Density.

 **********************************************************************

 Orbital symmetries:
       Occupied  (A) (A) (A) (A) (A) (A) (A) (A) (A) (A) (A) (A)
                 (A) (A) (A) (A) (A) (A) (A) (A) (A) (A) (A) (A)
                 (A) (A) (A) (A) (A) (A) (A) (A) (A) (A) (A) (A)
                 (A) (A) (A) (A) (A) (A) (A) (A) (A) (A) (A) (A)
                 (A) (A) (A) (A) (A) (A) (A) (A) (A) (A) (A) (A)
                 (A) (A) (A) (A) (A) (A) (A) (A) (A) (A) (A) (A)
                 (A) (A) (A) (A) (A) (A) (A) (A) (A) (A) (A) (A)
                 (A) (A) (A) (A) (A) (A) (A) (A) (A) (A) (A) (A)
                 (A) (A) (A) (A) (A) (A) (A) (A)
       Virtual   (A) (A) (A) (A) (A) (A) (A) (A) (A) (A) (A) (A)
                 (A) (A) (A) (A) (A) (A) (A) (A) (A) (A) (A) (A)
                 (A) (A) (A) (A) (A) (A) (A) (A) (A) (A) (A) (A)
                 (A) (A) (A) (A) (A) (A) (A) (A) (A) (A) (A) (A)
                 (A) (A) (A) (A) (A) (A) (A) (A) (A) (A) (A) (A)
                 (A) (A) (A) (A) (A) (A) (A) (A) (A) (A) (A) (A)
                 (A) (A) (A) (A) (A) (A) (A) (A) (A) (A) (A) (A)
                 (A) (A) (A) (A) (A) (A) (A) (A) (A) (A) (A) (A)
                 (A) (A) (A) (A) (A) (A) (A) (A) (A) (A) (A) (A)
                 (A) (A) (A) (A) (A) (A) (A) (A) (A) (A) (A) (A)
                 (A) (A) (A) (A) (A) (A) (A) (A) (A) (A) (A) (A)
                 (A) (A) (A) (A) (A) (A) (A) (A) (A) (A) (A) (A)
                 (A) (A) (A) (A) (A) (A) (A) (A) (A) (A) (A) (A)
                 (A) (A) (A) (A) (A) (A) (A) (A) (A) (A) (A) (A)
                 (A) (A) (A) (A) (A) (A) (A) (A) (A) (A) (A) (A)
                 (A) (A) (A) (A) (A) (A) (A) (A) (A) (A) (A) (A)
                 (A) (A) (A) (A) (A) (A) (A) (A) (A) (A) (A) (A)
                 (A) (A) (A) (A) (A) (A) (A) (A) (A) (A) (A) (A)
                 (A) (A) (A) (A) (A) (A) (A) (A) (A) (A) (A) (A)
 The electronic state is 1-A.
 Alpha  occ. eigenvalues -- -101.68033-101.68033-101.68031-101.68031-101.67782
 Alpha  occ. eigenvalues -- -101.67781 -19.31484 -19.31479 -19.28139 -19.28136
 Alpha  occ. eigenvalues --  -10.46577 -10.46575 -10.37181 -10.37180 -10.37178
 Alpha  occ. eigenvalues --  -10.37178 -10.36479 -10.36479 -10.36006 -10.36004
 Alpha  occ. eigenvalues --   -9.58812  -9.58812  -9.58811  -9.58811  -9.58583
 Alpha  occ. eigenvalues --   -9.58581  -7.34203  -7.34203  -7.34202  -7.34201
 Alpha  occ. eigenvalues --   -7.33954  -7.33952  -7.33220  -7.33220  -7.33219
 Alpha  occ. eigenvalues --   -7.33218  -7.33193  -7.33193  -7.33192  -7.33192
 Alpha  occ. eigenvalues --   -7.33005  -7.33003  -7.32969  -7.32968  -1.23714
 Alpha  occ. eigenvalues --   -1.22610  -1.14337  -1.13096  -1.01355  -1.01253
 Alpha  occ. eigenvalues --   -0.96918  -0.96915  -0.95930  -0.95927  -0.89404
 Alpha  occ. eigenvalues --   -0.89139  -0.79301  -0.79183  -0.78013  -0.76865
 Alpha  occ. eigenvalues --   -0.76863  -0.76244  -0.68735  -0.67527  -0.62900
 Alpha  occ. eigenvalues --   -0.62812  -0.62434  -0.61423  -0.61262  -0.59570
 Alpha  occ. eigenvalues --   -0.58179  -0.57971  -0.56819  -0.56591  -0.54634
 Alpha  occ. eigenvalues --   -0.53118  -0.52785  -0.52712  -0.51646  -0.51409
 Alpha  occ. eigenvalues --   -0.51395  -0.51031  -0.49407  -0.49342  -0.47780
 Alpha  occ. eigenvalues --   -0.47765  -0.47739  -0.46771  -0.43854  -0.42940
 Alpha  occ. eigenvalues --   -0.41386  -0.41362  -0.40194  -0.39636  -0.39632
 Alpha  occ. eigenvalues --   -0.39537  -0.39391  -0.38972  -0.38864  -0.38666
 Alpha  occ. eigenvalues --   -0.38661  -0.38394  -0.38098  -0.38093
 Alpha virt. eigenvalues --    0.05805   0.06223   0.07722   0.07830   0.11793
 Alpha virt. eigenvalues --    0.11913   0.14028   0.14122   0.14538   0.14544
 Alpha virt. eigenvalues --    0.17012   0.17369   0.18137   0.18153   0.18651
 Alpha virt. eigenvalues --    0.18653   0.19858   0.19865   0.21013   0.22273
 Alpha virt. eigenvalues --    0.22906   0.22911   0.25117   0.25582   0.26240
 Alpha virt. eigenvalues --    0.26749   0.27937   0.28053   0.29324   0.33079
 Alpha virt. eigenvalues --    0.34694   0.37486   0.41833   0.44768   0.46178
 Alpha virt. eigenvalues --    0.46242   0.46882   0.46901   0.48135   0.48465
 Alpha virt. eigenvalues --    0.50219   0.51749   0.52000   0.54587   0.54593
 Alpha virt. eigenvalues --    0.55687   0.55829   0.56456   0.57538   0.57648
 Alpha virt. eigenvalues --    0.58221   0.58280   0.60962   0.61989   0.64066
 Alpha virt. eigenvalues --    0.64120   0.65125   0.65297   0.66045   0.66096
 Alpha virt. eigenvalues --    0.67752   0.68466   0.69239   0.70296   0.70822
 Alpha virt. eigenvalues --    0.70877   0.72545   0.72560   0.72919   0.73769
 Alpha virt. eigenvalues --    0.73790   0.74174   0.74176   0.74244   0.75071
 Alpha virt. eigenvalues --    0.76560   0.76565   0.76775   0.77722   0.77723
 Alpha virt. eigenvalues --    0.77991   0.78833   0.78837   0.79742   0.79780
 Alpha virt. eigenvalues --    0.81676   0.82297   0.83314   0.84284   0.84997
 Alpha virt. eigenvalues --    0.85465   0.85509   0.86399   0.86460   0.87474
 Alpha virt. eigenvalues --    0.87602   0.88459   0.88620   0.88775   0.89077
 Alpha virt. eigenvalues --    0.89581   0.89730   0.89978   0.90044   0.90356
 Alpha virt. eigenvalues --    0.90387   0.90781   0.92040   0.92477   0.93774
 Alpha virt. eigenvalues --    0.95003   0.95729   0.96535   0.97309   0.97432
 Alpha virt. eigenvalues --    0.98374   1.02249   1.02878   1.03083   1.05056
 Alpha virt. eigenvalues --    1.07740   1.07997   1.10160   1.10577   1.11214
 Alpha virt. eigenvalues --    1.12152   1.12757   1.13035   1.15047   1.15950
 Alpha virt. eigenvalues --    1.17377   1.17905   1.19885   1.20091   1.21059
 Alpha virt. eigenvalues --    1.22055   1.24118   1.24439   1.24841   1.25119
 Alpha virt. eigenvalues --    1.29162   1.30681   1.31235   1.32430   1.40359
 Alpha virt. eigenvalues --    1.41756   1.44081   1.44885   1.45559   1.47127
 Alpha virt. eigenvalues --    1.49001   1.50650   1.52509   1.54169   1.54532
 Alpha virt. eigenvalues --    1.54581   1.58563   1.60278   1.64921   1.65706
 Alpha virt. eigenvalues --    1.65961   1.68749   1.75709   1.75712   1.81012
 Alpha virt. eigenvalues --    1.81112   1.81527   1.82536   1.86372   1.86970
 Alpha virt. eigenvalues --    1.89139   1.89704   1.91555   1.92497   1.95039
 Alpha virt. eigenvalues --    1.96989   2.06479   2.06678   2.08911   2.09492
 Alpha virt. eigenvalues --    2.10253   2.10308   2.10666   2.11086   2.14315
 Alpha virt. eigenvalues --    2.14763   2.20993   2.21025   2.21085   2.21403
 Alpha virt. eigenvalues --    2.23986   2.25152   2.26349   2.26487   2.28789
 Alpha virt. eigenvalues --    2.29528   2.32647   2.36853   2.53189   2.53328
 Alpha virt. eigenvalues --    2.53732   2.54810   2.65169   2.65178   2.65510
 Alpha virt. eigenvalues --    2.67282   2.67397   2.67990   2.71322   2.72727
 Alpha virt. eigenvalues --    2.74970   2.75035   2.76364   2.80422   2.94740
 Alpha virt. eigenvalues --    3.01448   3.02155   3.02818   3.18906   3.20354
 Alpha virt. eigenvalues --    3.25938   3.26082   3.39520   3.40175   3.66899
 Alpha virt. eigenvalues --    3.69562   3.75575   3.77125
          Condensed to atoms (all electrons):
 Mulliken charges:
               1
     1  O   -0.356323
     2  C    0.330049
     3  O   -0.293979
     4  C   -0.375379
     5  C   -0.110863
     6  Cl  -0.133255
     7  C   -0.081495
     8  Cl  -0.144959
     9  C   -0.110784
    10  Cl  -0.133286
    11  H    0.365253
    12  H    0.174736
    13  H    0.174022
    14  H    0.173763
    15  H    0.173829
    16  H    0.174021
    17  H    0.174685
    18  O   -0.356332
    19  C    0.330009
    20  O   -0.293985
    21  C   -0.375352
    22  C   -0.110848
    23  Cl  -0.133277
    24  C   -0.081463
    25  Cl  -0.144957
    26  C   -0.110798
    27  Cl  -0.133324
    28  H    0.365224
    29  H    0.174744
    30  H    0.174015
    31  H    0.173757
    32  H    0.173813
    33  H    0.174060
    34  H    0.174681
 Sum of Mulliken charges =   0.00000
 Mulliken charges with hydrogens summed into heavy atoms:
               1
     1  O    0.008930
     2  C    0.330049
     3  O   -0.293979
     4  C   -0.375379
     5  C    0.237896
     6  Cl  -0.133255
     7  C    0.266097
     8  Cl  -0.144959
     9  C    0.237922
    10  Cl  -0.133286
    18  O    0.008892
    19  C    0.330009
    20  O   -0.293985
    21  C   -0.375352
    22  C    0.237910
    23  Cl  -0.133277
    24  C    0.266107
    25  Cl  -0.144957
    26  C    0.237943
    27  Cl  -0.133324
 Electronic spatial extent (au):  <R**2>=          12872.3042
 Charge=              0.0000 electrons
 Dipole moment (field-independent basis, Debye):
    X=             -0.0010    Y=              0.0070    Z=              0.0012  Tot=              0.0071
 Evaluate density.
 Using the total density.
 Monte-Carlo method of calculating molar volume:
 based on  0.001 e/bohr**3 density envelope.
 Number of points per bohr**3 =  100 CutOff= 1.00D-04
 Using the SCF density.
 There are      2722 points.  Will hold      2722 in memory.
 LenV=  1047489562 MDV=  1048576000.
 Box volume =20169.211 fraction occupied=0.132
 Integrated density= 1.5085835751314275D+02 error=-5.7141642486857251D+01
 Molar volume = 2652.674 bohr**3/mol (236.722 cm**3/mol)
 Recommended a0 for SCRF calculation =  5.50 angstrom ( 10.40 bohr)
   1 Symmetry operations used in ECPInt.
 ECPInt:  NShTT=   12880 NPrTT=   55640 LenC2=   10919 LenP2D=   30380.
 LDataN:  DoStor=T MaxTD1= 5 Len=  102
 Calling FoFJK, ICntrl=      2127 FMM=F ISym2X=0 I1Cent= 0 IOpClX= 0 NMat=1 NMatS=1 NMatT=0.

 GradGradGradGradGradGradGradGradGradGradGradGradGradGradGradGradGradGrad
 FormGI is forming the generalized inverse of G from B-inverse, IUseBI=4.
 Internal  Forces:  Max     0.011414043 RMS     0.003592979
 Step number   1 out of a maximum of  182
 All quantities printed in internal units (Hartrees-Bohrs-Radians)
 Mixed Optimization -- RFO/linear search
 Second derivative matrix not updated -- first step.
 ITU=  0
     Eigenvalues ---    0.00261   0.00261   0.00338   0.00338   0.00338
     Eigenvalues ---    0.00338   0.00382   0.00382   0.00513   0.01405
     Eigenvalues ---    0.01598   0.01741   0.02153   0.03307   0.03699
     Eigenvalues ---    0.04374   0.04374   0.04966   0.05400   0.05400
     Eigenvalues ---    0.05420   0.05613   0.05614   0.05714   0.05715
     Eigenvalues ---    0.05715   0.05716   0.05731   0.05732   0.05739
     Eigenvalues ---    0.05739   0.05739   0.05739   0.05864   0.05865
     Eigenvalues ---    0.08226   0.09474   0.15027   0.15029   0.15205
     Eigenvalues ---    0.15206   0.16000   0.16000   0.16000   0.16000
     Eigenvalues ---    0.16000   0.16000   0.16000   0.16000   0.16000
     Eigenvalues ---    0.16000   0.16000   0.16000   0.16000   0.21284
     Eigenvalues ---    0.22372   0.22372   0.22385   0.22385   0.22385
     Eigenvalues ---    0.22386   0.22986   0.25000   0.25000   0.27410
     Eigenvalues ---    0.27419   0.27420   0.27429   0.28092   0.28093
     Eigenvalues ---    0.28682   0.28683   0.29205   0.29208   0.29209
     Eigenvalues ---    0.29210   0.29515   0.29516   0.34861   0.34863
     Eigenvalues ---    0.34866   0.34866   0.34873   0.34874   0.34875
     Eigenvalues ---    0.34875   0.34907   0.34907   0.34908   0.34909
     Eigenvalues ---    0.44070   0.46314   0.65226   0.67282   0.94237
     Eigenvalues ---    0.98719
 Linear search not attempted -- first point.
 Iteration  1 RMS(Cart)=  0.05876569 RMS(Int)=  0.00169596
 Iteration  2 RMS(Cart)=  0.00222259 RMS(Int)=  0.00010530
 Iteration  3 RMS(Cart)=  0.00000278 RMS(Int)=  0.00010529
 Iteration  4 RMS(Cart)=  0.00000000 RMS(Int)=  0.00010529
 Variable       Old X    -DE/DX   Delta X   Delta X   Delta X     New X
                                 (Linear)    (Quad)   (Total)
    R1        2.45605   0.00531   0.00000   0.00773   0.00773   2.46377
    R2        1.90477  -0.00238   0.00000  -0.00520  -0.00519   1.89959
    R3        2.29156   0.00641   0.00000   0.00646   0.00646   2.29802
    R4        2.90672  -0.00060   0.00000  -0.00202  -0.00202   2.90469
    R5        3.11414  -0.00167   0.00000  -0.01730  -0.01731   3.09683
    R6        2.89578   0.00631   0.00000   0.02090   0.02090   2.91668
    R7        2.88941   0.00603   0.00000   0.01976   0.01976   2.90917
    R8        2.89567   0.00633   0.00000   0.02094   0.02094   2.91661
    R9        3.37103   0.00590   0.00000   0.02075   0.02075   3.39178
   R10        2.05822   0.00636   0.00000   0.01771   0.01771   2.07593
   R11        2.05879   0.00631   0.00000   0.01760   0.01760   2.07639
   R12        3.35636   0.00920   0.00000   0.03163   0.03163   3.38799
   R13        2.05900   0.00526   0.00000   0.01466   0.01466   2.07367
   R14        2.05897   0.00526   0.00000   0.01466   0.01466   2.07363
   R15        3.37126   0.00586   0.00000   0.02061   0.02061   3.39186
   R16        2.05882   0.00630   0.00000   0.01757   0.01757   2.07638
   R17        2.05825   0.00635   0.00000   0.01769   0.01769   2.07594
   R18        3.11461  -0.00168   0.00000  -0.01901  -0.01900   3.09560
   R19        2.45604   0.00533   0.00000   0.00786   0.00785   2.46389
   R20        1.90481  -0.00238   0.00000  -0.00488  -0.00489   1.89992
   R21        2.29156   0.00640   0.00000   0.00639   0.00639   2.29796
   R22        2.90668  -0.00059   0.00000  -0.00198  -0.00198   2.90471
   R23        2.89570   0.00629   0.00000   0.02083   0.02083   2.91654
   R24        2.88940   0.00605   0.00000   0.01982   0.01982   2.90921
   R25        2.89570   0.00636   0.00000   0.02106   0.02106   2.91676
   R26        3.37123   0.00585   0.00000   0.02057   0.02057   3.39180
   R27        2.05826   0.00634   0.00000   0.01767   0.01767   2.07593
   R28        2.05878   0.00631   0.00000   0.01760   0.01760   2.07639
   R29        3.35638   0.00920   0.00000   0.03164   0.03164   3.38802
   R30        2.05893   0.00529   0.00000   0.01474   0.01474   2.07368
   R31        2.05893   0.00528   0.00000   0.01471   0.01471   2.07364
   R32        3.37147   0.00583   0.00000   0.02051   0.02051   3.39198
   R33        2.05880   0.00630   0.00000   0.01757   0.01757   2.07636
   R34        2.05824   0.00636   0.00000   0.01770   0.01770   2.07594
    A1        1.96439  -0.00321   0.00000  -0.03542  -0.03540   1.92899
    A2        2.18121   0.00077   0.00000  -0.00383  -0.00383   2.17738
    A3        1.96492   0.00019   0.00000   0.00414   0.00414   1.96906
    A4        2.13705  -0.00097   0.00000  -0.00031  -0.00031   2.13674
    A5        2.26893  -0.00112   0.00000  -0.02129  -0.02131   2.24762
    A6        1.88434   0.00184   0.00000   0.01135   0.01143   1.89576
    A7        1.89479  -0.00325   0.00000  -0.01388  -0.01403   1.88076
    A8        1.88472   0.00182   0.00000   0.01113   0.01121   1.89593
    A9        1.94435   0.00232   0.00000   0.01419   0.01428   1.95862
   A10        1.90951  -0.00503   0.00000  -0.03661  -0.03659   1.87292
   A11        1.94414   0.00232   0.00000   0.01408   0.01417   1.95831
   A12        1.91860   0.01139   0.00000   0.05312   0.05296   1.97156
   A13        1.93355  -0.00114   0.00000  -0.00520  -0.00552   1.92803
   A14        1.93340  -0.00193   0.00000  -0.01324  -0.01335   1.92005
   A15        1.86657  -0.00351   0.00000  -0.00309  -0.00345   1.86312
   A16        1.87786  -0.00416   0.00000  -0.01392  -0.01388   1.86398
   A17        1.93185  -0.00059   0.00000  -0.01660  -0.01685   1.91500
   A18        1.93972   0.00696   0.00000   0.03279   0.03268   1.97239
   A19        1.92564  -0.00048   0.00000  -0.00299  -0.00308   1.92256
   A20        1.92571  -0.00046   0.00000  -0.00286  -0.00296   1.92275
   A21        1.87842  -0.00254   0.00000  -0.00596  -0.00607   1.87235
   A22        1.87846  -0.00254   0.00000  -0.00592  -0.00603   1.87243
   A23        1.91470  -0.00108   0.00000  -0.01562  -0.01568   1.89902
   A24        1.91863   0.01137   0.00000   0.05304   0.05287   1.97150
   A25        1.93332  -0.00192   0.00000  -0.01324  -0.01334   1.91998
   A26        1.93371  -0.00114   0.00000  -0.00514  -0.00546   1.92825
   A27        1.87782  -0.00416   0.00000  -0.01399  -0.01394   1.86388
   A28        1.86656  -0.00350   0.00000  -0.00304  -0.00340   1.86317
   A29        1.93178  -0.00059   0.00000  -0.01657  -0.01682   1.91497
   A30        1.96440  -0.00323   0.00000  -0.03322  -0.03324   1.93117
   A31        2.18111   0.00080   0.00000  -0.00356  -0.00356   2.17756
   A32        1.96478   0.00023   0.00000   0.00420   0.00420   1.96898
   A33        2.13730  -0.00103   0.00000  -0.00064  -0.00064   2.13665
   A34        2.26898  -0.00113   0.00000  -0.02275  -0.02273   2.24625
   A35        1.88465   0.00180   0.00000   0.01097   0.01105   1.89570
   A36        1.89492  -0.00328   0.00000  -0.01406  -0.01421   1.88071
   A37        1.88417   0.00189   0.00000   0.01172   0.01179   1.89596
   A38        1.94433   0.00235   0.00000   0.01422   0.01431   1.95864
   A39        1.90969  -0.00504   0.00000  -0.03669  -0.03667   1.87302
   A40        1.94408   0.00230   0.00000   0.01411   0.01419   1.95828
   A41        1.91872   0.01132   0.00000   0.05282   0.05266   1.97138
   A42        1.93353  -0.00113   0.00000  -0.00512  -0.00544   1.92809
   A43        1.93347  -0.00193   0.00000  -0.01324  -0.01334   1.92012
   A44        1.86650  -0.00349   0.00000  -0.00304  -0.00339   1.86310
   A45        1.87781  -0.00413   0.00000  -0.01384  -0.01379   1.86402
   A46        1.93180  -0.00059   0.00000  -0.01652  -0.01677   1.91503
   A47        1.93952   0.00702   0.00000   0.03309   0.03298   1.97249
   A48        1.92562  -0.00048   0.00000  -0.00297  -0.00306   1.92256
   A49        1.92568  -0.00046   0.00000  -0.00290  -0.00299   1.92270
   A50        1.87854  -0.00256   0.00000  -0.00603  -0.00614   1.87240
   A51        1.87849  -0.00257   0.00000  -0.00605  -0.00616   1.87233
   A52        1.91480  -0.00109   0.00000  -0.01570  -0.01577   1.89904
   A53        1.91851   0.01141   0.00000   0.05324   0.05307   1.97158
   A54        1.93344  -0.00193   0.00000  -0.01334  -0.01345   1.91999
   A55        1.93373  -0.00113   0.00000  -0.00508  -0.00541   1.92832
   A56        1.87777  -0.00419   0.00000  -0.01417  -0.01412   1.86365
   A57        1.86651  -0.00351   0.00000  -0.00293  -0.00329   1.86322
   A58        1.93186  -0.00059   0.00000  -0.01663  -0.01689   1.91497
   A59        3.01015   0.00356   0.00000   0.06219   0.06221   3.07236
   A60        3.01037   0.00355   0.00000   0.05787   0.05785   3.06822
   A61        3.14161  -0.00000   0.00000   0.00004   0.00003   3.14164
   A62        3.14140  -0.00000   0.00000  -0.00025  -0.00025   3.14115
    D1        0.00054  -0.00001   0.00000  -0.00019  -0.00019   0.00035
    D2       -3.14089  -0.00001   0.00000  -0.00041  -0.00040  -3.14129
    D3       -0.00243   0.00001   0.00000   0.00028   0.00028  -0.00214
    D4        0.00061  -0.00000   0.00000  -0.00015  -0.00015   0.00047
    D5       -3.14116   0.00000   0.00000   0.00008   0.00009  -3.14107
    D6        1.03130  -0.00198   0.00000  -0.01534  -0.01532   1.01598
    D7        3.14143   0.00001   0.00000   0.00035   0.00035  -3.14141
    D8       -1.03164   0.00198   0.00000   0.01577   0.01575  -1.01590
    D9       -2.11014  -0.00198   0.00000  -0.01555  -0.01552  -2.12566
   D10       -0.00000   0.00000   0.00000   0.00014   0.00014   0.00013
   D11        2.11011   0.00198   0.00000   0.01557   0.01554   2.12565
   D12       -0.00112   0.00000   0.00000   0.00029   0.00029  -0.00083
   D13        0.92620   0.00025   0.00000   0.04176   0.04191   0.96812
   D14       -1.13301  -0.00182   0.00000   0.01568   0.01570  -1.11731
   D15        2.99926   0.00110   0.00000   0.04987   0.04984   3.04910
   D16       -1.15272   0.00171   0.00000   0.04326   0.04330  -1.10942
   D17        3.07125  -0.00036   0.00000   0.01718   0.01710   3.08834
   D18        0.92034   0.00256   0.00000   0.05137   0.05123   0.97157
   D19        2.97320   0.00071   0.00000   0.04142   0.04154   3.01474
   D20        0.91398  -0.00135   0.00000   0.01535   0.01533   0.92931
   D21       -1.23693   0.00156   0.00000   0.04954   0.04947  -1.18746
   D22       -3.14071  -0.00001   0.00000  -0.00037  -0.00037  -3.14109
   D23        1.06021  -0.00100   0.00000  -0.01203  -0.01204   1.04817
   D24       -1.05836   0.00098   0.00000   0.01142   0.01143  -1.04692
   D25       -1.06803   0.00158   0.00000   0.01331   0.01326  -1.05476
   D26        3.13289   0.00060   0.00000   0.00165   0.00160   3.13449
   D27        1.01433   0.00258   0.00000   0.02510   0.02507   1.03940
   D28        1.06943  -0.00159   0.00000  -0.01372  -0.01367   1.05576
   D29       -1.01284  -0.00257   0.00000  -0.02537  -0.02534  -1.03818
   D30       -3.13140  -0.00060   0.00000  -0.00192  -0.00187  -3.13327
   D31       -0.92452  -0.00025   0.00000  -0.04237  -0.04252  -0.96704
   D32       -2.99750  -0.00109   0.00000  -0.05033  -0.05030  -3.04780
   D33        1.13480   0.00181   0.00000  -0.01623  -0.01625   1.11855
   D34       -2.97127  -0.00073   0.00000  -0.04217  -0.04228  -3.01355
   D35        1.23894  -0.00157   0.00000  -0.05013  -0.05006   1.18887
   D36       -0.91194   0.00134   0.00000  -0.01603  -0.01601  -0.92796
   D37        1.15453  -0.00173   0.00000  -0.04407  -0.04412   1.11041
   D38       -0.91845  -0.00256   0.00000  -0.05203  -0.05190  -0.97035
   D39       -3.06933   0.00034   0.00000  -0.01793  -0.01785  -3.08718
   D40       -0.00067   0.00000   0.00000  -0.00004  -0.00004  -0.00070
   D41        3.14088   0.00001   0.00000   0.00019   0.00019   3.14107
   D42        0.00226  -0.00000   0.00000  -0.00007  -0.00006   0.00220
   D43       -3.13928  -0.00001   0.00000  -0.00032  -0.00032  -3.13959
   D44        1.03054  -0.00198   0.00000  -0.01523  -0.01521   1.01533
   D45        3.14091   0.00000   0.00000   0.00017   0.00017   3.14108
   D46       -1.03248   0.00198   0.00000   0.01586   0.01583  -1.01665
   D47       -2.11110  -0.00198   0.00000  -0.01501  -0.01498  -2.12609
   D48       -0.00073   0.00001   0.00000   0.00039   0.00039  -0.00034
   D49        2.10906   0.00199   0.00000   0.01608   0.01606   2.12512
   D50        0.92657   0.00022   0.00000   0.04139   0.04154   0.96810
   D51       -1.13262  -0.00183   0.00000   0.01539   0.01541  -1.11721
   D52        2.99968   0.00106   0.00000   0.04942   0.04938   3.04906
   D53       -1.15270   0.00171   0.00000   0.04332   0.04337  -1.10933
   D54        3.07130  -0.00034   0.00000   0.01732   0.01724   3.08853
   D55        0.92041   0.00256   0.00000   0.05135   0.05121   0.97163
   D56        2.97317   0.00073   0.00000   0.04150   0.04161   3.01478
   D57        0.91398  -0.00133   0.00000   0.01550   0.01548   0.92947
   D58       -1.23690   0.00157   0.00000   0.04952   0.04946  -1.18744
   D59        3.14145   0.00003   0.00000   0.00049   0.00049  -3.14124
   D60        1.05919  -0.00097   0.00000  -0.01128  -0.01129   1.04789
   D61       -1.05948   0.00102   0.00000   0.01228   0.01229  -1.04718
   D62       -1.06859   0.00158   0.00000   0.01362   0.01357  -1.05502
   D63        3.13233   0.00059   0.00000   0.00184   0.00179   3.13411
   D64        1.01366   0.00258   0.00000   0.02541   0.02538   1.03904
   D65        1.06905  -0.00160   0.00000  -0.01347  -0.01343   1.05562
   D66       -1.01322  -0.00259   0.00000  -0.02525  -0.02522  -1.03843
   D67       -3.13188  -0.00061   0.00000  -0.00168  -0.00163  -3.13351
   D68       -0.92304  -0.00028   0.00000  -0.04343  -0.04359  -0.96663
   D69       -2.99596  -0.00111   0.00000  -0.05124  -0.05121  -3.04717
   D70        1.13615   0.00181   0.00000  -0.01700  -0.01703   1.11913
   D71       -2.96995  -0.00074   0.00000  -0.04308  -0.04320  -3.01315
   D72        1.24032  -0.00157   0.00000  -0.05089  -0.05082   1.18950
   D73       -0.91075   0.00135   0.00000  -0.01665  -0.01663  -0.92739
   D74        1.15578  -0.00175   0.00000  -0.04498  -0.04503   1.11075
   D75       -0.91714  -0.00258   0.00000  -0.05279  -0.05265  -0.96979
   D76       -3.06821   0.00034   0.00000  -0.01855  -0.01846  -3.08667
         Item               Value     Threshold  Converged?
 Maximum Force            0.011414     0.000015     NO 
 RMS     Force            0.003593     0.000010     NO 
 Maximum Displacement     0.229517     0.000060     NO 
 RMS     Displacement     0.059829     0.000040     NO 
 GradGradGradGradGradGradGradGradGradGradGradGradGradGradGradGradGradGrad

                    Distance matrix (angstroms):
                    1          2          3          4          5
     1  O    0.000000
     2  C    1.303773   0.000000
     3  O    2.232997   1.216060   0.000000
     4  C    2.369997   1.537097   2.417861   0.000000
     5  C    2.856649   2.501959   3.459445   1.543443   0.000000
     6  Cl   3.520280   3.098523   3.620507   2.786607   1.794855
     7  C    3.664560   2.485194   2.694846   1.539465   2.559166
     8  Cl   5.146766   4.127551   4.484886   2.782444   3.226859
     9  C    2.856778   2.502080   3.459553   1.543406   2.486349
    10  Cl   3.519201   3.097953   3.620106   2.786560   4.127787
    11  H    1.005218   1.905052   2.350131   3.260987   3.772115
    12  H    2.602916   2.777737   3.897462   2.185126   1.098535
    13  H    3.893357   3.462914   4.357844   2.179492   1.098777
    14  H    3.938251   2.719113   2.632565   2.176748   3.507519
    15  H    3.938073   2.718669   2.631581   2.176870   2.805022
    16  H    3.893745   3.462912   4.357546   2.179405   2.785833
    17  H    2.604037   2.778682   3.898464   2.185260   2.666483
    18  O    3.703570   3.513619   2.642487   4.980796   5.819499
    19  C    3.513123   3.790901   3.288902   5.327926   6.007477
    20  O    2.641849   3.288663   3.196681   4.777654   5.319781
    21  C    4.980203   5.327929   4.777984   6.864987   7.506660
    22  C    5.819591   6.008012   5.320589   7.507157   8.010588
    23  Cl   5.588868   5.860980   5.362664   7.250851   7.410359
    24  C    5.295830   5.968982   5.698199   7.470741   7.951929
    25  Cl   7.087003   7.746620   7.406826   9.256436   9.726857
    26  C    5.817942   6.006922   5.320365   7.505743   8.385858
    27  Cl   5.583809   5.856772   5.360193   7.245769   8.284939
    28  H    2.992821   2.580833   1.638772   4.004362   4.903361
    29  H    5.995676   5.944375   5.077541   7.393292   7.996114
    30  H    6.828177   7.079468   6.406289   8.587448   9.074746
    31  H    5.050210   5.826880   5.687433   7.278750   7.838939
    32  H    5.051275   5.827524   5.687546   7.279617   7.551759
    33  H    6.826181   7.078300   6.406201   8.585947   9.426933
    34  H    5.995885   5.945135   5.079084   7.393780   8.357332
                    6          7          8          9         10
     6  Cl   0.000000
     7  C    3.263525   0.000000
     8  Cl   4.082864   1.792849   0.000000
     9  C    4.127858   2.558865   3.227114   0.000000
    10  Cl   5.557279   3.263743   4.084648   1.794898   0.000000
    11  H    4.131980   4.389917   5.992059   3.772464   4.131200
    12  H    2.358961   3.509766   4.197076   2.666912   4.331382
    13  H    2.359817   2.774056   2.762165   2.785187   4.495782
    14  H    4.239834   1.097338   2.363704   2.803949   2.838291
    15  H    2.838856   1.097319   2.363754   3.507360   4.239480
    16  H    4.495895   2.773074   2.761797   1.098776   2.359769
    17  H    4.331665   3.509632   4.196788   1.098542   2.359039
    18  O    5.588224   5.296730   7.087908   5.819053   5.586074
    19  C    5.860218   5.969315   7.746873   6.007201   5.858154
    20  O    5.361699   5.698124   7.406595   5.320280   5.361212
    21  C    7.250296   7.471205   9.256827   7.505861   7.246954
    22  C    7.410332   7.952935   9.727755   8.386381   8.286378
    23  Cl   6.531440   7.793900   9.485176   8.289640   8.572864
    24  C    7.792898   8.321226  10.063236   7.951609   7.790466
    25  Cl   9.484455  10.063423  11.820621   9.726280   9.481417
    26  C    8.289154   7.952035   9.726800   8.007507   7.404420
    27  Cl   8.571525   7.789697   9.480812   7.403422   6.522235
    28  H    4.773460   4.295224   6.087447   4.903175   4.772058
    29  H    7.340936   7.627325   9.387397   8.355715   8.186212
    30  H    8.455942   9.047574  10.824408   9.427430   9.277011
    31  H    7.928130   8.220496   9.921276   7.550580   7.273922
    32  H    7.276689   8.221051   9.921857   7.839990   7.927137
    33  H    9.280322   9.046843  10.823584   9.071170   8.449269
    34  H    8.191102   7.628249   9.388290   7.994731   7.336447
                   11         12         13         14         15
    11  H    0.000000
    12  H    3.509490   0.000000
    13  H    4.839366   1.796862   0.000000
    14  H    4.534208   4.339794   3.785753   0.000000
    15  H    4.533722   3.820834   3.104007   1.784541   0.000000
    16  H    4.839849   3.080911   2.635092   3.101694   3.785274
    17  H    3.510954   2.374763   3.079088   3.820262   4.339941
    18  O    2.990922   5.995506   6.828184   5.052014   5.051477
    19  C    2.579376   5.943718   7.078993   5.827938   5.827452
    20  O    1.638123   5.076644   6.405517   5.687975   5.687168
    21  C    4.003229   7.392579   8.587006   7.279921   7.279793
    22  C    4.902544   7.995887   9.074800   7.840657   7.552538
    23  Cl   4.773405   7.340772   8.455973   7.929803   7.277585
    24  C    4.294770   7.626069   9.046577   8.221181   8.220863
    25  Cl   6.087022   9.386164  10.823507   9.922131   9.921960
    26  C    4.901304   8.354930   9.427000   7.551684   7.840101
    27  Cl   4.769538   8.184591   9.275637   7.273700   7.926051
    28  H    2.491472   5.162869   5.882734   4.087670   4.086911
    29  H    5.161611   8.130405   9.017910   7.445828   7.155858
    30  H    5.882031   9.017595  10.145269   8.914311   8.646810
    31  H    4.086708   7.443833   8.912601   8.071368   8.265871
    32  H    4.087468   7.154887   8.646006   8.266739   8.071391
    33  H    5.880394   9.355741  10.479855   8.646043   8.914222
    34  H    5.162124   8.469994   9.358470   7.156661   7.447133
                   16         17         18         19         20
    16  H    0.000000
    17  H    1.796846   0.000000
    18  O    6.827444   5.996267   0.000000
    19  C    7.078624   5.944675   1.303833   0.000000
    20  O    6.406036   5.078336   2.233120   1.216026   0.000000
    21  C    8.586143   7.393057   2.369987   1.537105   2.417782
    22  C    9.427530   8.357025   2.856155   2.501851   3.459428
    23  Cl   9.280714   8.190864   3.519375   3.098158   3.620342
    24  C    9.046359   7.626975   3.664569   2.485171   2.694679
    25  Cl  10.823024   9.386829   5.146869   4.127609   4.484744
    26  C    9.071421   7.993817   2.857201   2.502174   3.459380
    27  Cl   8.448562   7.334629   3.519655   3.097939   3.619710
    28  H    5.882208   5.163810   1.005392   1.906637   2.352461
    29  H    9.356702   8.469948   2.602329   2.777616   3.897421
    30  H   10.480362   9.358029   3.892967   3.462860   4.357839
    31  H    8.644890   7.154680   3.938348   2.718943   2.631999
    32  H    8.913924   7.446277   3.937937   2.718715   2.631749
    33  H   10.141424   9.014845   3.894198   3.462962   4.357218
    34  H    9.016110   8.130063   2.604869   2.779120   3.898717
                   21         22         23         24         25
    21  C    0.000000
    22  C    1.543366   0.000000
    23  Cl   2.786388   1.794864   0.000000
    24  C    1.539488   2.559132   3.263215   0.000000
    25  Cl   2.782564   3.227144   4.083004   1.792864   0.000000
    26  C    1.543483   2.486444   4.127855   2.558921   3.227180
    27  Cl   2.786750   4.127904   5.557205   3.264141   4.085055
    28  H    3.262009   3.772438   4.132398   4.391455   5.993405
    29  H    2.185100   1.098532   2.358953   3.509770   4.197417
    30  H    2.179478   1.098776   2.359849   2.774106   2.762593
    31  H    2.176769   3.507473   4.239372   1.097343   2.363758
    32  H    2.176856   2.804799   2.838278   1.097325   2.363688
    33  H    2.179475   2.786288   4.496196   2.772884   2.761635
    34  H    2.185377   2.666432   4.331694   3.509707   4.196709
                   26         27         28         29         30
    26  C    0.000000
    27  Cl   1.794960   0.000000
    28  H    3.772999   4.131691   0.000000
    29  H    2.667130   4.331475   3.509065   0.000000
    30  H    2.785332   4.496095   4.839696   1.796881   0.000000
    31  H    2.804097   2.838844   4.535793   4.339796   3.785882
    32  H    3.507409   4.239921   4.535518   3.820630   3.103786
    33  H    1.098765   2.359636   4.840439   3.081642   2.635668
    34  H    1.098539   2.359133   3.511271   2.374854   3.078885
                   31         32         33         34
    31  H    0.000000
    32  H    1.784562   0.000000
    33  H    3.101510   3.785099   0.000000
    34  H    3.820502   4.340020   1.796836   0.000000
 Framework group  C1[X(C10H14Cl6O4)]
 Deg. of freedom    96
                         Standard orientation:                         
 ---------------------------------------------------------------------
 Center     Atomic      Atomic             Coordinates (Angstroms)
 Number     Number       Type             X           Y           Z
 ---------------------------------------------------------------------
      1          8           0        1.268318    0.000233    1.348595
      2          6           0        1.884801   -0.000458    0.199781
      3          8           0        1.332232   -0.001477   -0.883486
      4          6           0        3.415075    0.000220    0.344444
      5          6           0        3.833613   -1.242234    1.158908
      6         17           0        3.234100   -2.778486    0.450377
      7          6           0        4.020549   -0.000422   -1.070955
      8         17           0        5.813392   -0.000564   -1.066255
      9          6           0        3.832928    1.244115    1.156986
     10         17           0        3.230883    2.778791    0.447079
     11          1           0        0.272155   -0.000527    1.213978
     12          1           0        3.431104   -1.185993    2.179497
     13          1           0        4.929289   -1.315912    1.195996
     14          1           0        3.696145    0.891742   -1.621369
     15          1           0        3.695925   -0.892799   -1.620855
     16          1           0        4.928555    1.319178    1.192698
     17          1           0        3.431707    1.188769    2.178138
     18          8           0       -1.268857   -0.001359   -1.349398
     19          6           0       -1.884929   -0.001019   -0.200295
     20          8           0       -1.332147   -0.001763    0.882826
     21          6           0       -3.415254    0.000192   -0.344501
     22          6           0       -3.834366   -1.242103   -1.158766
     23         17           0       -3.234968   -2.778351   -0.450106
     24          6           0       -4.020238   -0.000266    1.071132
     25         17           0       -5.813098    0.000468    1.067240
     26          6           0       -3.832988    1.244340   -1.156864
     27         17           0       -3.229714    2.778851   -0.447485
     28          1           0       -0.272180   -0.001661   -1.217304
     29          1           0       -3.432064   -1.186125   -2.179449
     30          1           0       -4.930067   -1.315541   -1.195568
     31          1           0       -3.695100    0.891639    1.621543
     32          1           0       -3.695911   -0.892923    1.620766
     33          1           0       -4.928582    1.320124   -1.191691
     34          1           0       -3.432626    1.188729   -2.178336
 ---------------------------------------------------------------------
 Rotational constants (GHZ):           0.3380822           0.0854054           0.0747313
   332 basis functions,   628 primitive gaussians,   352 cartesian basis functions
   104 alpha electrons      104 beta electrons
       nuclear repulsion energy      2556.5659102067 Hartrees.
 NAtoms=   34 NActive=   34 NUniq=   34 SFac= 1.00D+00 NAtFMM=   60 NAOKFM=F Big=F
 Nuclear repulsion after empirical dispersion term =     2556.5379847765 Hartrees.
   1 Symmetry operations used in ECPInt.
 ECPInt:  NShTT=   12880 NPrTT=   55640 LenC2=   10891 LenP2D=   30253.
 LDataN:  DoStor=T MaxTD1= 4 Len=   56
 Initial guess from the checkpoint file:  "dimer.chk"
 B after Tr=    -0.000000    0.000000    0.000000
         Rot=    0.999999   -0.000102   -0.001504   -0.000093 Ang=  -0.17 deg.
 ExpMin= 1.22D-01 ExpMax= 1.04D+04 ExpMxC= 1.57D+03 IAcc=3 IRadAn=         5 AccDes= 0.00D+00
 Harris functional with IExCor= 4639 and IRadAn=       5 diagonalized for initial guess.
 HarFok:  IExCor= 4639 AccDes= 0.00D+00 IRadAn=         5 IDoV= 1 UseB2=F ITyADJ=14
 ICtDFT=  3500011 ScaDFX=  1.000000  1.000000  1.000000  1.000000
 FoFCou: FMM=F IPFlag=           0 FMFlag=      100000 FMFlg1=           0
         NFxFlg=           0 DoJE=T BraDBF=F KetDBF=T FulRan=T
         wScrn=  0.000000 ICntrl=       500 IOpCl=  0 I1Cent=   200000004 NGrid=           0
         NMat0=    1 NMatS0=      1 NMatT0=    0 NMatD0=    1 NMtDS0=    0 NMtDT0=    0
 Petite list used in FoFCou.
     Minimum is close to point  4 DX=  1.23D-01 DF= -7.46D-05 DXR=  9.33D-02 DFR=  8.77D-03 which will be used.
     Accept linear search using points  2 and  3.
     Accept linear search using points  1 and  2.
     Accept linear search using points  1 and  2.
     Accept linear search using points  1 and  2.
     Minimum is close to point  2 DX= -7.14D-02 DF= -1.30D-06 DXR=  7.68D-02 DFR=  5.94D-03 which will be used.
     Accept linear search using points  1 and  2.
     Accept linear search using points  1 and  2.
 Restarting incremental Fock formation.
     Accept linear search using points  1 and  2.
     Minimum is close to point  2 DX= -3.90D-05 DF=  0.00D+00 DXR=  3.90D-05 DFR=  0.00D+00 which will be used.
 SCF Done:  E(RwB97XD) =  -3450.04538434     a.u. after   11 cycles
            Convg  =    0.6187D-09                    44 Fock formations.
              S**2 =  0.0000                  -V/T =  2.0035
   1 Symmetry operations used in ECPInt.
 ECPInt:  NShTT=   12880 NPrTT=   55640 LenC2=   10891 LenP2D=   30253.
 LDataN:  DoStor=T MaxTD1= 5 Len=  102
 Calling FoFJK, ICntrl=      2127 FMM=F ISym2X=0 I1Cent= 0 IOpClX= 0 NMat=1 NMatS=1 NMatT=0.

 GradGradGradGradGradGradGradGradGradGradGradGradGradGradGradGradGradGrad
 Using GEDIIS/GDIIS optimizer.
 FormGI is forming the generalized inverse of G from B-inverse, IUseBI=4.
 Internal  Forces:  Max     0.003838039 RMS     0.001145549
 Step number   2 out of a maximum of  182
 All quantities printed in internal units (Hartrees-Bohrs-Radians)
 Mixed Optimization -- RFO/linear search
 Trust test= 7.71D-01 RLast= 3.23D-01 DXMaxT set to 5.05D-01
 ITU=  1  0
 Use linear search instead of GDIIS.
     Eigenvalues ---    0.00261   0.00261   0.00338   0.00338   0.00338
     Eigenvalues ---    0.00346   0.00382   0.00382   0.00509   0.01352
     Eigenvalues ---    0.01587   0.01735   0.02122   0.03287   0.03698
     Eigenvalues ---    0.04318   0.04399   0.04864   0.05291   0.05292
     Eigenvalues ---    0.05306   0.05386   0.05387   0.05392   0.05393
     Eigenvalues ---    0.05394   0.05402   0.05804   0.05805   0.05819
     Eigenvalues ---    0.05820   0.05820   0.05852   0.05896   0.06026
     Eigenvalues ---    0.08169   0.09433   0.14744   0.14745   0.14770
     Eigenvalues ---    0.15463   0.15992   0.16000   0.16000   0.16000
     Eigenvalues ---    0.16000   0.16000   0.16000   0.16000   0.16000
     Eigenvalues ---    0.16000   0.16000   0.16000   0.16115   0.21270
     Eigenvalues ---    0.22262   0.22329   0.22349   0.22349   0.22350
     Eigenvalues ---    0.22980   0.24476   0.25000   0.25005   0.27413
     Eigenvalues ---    0.27420   0.27426   0.27679   0.27739   0.28092
     Eigenvalues ---    0.28682   0.28684   0.29206   0.29208   0.29209
     Eigenvalues ---    0.29409   0.29515   0.33264   0.34832   0.34862
     Eigenvalues ---    0.34864   0.34866   0.34873   0.34873   0.34874
     Eigenvalues ---    0.34875   0.34907   0.34908   0.34909   0.36219
     Eigenvalues ---    0.44030   0.46446   0.65210   0.66948   0.94221
     Eigenvalues ---    0.98263
 Quartic linear search produced a step of -0.11028.
 Iteration  1 RMS(Cart)=  0.03607727 RMS(Int)=  0.00084794
 Iteration  2 RMS(Cart)=  0.00088645 RMS(Int)=  0.00001838
 Iteration  3 RMS(Cart)=  0.00000045 RMS(Int)=  0.00001837
 Variable       Old X    -DE/DX   Delta X   Delta X   Delta X     New X
                                 (Linear)    (Quad)   (Total)
    R1        2.46377   0.00165  -0.00085   0.00336   0.00251   2.46628
    R2        1.89959   0.00099   0.00057   0.00116   0.00173   1.90132
    R3        2.29802   0.00158  -0.00071   0.00238   0.00167   2.29969
    R4        2.90469  -0.00190   0.00022  -0.00613  -0.00591   2.89879
    R5        3.09683  -0.00102   0.00191  -0.01379  -0.01188   3.08495
    R6        2.91668  -0.00362  -0.00231  -0.00768  -0.00999   2.90670
    R7        2.90917  -0.00382  -0.00218  -0.00835  -0.01053   2.89864
    R8        2.91661  -0.00360  -0.00231  -0.00760  -0.00991   2.90670
    R9        3.39178  -0.00208  -0.00229  -0.00346  -0.00575   3.38603
   R10        2.07593  -0.00006  -0.00195   0.00257   0.00062   2.07655
   R11        2.07639   0.00040  -0.00194   0.00372   0.00178   2.07817
   R12        3.38799  -0.00029  -0.00349   0.00395   0.00046   3.38845
   R13        2.07367   0.00014  -0.00162   0.00260   0.00098   2.07465
   R14        2.07363   0.00014  -0.00162   0.00262   0.00100   2.07463
   R15        3.39186  -0.00208  -0.00227  -0.00351  -0.00578   3.38608
   R16        2.07638   0.00040  -0.00194   0.00372   0.00178   2.07817
   R17        2.07594  -0.00006  -0.00195   0.00256   0.00061   2.07655
   R18        3.09560  -0.00104   0.00210  -0.01352  -0.01143   3.08418
   R19        2.46389   0.00155  -0.00087   0.00322   0.00235   2.46624
   R20        1.89992   0.00082   0.00054   0.00074   0.00128   1.90120
   R21        2.29796   0.00163  -0.00071   0.00245   0.00174   2.29970
   R22        2.90471  -0.00190   0.00022  -0.00612  -0.00590   2.89880
   R23        2.91654  -0.00358  -0.00230  -0.00757  -0.00987   2.90667
   R24        2.90921  -0.00384  -0.00219  -0.00838  -0.01056   2.89865
   R25        2.91676  -0.00365  -0.00232  -0.00773  -0.01005   2.90671
   R26        3.39180  -0.00207  -0.00227  -0.00347  -0.00574   3.38606
   R27        2.07593  -0.00006  -0.00195   0.00256   0.00061   2.07654
   R28        2.07639   0.00040  -0.00194   0.00373   0.00179   2.07817
   R29        3.38802  -0.00030  -0.00349   0.00391   0.00043   3.38845
   R30        2.07368   0.00013  -0.00163   0.00260   0.00097   2.07465
   R31        2.07364   0.00014  -0.00162   0.00261   0.00099   2.07463
   R32        3.39198  -0.00211  -0.00226  -0.00360  -0.00586   3.38612
   R33        2.07636   0.00041  -0.00194   0.00373   0.00180   2.07816
   R34        2.07594  -0.00006  -0.00195   0.00257   0.00062   2.07655
    A1        1.92899   0.00125   0.00390  -0.00074   0.00316   1.93215
    A2        2.17738  -0.00043   0.00042  -0.00320  -0.00278   2.17461
    A3        1.96906   0.00065  -0.00046   0.00347   0.00301   1.97207
    A4        2.13674  -0.00022   0.00003  -0.00027  -0.00024   2.13650
    A5        2.24762  -0.00133   0.00235  -0.01352  -0.01117   2.23645
    A6        1.89576   0.00052  -0.00126   0.00802   0.00678   1.90254
    A7        1.88076  -0.00019   0.00155   0.00158   0.00314   1.88390
    A8        1.89593   0.00050  -0.00124   0.00792   0.00670   1.90263
    A9        1.95862   0.00007  -0.00157  -0.00070  -0.00235   1.95628
   A10        1.87292  -0.00093   0.00403  -0.01548  -0.01148   1.86144
   A11        1.95831   0.00009  -0.00156  -0.00054  -0.00217   1.95614
   A12        1.97156  -0.00315  -0.00584  -0.00494  -0.01077   1.96079
   A13        1.92803   0.00058   0.00061   0.00196   0.00260   1.93063
   A14        1.92005  -0.00004   0.00147  -0.00260  -0.00113   1.91892
   A15        1.86312   0.00111   0.00038   0.00243   0.00286   1.86598
   A16        1.86398   0.00145   0.00153   0.00278   0.00429   1.86827
   A17        1.91500   0.00016   0.00186   0.00061   0.00250   1.91749
   A18        1.97239  -0.00326  -0.00360  -0.00896  -0.01256   1.95984
   A19        1.92256   0.00051   0.00034   0.00223   0.00257   1.92514
   A20        1.92275   0.00050   0.00033   0.00215   0.00248   1.92523
   A21        1.87235   0.00112   0.00067   0.00144   0.00212   1.87447
   A22        1.87243   0.00112   0.00066   0.00140   0.00207   1.87450
   A23        1.89902   0.00011   0.00173   0.00200   0.00372   1.90274
   A24        1.97150  -0.00314  -0.00583  -0.00487  -0.01069   1.96081
   A25        1.91998  -0.00005   0.00147  -0.00260  -0.00112   1.91885
   A26        1.92825   0.00056   0.00060   0.00188   0.00252   1.93076
   A27        1.86388   0.00144   0.00154   0.00283   0.00435   1.86822
   A28        1.86317   0.00111   0.00037   0.00238   0.00280   1.86596
   A29        1.91497   0.00017   0.00185   0.00062   0.00250   1.91747
   A30        1.93117   0.00109   0.00367  -0.00227   0.00140   1.93256
   A31        2.17756  -0.00036   0.00039  -0.00293  -0.00253   2.17502
[...]
 0000171,-0.00000061,0.00000001,-0.00000026,0.00000038,0.00000047,-0.00
 000438,0.00000067,0.00000220,-0.00000135,-0.00000055,-0.00000193,0.000
 00131,-0.00027852,-0.00026115,-0.00040811,0.00142951,0.00020629,0.0008
 8267,-0.00032958,0.00018692,-0.00020765,0.01059729,0.00106872,0.022873
 71,-0.00635388,-0.04182011,-0.00555580,-0.00359837,-0.01385181,-0.0260
 6289,-0.00275321,-0.00460807,0.00163163,-0.00008453,0.00011153,-0.0003
 1801,0.00046799,0.00017799,0.00202765,0.00003298,0.00045220,-0.0004108
 5,-0.00035015,0.00006514,-0.00021185,0.00157420,0.05823831,-0.00003868
 ,0.00000627,0.00011560,0.00012803,-0.00000414,-0.00028491,-0.00041935,
 0.00000488,0.00020282,-0.00000785,0.00000071,0.00003023,-0.00001126,-0
 .00002448,-0.00000487,-0.00000540,0.00001360,0.00000252,0.00002772,0.0
 0000030,0.00001083,-0.00002664,0.00000081,-0.00000192,-0.00001000,0.00
 001276,-0.00000672,-0.00000724,-0.00000441,0.00000393,0.00011033,-0.00
 000780,-0.00007860,0.00000367,-0.00000152,-0.00000358,-0.00000277,0.00
 000781,0.00000159,0.00000320,0.00000365,0.00000241,0.00000309,-0.00000
 427,0.00000149,-0.00000316,-0.00000627,0.00000235,0.00000409,0.0000013
 1,-0.00000316,-0.00079280,-0.00075630,0.00166874,-0.00186135,-0.000134
 62,-0.00286191,0.00006943,0.00012781,0.00090583,-0.00692284,0.00054174
 ,-0.01451541,-0.10974815,-0.00231034,-0.28365159,-0.00039401,-0.005607
 67,-0.00626877,0.00196279,0.00307605,-0.00040956,0.00005697,-0.0001690
 6,0.00039648,0.00001610,-0.00108679,0.00007139,0.00015769,-0.00031010,
 0.00038259,0.00078513,-0.00017628,0.00025379,0.11547523,0.00576118,0.2
 9734919,-0.00014556,-0.00001214,-0.00000172,0.00008666,0.00000798,0.00
 000808,-0.00011375,-0.00001346,0.00001595,-0.00000610,0.00000072,0.000
 00401,-0.00000346,-0.00000276,-0.00000319,-0.00000543,-0.00000017,0.00
 000103,0.00001241,0.00000017,0.00000739,-0.00001421,-0.00000084,-0.000
 00353,-0.00000438,0.00001554,-0.00000087,-0.00000253,-0.00000894,-0.00
 000114,0.00019892,0.00002145,-0.00004794,0.00000391,-0.00000103,-0.000
 00277,-0.00000161,0.00000217,0.00000122,0.00000026,0.00000127,0.000001
 19,0.00000116,-0.00000068,0.00000226,-0.00000115,-0.00000434,0.0000002
 5,0.00000354,0.00000067,-0.00000316,-0.00024754,0.00004369,0.00016764,
 0.00084448,-0.00096220,-0.00016089,-0.00046124,0.00001327,0.00037473,-
 0.00645698,-0.00167524,0.00112066,-0.33299336,-0.01663320,0.01916281,-
 0.00081646,0.00273960,0.00131550,-0.00063475,-0.00001797,-0.00043680,-
 0.00017142,0.00106918,-0.00190087,0.00002028,0.00020547,0.00014819,0.0
 0026938,0.00010580,-0.00007674,0.00021460,0.00003507,-0.00001054,-0.00
 736858,-0.00119978,0.00199924,0.34770104,-0.00050793,0.00001101,0.0000
 1938,0.00020835,-0.00002993,0.00002760,-0.00032798,0.00003202,0.000054
 01,-0.00001824,0.00000294,-0.00000141,-0.00001504,-0.00006921,0.000007
 09,0.00000217,0.00003922,-0.00000631,0.00001759,-0.00000064,0.00001867
 ,-0.00002883,0.00000365,-0.00000491,-0.00000958,0.00001147,-0.00000369
 ,-0.00001109,0.00000163,0.00000344,0.00075071,0.00002958,-0.00017557,0
 .00000691,-0.00000019,-0.00000781,-0.00000216,0.00001825,-0.00000239,0
 .00000450,0.00000427,0.00000286,0.00000077,-0.00000688,-0.00000190,-0.
 00000434,-0.00000784,0.00000166,0.00000861,0.00000220,-0.00000627,-0.0
 0113151,0.00045278,-0.00032978,0.00307669,-0.00475963,0.00189537,-0.00
 249414,0.00094341,0.00153577,-0.02649446,-0.00130712,0.00177008,-0.015
 44470,-0.04283341,0.00331978,0.02611321,-0.01183027,-0.00840450,-0.000
 69504,0.00054580,-0.00063844,0.00080417,-0.00019114,0.00021623,-0.0012
 7068,0.00084754,0.00040951,0.00042834,0.00024859,-0.00014920,0.0006059
 3,-0.00005438,-0.00002862,-0.00056235,0.00129565,0.00107639,0.01657453
 ,0.05758988,0.00018186,0.00004232,0.00003644,-0.00004547,-0.00001639,-
 0.00013153,-0.00005569,0.00002348,0.00008077,0.00000595,-0.00000207,0.
 00000925,-0.00000138,-0.00001425,0.00000592,0.00000470,0.00000991,-0.0
 0000287,0.00000080,0.00000045,-0.00000347,0.00000305,0.00000156,0.0000
 0191,0.00000029,-0.00001127,0.00000150,-0.00000085,0.00000878,0.000000
 98,-0.00023888,-0.00010066,0.00005194,-0.00000234,0.00000171,0.0000015
 9,0.00000122,0.00000239,-0.00000086,0.00000119,0.00000030,0.00000046,0
 .00000041,-0.00000141,-0.00000205,0.00000025,0.00000166,0.00000109,-0.
 00000141,-0.00000135,0.00000235,-0.00009592,-0.00066396,0.00100224,-0.
 00217772,0.00362381,-0.00245006,0.00112328,-0.00064403,-0.00031884,0.0
 1952704,0.00342277,-0.00116266,0.01719195,0.00414849,-0.05133319,0.013
 52927,-0.00692131,-0.00293669,0.00194046,-0.00049388,0.00021227,-0.001
 09234,0.00006234,-0.00043067,-0.00007484,-0.00091375,0.00011121,-0.000
 16611,-0.00000014,-0.00016416,0.00016167,-0.00018138,0.00007938,-0.027
 40215,-0.00102147,0.00645295,-0.02169619,-0.00054200,0.05024497,0.0001
 7782,-0.00003558,0.00008275,-0.00007666,0.00001522,-0.00015624,-0.0000
 1450,-0.00001669,0.00008435,0.00000264,0.00000121,0.00000839,0.0000028
 6,0.00001992,-0.00000409,-0.00000032,-0.00001233,0.00000426,-0.0000037
 4,-0.00000029,-0.00000615,0.00000754,-0.00000140,0.00000417,0.00000005
 ,0.00000207,-0.00000223,0.00000741,-0.00000330,0.00000169,-0.00017803,
 0.00007025,-0.00002412,-0.00000369,0.00000061,0.00000320,0.00000026,-0
 .00000450,0.00000119,-0.00000015,0.00000051,-0.00000241,0.00000132,0.0
 0000039,-0.00000023,0.00000116,0.00000077,0.00000041,-0.00000626,0.000
 00038,0.00000309,0.00004167,0.00001142,0.00050780,0.00067342,0.0009612
 5,-0.00155985,-0.00155152,-0.00003850,0.00033278,0.00540809,0.01066599
 ,-0.00492921,-0.00136764,-0.00058741,-0.00259762,-0.00000077,-0.000163
 49,-0.00016894,-0.06011868,-0.06569381,0.04052505,-0.02378021,-0.01886
 350,0.01213940,0.00016198,-0.00003033,0.00055959,-0.00023423,-0.000549
 34,-0.00050233,0.00000443,0.00005292,-0.00001544,0.00031883,0.00071110
 ,-0.00051310,-0.00013139,0.00003009,-0.00016954,0.07638647,-0.00027038
 ,-0.00001518,-0.00007690,0.00012345,0.00000894,0.00016444,-0.00004779,
 -0.00000871,-0.00008387,-0.00000666,-0.00000017,-0.00000976,-0.0000028
 0,-0.00001045,0.00000513,-0.00000523,0.00000259,-0.00000322,0.00000869
 ,-0.00000023,0.00000967,-0.00001383,-0.00000124,-0.00000548,-0.0000049
 2,0.00002834,0.00000769,-0.00000068,-0.00001610,-0.00000561,0.00032786
 ,0.00002181,-0.00002382,0.00000695,0.,-0.00000366,-0.00000126,0.000004
 27,-0.00000030,-0.00000050,0.00000152,0.00000040,0.00000039,-0.0000007
 0,0.00000205,-0.00000068,-0.00000688,-0.00000141,0.00000608,0.00000047
 ,-0.00000427,-0.00002062,-0.00011914,-0.00078796,-0.00081283,0.0002969
 0,0.00233163,-0.00078373,0.00043374,-0.00167928,0.00101272,0.00260506,
 -0.00142446,-0.00004284,-0.00018371,-0.00085814,-0.00000114,0.00006998
 ,0.00051108,-0.06458585,-0.24720665,0.12108398,0.00426492,0.00623022,-
 0.00337517,0.00047844,0.00025592,-0.00027741,-0.00037598,-0.00144879,-
 0.00154459,0.00009531,0.00000741,0.00006577,-0.00001895,0.00015595,-0.
 00017099,0.00006191,-0.00003521,0.00002947,0.06713849,0.25447965,0.000
 10830,-0.00000746,-0.00006201,-0.00006536,0.00001534,0.00004842,0.0000
 6113,-0.00002807,-0.00003446,0.00000349,-0.00000020,-0.00000479,0.0000
 0301,0.00001175,0.00000590,0.00000103,-0.00000835,-0.00000231,-0.00000
 710,0.00000230,-0.00000310,0.00000913,-0.00000203,-0.00000083,0.000001
 62,0.00001442,0.00001287,0.00000588,-0.00000878,-0.00000815,-0.0001892
 4,0.00000833,0.00012758,-0.00000087,0.00000026,0.00000241,0.00000119,-
 0.00000286,0.00000045,-0.00000241,-0.00000040,-0.00000062,-0.00000023,
 0.00000205,0.00000007,0.00000226,-0.00000190,-0.00000205,0.00000017,-0
 .00000438,0.00000149,0.00006598,-0.00020703,0.00023674,0.00090523,0.00
 077132,-0.00098040,0.00024678,-0.00051374,0.00076870,0.00711972,0.0242
 4175,-0.01490378,-0.00320958,-0.00217558,-0.00505392,0.00000007,-0.000
 31008,0.00068105,0.03867456,0.11849918,-0.12402474,-0.00119203,-0.0015
 0520,0.00211531,0.00086384,0.00211620,0.00001263,-0.00027955,-0.001079
 31,0.00078849,-0.00009807,0.00002025,0.00000556,0.00052510,0.00140571,
 -0.00074306,0.00003871,-0.00013784,0.00022806,-0.03824532,-0.12749053,
 0.13032057,0.00017794,0.00003547,0.00008280,-0.00007672,-0.00001512,-0
 .00015631,-0.00001448,0.00001666,0.00008439,0.00000265,-0.00000121,0.0
 0000839,0.00000005,-0.00000206,-0.00000223,0.00000741,0.00000329,0.000
 00170,-0.00000375,0.00000030,-0.00000615,0.00000755,0.00000140,0.00000
 418,0.00000285,-0.00001993,-0.00000410,-0.00000031,0.00001233,0.000004
 27,-0.00017818,-0.00007016,-0.00002414,-0.00000626,-0.00000038,0.00000
 309,0.00000116,-0.00000077,0.00000041,0.00000132,-0.00000039,-0.000000
 23,-0.00000015,-0.00000050,-0.00000241,0.00000026,0.00000450,0.0000011
 9,-0.00000370,-0.00000061,0.00000320,0.00004167,-0.00001170,0.00050810
 ,0.00067337,-0.00096073,-0.00156115,-0.00155119,0.00003914,0.00033346,
 0.00540352,-0.01066500,-0.00493315,0.00016181,0.00003013,0.00055971,-0
 .00023387,0.00054908,-0.00050150,-0.06006765,0.06560332,0.04050529,-0.
 02377447,0.01887013,0.01214869,-0.00136740,0.00058897,-0.00259703,-0.0
 0000070,0.00016359,-0.00016907,0.00000437,-0.00005291,-0.00001549,-0.0
 0004818,0.00001397,-0.00001009,-0.00002946,0.00009027,-0.00012655,0.00
 434957,-0.00642762,-0.00523269,0.07633383,0.00027025,-0.00001534,0.000
 07689,-0.00012339,0.00000907,-0.00016440,0.00004776,-0.00000878,0.0000
 8385,0.00000666,-0.00000018,0.00000976,0.00000493,0.00002834,-0.000007
 68,0.00000067,-0.00001611,0.00000561,-0.00000869,-0.00000022,-0.000009
 66,0.00001382,-0.00000125,0.00000548,0.00000279,-0.00001043,-0.0000051
 4,0.00000523,0.00000258,0.00000322,-0.00032770,0.00002197,0.00002378,-
 0.00000607,0.00000047,0.00000426,0.00000068,-0.00000688,0.00000141,-0.
 00000039,-0.00000070,-0.00000205,0.00000051,0.00000152,-0.00000040,0.0
 0000127,0.00000427,0.00000030,-0.00000695,0.00000001,0.00000365,0.0000
 2053,-0.00011956,0.00078761,0.00081230,0.00029827,-0.00233047,0.000784
 40,0.00043250,0.00167901,-0.00101682,0.00261928,0.00143378,-0.00047877
 ,0.00025687,0.00027730,0.00037562,-0.00145023,0.00154380,0.06449616,-0
 .24715644,-0.12115187,-0.00425266,0.00622243,0.00337215,0.00004466,-0.
 00018524,0.00086121,0.00000117,0.00007000,-0.00051127,-0.00009527,0.00
 000750,-0.00006576,0.00015053,-0.00010505,-0.00017243,-0.00004962,-0.0
 0008447,-0.00003202,0.00642210,-0.01536019,-0.01341996,-0.06705251,0.2
 5442448,0.00010841,0.00000744,-0.00006197,-0.00006542,-0.00001533,0.00
 004835,0.00006116,0.00002805,-0.00003441,0.00000350,0.00000020,-0.0000
 0479,0.00000161,-0.00001441,0.00001286,0.00000588,0.00000877,-0.000008
 15,-0.00000710,-0.00000229,-0.00000310,0.00000914,0.00000202,-0.000000
 83,0.00000300,-0.00001176,0.00000590,0.00000103,0.00000835,-0.00000230
 ,-0.00018938,-0.00000830,0.00012758,0.00000017,0.00000438,0.00000150,0
 .00000226,0.00000190,-0.00000205,-0.00000023,-0.00000205,0.00000007,-0
 .00000241,0.00000040,-0.00000062,0.00000119,0.00000286,0.00000046,-0.0
 0000088,-0.00000026,0.00000241,0.00006606,0.00020685,0.00023716,0.0009
 0527,-0.00077113,-0.00098171,0.00024731,0.00051350,0.00076962,0.007109
 80,-0.02423713,-0.01491342,0.00086281,-0.00211644,0.00001185,-0.000278
 96,0.00107844,0.00078965,0.03865536,-0.11856636,-0.12412593,-0.0011932
 4,0.00150740,0.00211737,-0.00320872,0.00217889,-0.00505263,0.00000019,
 0.00030982,0.00068096,-0.00009811,-0.00002021,0.00000553,-0.00014721,0
 .00001374,0.00021255,0.00003260,0.00019138,-0.00016901,-0.00522471,0.0
 1341112,0.01042438,-0.03822367,0.12755798,0.13042824,-0.00014536,0.000
 01220,-0.00000172,0.00008658,-0.00000803,0.00000806,-0.00011362,0.0000
 1351,0.00001593,-0.00000610,-0.00000072,0.00000401,-0.00000439,-0.0000
 1553,-0.00000088,-0.00000252,0.00000894,-0.00000114,0.00001240,-0.0000
 0018,0.00000738,-0.00001420,0.00000085,-0.00000353,-0.00000346,0.00000
 273,-0.00000319,-0.00000543,0.00000019,0.00000103,0.00019862,-0.000021
 49,-0.00004788,0.00000354,-0.00000067,-0.00000315,-0.00000114,0.000004
 33,0.00000025,0.00000116,0.00000068,0.00000226,0.00000026,-0.00000126,
 0.00000119,-0.00000161,-0.00000216,0.00000122,0.00000391,0.00000102,-0
 .00000277,-0.00024712,-0.00004349,0.00016775,0.00084365,0.00096009,-0.
 00016123,-0.00046027,-0.00001288,0.00037413,-0.00644601,0.00167677,0.0
 0112069,0.00002069,-0.00020521,0.00014795,0.00026917,-0.00010578,-0.00
 007673,-0.00063448,0.00001861,-0.00043654,-0.00017209,-0.00106833,-0.0
 0190133,-0.33298073,0.01673792,0.01916863,-0.00082768,-0.00274444,0.00
 131761,0.00021435,-0.00003517,-0.00001054,-0.00008240,0.00006937,0.000
 07814,0.00033513,0.00024634,-0.00013308,-0.00002948,0.00004958,0.00003
 255,-0.00013142,-0.00006189,0.00003873,0.34768793,0.00050791,0.0000108
 2,-0.00001939,-0.00020838,-0.00002984,-0.00002757,0.00032806,0.0000319
 2,-0.00005403,0.00001824,0.00000294,0.00000140,0.00000958,0.00001147,0
 .00000369,0.00001109,0.00000162,-0.00000344,-0.00001759,-0.00000063,-0
 .00001867,0.00002884,0.00000364,0.00000491,0.00001501,-0.00006922,-0.0
 0000712,-0.00000216,0.00003923,0.00000633,-0.00075067,0.00002977,0.000
 17558,-0.00000861,0.00000220,0.00000627,0.00000433,-0.00000784,-0.0000
 0166,-0.00000077,-0.00000688,0.00000190,-0.00000450,0.00000427,-0.0000
 0286,0.00000217,0.00001825,0.00000239,-0.00000691,-0.00000019,0.000007
 81,0.00113182,0.00045194,0.00032948,-0.00307795,-0.00475646,-0.0018962
 8,0.00249422,0.00094282,-0.00153538,0.02648818,-0.00131588,-0.00177058
 ,0.00127104,0.00084691,-0.00040926,-0.00042828,0.00024874,0.00014940,0
 .00069469,0.00054503,0.00063874,-0.00080368,-0.00019023,-0.00021532,0.
 01555026,-0.04284276,-0.00332359,-0.02612322,-0.01182553,0.00840021,-0
 .00060610,-0.00005422,0.00002857,-0.00004877,0.00003383,0.00003043,-0.
 00024677,-0.00090338,0.00007758,-0.00009024,-0.00008438,-0.00019136,-0
 .00002998,-0.00003522,0.00013771,-0.01667822,0.05760229,0.00018206,-0.
 00004240,0.00003641,-0.00004555,0.00001645,-0.00013153,-0.00005556,-0.
 00002348,0.00008073,0.00000596,0.00000207,0.00000925,0.00000030,0.0000
 1128,0.00000150,-0.00000085,-0.00000878,0.00000098,0.00000079,-0.00000
 045,-0.00000348,0.00000307,-0.00000156,0.00000191,-0.00000137,0.000014
 22,0.00000593,0.00000470,-0.00000990,-0.00000288,-0.00023916,0.0001007
 4,0.00005206,-0.00000141,0.00000135,0.00000235,0.00000025,-0.00000166,
 0.00000108,0.00000041,0.00000141,-0.00000205,0.00000119,-0.00000030,0.
 00000045,0.00000122,-0.00000239,-0.00000086,-0.00000234,-0.00000171,0.
 00000159,-0.00009519,0.00066377,0.00100265,-0.00218043,-0.00362394,-0.
 00245240,0.00112459,0.00064412,-0.00031922,0.01953694,-0.00343044,-0.0
 0116486,-0.00007394,0.00091409,0.00011142,-0.00016630,0.00000038,-0.00
 016410,0.00194097,0.00049326,0.00021274,-0.00109265,-0.00006173,-0.000
 43066,0.01719693,-0.00415154,-0.05133627,0.01352090,0.00691229,-0.0029
 3020,0.00016149,0.00018126,0.00007947,-0.00019300,-0.00010421,-0.00000
 424,-0.00013321,-0.00007816,0.00058500,-0.00012658,0.00003211,-0.00016
 908,-0.00016957,-0.00002952,0.00022810,-0.02170313,0.00055344,0.050245
 24,0.00005781,-0.00000525,-0.00013812,-0.00015714,0.00000567,0.0003293
 4,0.00043616,-0.00003340,-0.00025092,0.00001111,0.00000183,-0.00003242
 ,0.00001089,0.00002589,0.00000538,0.00000786,-0.00001294,-0.00000362,-
 0.00004120,0.00000278,-0.00001188,0.00003835,-0.00000108,0.00000067,0.
 00001120,-0.00001789,0.00000739,0.00001015,0.00000867,-0.00000643,-0.0
 0013370,0.00001772,0.00008029,-0.00000582,0.00000055,0.00000409,0.0000
 0354,-0.00000861,-0.00000141,-0.00000626,-0.00000607,0.00000017,-0.000
 00369,0.00000695,-0.00000087,0.00000391,0.00000691,-0.00000234,-0.0000
 0520,-0.00000301,0.00000367,-0.00098900,0.00010945,-0.00044581,0.00139
 115,-0.00046799,0.00230949,-0.00001228,0.00019465,-0.00066268,0.004063
 72,0.00101187,0.01044196,0.00038963,-0.00043481,-0.00015438,-0.0001597
 0,-0.00003323,0.00015243,-0.00140774,0.00199259,0.00074857,0.00034673,
 -0.00049898,-0.00073035,-0.10278402,0.00568515,-0.11268549,0.00371796,
 -0.00638541,0.01291496,-0.00070481,0.00008903,-0.00002060,0.00041254,-
 0.00010505,-0.00010616,-0.00008241,0.00004889,-0.00019294,-0.00004824,
 -0.00015049,-0.00014728,0.00031856,0.00001867,0.00052456,-0.00736788,0
 .00057734,-0.02740150,0.10267781,0.00003598,0.00002246,0.00002439,0.00
 003316,-0.00000856,-0.00009272,-0.00016101,-0.00000833,0.00006739,-0.0
 0000160,-0.00000076,0.00001598,-0.00000425,-0.00000765,-0.00000343,-0.
 00000116,0.00000587,0.00000029,0.00001101,0.00000382,0.00000430,-0.000
 00884,-0.00000009,-0.00000276,-0.00000211,-0.00000478,-0.00000439,-0.0
 0000584,0.00000468,0.00000060,-0.00005410,-0.00003724,-0.00000169,0.00
 000055,-0.00000193,-0.00000131,-0.00000067,0.00000220,0.00000135,-0.00
 000038,0.00000047,0.00000438,0.00000061,0.,0.00000026,-0.00000102,-0.0
 0000019,0.00000171,0.00000301,-0.00000192,-0.00000152,0.00027914,-0.00
 026180,0.00040746,-0.00142918,0.00020734,-0.00088226,0.00032962,0.0001
 8668,0.00020760,-0.01059551,0.00108236,-0.02287118,-0.00046808,0.00017
 874,-0.00202754,-0.00003281,0.00045192,0.00041082,0.00275113,-0.004607
 92,-0.00163370,0.00008442,0.00011148,0.00031817,0.00642410,-0.04182820
 ,0.00570211,0.00359169,-0.01386414,0.02605465,0.00035012,0.00006481,0.
 00021177,0.00010442,-0.00131434,0.00028175,-0.00006936,0.00003380,0.00
 010430,-0.00001398,-0.00010505,-0.00001382,-0.00071095,0.00015675,-0.0
 0140554,0.00120230,0.00129498,0.00102995,-0.00164042,0.05824453,-0.000
 03866,-0.00000629,0.00011561,0.00012804,0.00000421,-0.00028495,-0.0004
 1943,-0.00000480,0.00020285,-0.00000786,-0.00000072,0.00003023,-0.0000
 1000,-0.00001276,-0.00000672,-0.00000724,0.00000441,0.00000394,0.00002
 773,-0.00000031,0.00001083,-0.00002665,-0.00000080,-0.00000192,-0.0000
 1125,0.00002448,-0.00000486,-0.00000541,-0.00001360,0.00000252,0.00011
 031,0.00000777,-0.00007859,0.00000409,-0.00000131,-0.00000316,-0.00000
 316,0.00000627,0.00000235,0.00000309,0.00000426,0.00000150,0.00000320,
 -0.00000366,0.00000241,-0.00000277,-0.00000781,0.00000159,0.00000367,0
 .00000152,-0.00000358,-0.00079240,0.00075579,0.00166923,-0.00186190,0.
 00013663,-0.00286223,0.00006952,-0.00012814,0.00090587,-0.00692754,-0.
 00053244,-0.01452533,0.00001633,0.00108683,0.00007099,0.00015779,0.000
 31006,0.00038289,0.00196276,-0.00307860,-0.00041155,0.00005708,0.00016
 892,0.00039669,-0.10974447,0.00245550,-0.28364819,-0.00039031,0.005604
 61,-0.00625536,0.00078535,0.00017590,0.00025396,-0.00010622,-0.0002826
 0,0.00077102,0.00007810,-0.00003045,-0.00000421,-0.00001003,0.00017230
 ,0.00021261,-0.00051333,0.00017158,-0.00074359,0.00199932,-0.00107935,
 0.00645293,0.11547224,-0.00590742,0.29734424\\-0.00000059,-0.00000012,
 -0.00000061,0.00000016,0.00000024,-0.00000034,0.00000021,-0.00000013,-
 0.00000041,-0.00000054,0.00000008,-0.00000087,-0.00000027,-0.00000014,
 -0.00000140,-0.00000011,-0.00000005,-0.00000094,0.00000087,0.00000005,
 -0.00000145,0.00000014,-0.00000007,-0.00000180,-0.00000027,0.00000003,
 -0.00000151,-0.00000013,0.00000008,-0.00000093,-0.00000031,0.00000008,
 -0.00000008,-0.00000071,0.00000003,-0.00000107,-0.00000034,-0.00000002
 ,-0.00000146,0.00000039,0.00000004,-0.00000112,0.00000041,-0.00000009,
 -0.00000112,-0.00000039,0.00000003,-0.00000145,-0.00000073,-0.00000002
 ,-0.00000105,0.00000049,-0.00000009,0.00000063,-0.00000018,0.00000001,
 0.00000038,-0.00000029,-0.00000009,0.00000041,0.00000053,0.00000015,0.
 00000081,0.00000027,-0.00000014,0.00000142,0.00000013,-0.00000007,0.00
 000096,-0.00000082,0.00000001,0.00000145,-0.00000016,-0.00000003,0.000
 00180,0.00000022,0.00000004,0.00000150,0.00000013,0.00000006,0.0000009
 3,0.00000051,0.00000006,0.00000004,0.00000073,0.00000003,0.00000107,0.
 00000036,-0.00000001,0.00000147,-0.00000041,0.00000006,0.00000112,-0.0
 0000041,-0.00000006,0.00000112,0.00000038,0.00000004,0.00000146,0.0000
 0073,-0.00000002,0.00000105\\\@


 I FIND THAT THE THREE TRULY GREAT TIMES FOR THINKING THOUGHTS
 ARE WHEN I AM STANDING IN THE SHOWER, SITTING ON THE JOHN, OR WALKING.

                                    -- COLIN FLETCHER
 File lengths (MBytes):  RWF=    530 Int=      0 D2E=      0 Chk=      9 Scr=      1
 Normal termination of Gaussian 16 at Mon Apr  1 16:25:59 2024.
real 4788.17
user 18610.59
sys 24.61
