 Entering Gaussian System, Link 0=g16
 Input=gaussian_test.inp
 Output=gaussian_test.log
 Initial command:
 /sw/restricted/lms/sw/Gaussian/g16_B01/g16/l1.exe "/scratch/user/peterchao1/peterchao1/6991759_1675632228000000745757300/Gau-202841.inp" -scrdir="/scratch/user/peterchao1/peterchao1/6991759_1675632228000000745757300/"
 Entering Link 1 = /sw/restricted/lms/sw/Gaussian/g16_B01/g16/l1.exe PID=    202962.
  
 Copyright (c) 1988-2017, Gaussian, Inc.  All Rights Reserved.
  
 This is part of the Gaussian(R) 16 program.  It is based on
 the Gaussian(R) 09 system (copyright 2009, Gaussian, Inc.),
 the Gaussian(R) 03 system (copyright 2003, Gaussian, Inc.),
 the Gaussian(R) 98 system (copyright 1998, Gaussian, Inc.),
 the Gaussian(R) 94 system (copyright 1995, Gaussian, Inc.),
 the Gaussian 92(TM) system (copyright 1992, Gaussian, Inc.),
 the Gaussian 90(TM) system (copyright 1990, Gaussian, Inc.),
 the Gaussian 88(TM) system (copyright 1988, Gaussian, Inc.),
 the Gaussian 86(TM) system (copyright 1986, Carnegie Mellon
 University), and the Gaussian 82(TM) system (copyright 1983,
 Carnegie Mellon University). Gaussian is a federally registered
 trademark of Gaussian, Inc.
  
 This software contains proprietary and confidential information,
 including trade secrets, belonging to Gaussian, Inc.
  
 This software is provided under written license and may be
 used, copied, transmitted, or stored only in accord with that
 written license.
  
 The following legend is applicable only to US Government
 contracts under FAR:
  
                    RESTRICTED RIGHTS LEGEND
  
 Use, reproduction and disclosure by the US Government is
 subject to restrictions as set forth in subparagraphs (a)
 and (c) of the Commercial Computer Software - Restricted
 Rights clause in FAR 52.227-19.
  
 Gaussian, Inc.
 340 Quinnipiac St., Bldg. 40, Wallingford CT 06492
  
  
 ---------------------------------------------------------------
 Warning -- This program may not be used in any manner that
 competes with the business of Gaussian, Inc. or will provide
 assistance to any competitor of Gaussian, Inc.  The licensee
 of this program is prohibited from giving any competitor of
 Gaussian, Inc. access to this program.  By using this program,
 the user acknowledges that Gaussian, Inc. is engaged in the
 business of creating and licensing software in the field of
 computational chemistry and represents and warrants to the
 licensee that it is not a competitor of Gaussian, Inc. and that
 it will not use this program in any manner prohibited above.
 ---------------------------------------------------------------
  

 Cite this work as:
 Gaussian 16, Revision B.01,
 M. J. Frisch, G. W. Trucks, H. B. Schlegel, G. E. Scuseria, 
 M. A. Robb, J. R. Cheeseman, G. Scalmani, V. Barone, 
 G. A. Petersson, H. Nakatsuji, X. Li, M. Caricato, A. V. Marenich, 
 J. Bloino, B. G. Janesko, R. Gomperts, B. Mennucci, H. P. Hratchian, 
 J. V. Ortiz, A. F. Izmaylov, J. L. Sonnenberg, D. Williams-Young, 
 F. Ding, F. Lipparini, F. Egidi, J. Goings, B. Peng, A. Petrone, 
 T. Henderson, D. Ranasinghe, V. G. Zakrzewski, J. Gao, N. Rega, 
 G. Zheng, W. Liang, M. Hada, M. Ehara, K. Toyota, R. Fukuda, 
 J. Hasegawa, M. Ishida, T. Nakajima, Y. Honda, O. Kitao, H. Nakai, 
 T. Vreven, K. Throssell, J. A. Montgomery, Jr., J. E. Peralta, 
 F. Ogliaro, M. J. Bearpark, J. J. Heyd, E. N. Brothers, K. N. Kudin, 
 V. N. Staroverov, T. A. Keith, R. Kobayashi, J. Normand, 
 K. Raghavachari, A. P. Rendell, J. C. Burant, S. S. Iyengar, 
 J. Tomasi, M. Cossi, J. M. Millam, M. Klene, C. Adamo, R. Cammi, 
 J. W. Ochterski, R. L. Martin, K. Morokuma, O. Farkas, 
 J. B. Foresman, and D. J. Fox, Gaussian, Inc., Wallingford CT, 2016.
 
 ******************************************
 Gaussian 16:  ES64L-G16RevB.01 20-Dec-2017
                 5-Feb-2023 
 ******************************************
 %nprocshared=4
 Will use up to    4 processors via shared memory.
 %mem=8000mb
 %chk=10.chk
 %nprocshared=4
 Will use up to    4 processors via shared memory.
 %mem=8000mb
 ----------------------------------------------------------------------
 #T wB97XD/def2svpp opt=tight freq int(grid=ultrafine) scf=(verytight,q
 c) Volume=tight
 ----------------------------------------------------------------------
 -----
 Dimer
 -----
 Symbolic Z-matrix:
 Charge =  0 Multiplicity = 1
 C                     1.85963  -1.26339   1.49218 
 C                     2.44742  -0.96871   0.1095 
 O                     1.47319  -1.18476  -0.88405 
 C                     3.10182   0.43652  -0.00947 
 C                     4.32878   0.52524   0.90172 
 C                     3.55513   0.6212   -1.46167 
 C                     2.11876   1.55264   0.35638 
 H                     1.06059  -0.56309   1.72285 
 H                     2.61986  -1.20656   2.26462 
 H                     1.44318  -2.26868   1.49087 
 H                     3.22479  -1.71381  -0.10479 
 H                     0.74306  -0.55925  -0.73364 
 H                     4.04733   0.49195   1.95104 
 H                     4.85232   1.46249   0.72469 
 H                     5.01708  -0.29333   0.70216 
 H                     2.709     0.5244   -2.13673 
 H                     4.28917  -0.13607  -1.72809 
 H                     4.00344   1.60262  -1.59939 
 H                     1.89      1.53844   1.41932 
 H                     1.18915   1.46125  -0.2005 
 H                     2.55905   2.51986   0.12276 
 C                    -1.92074  -1.8196   -0.43715 
 C                    -1.83854  -0.37697   0.05876 
 O                    -0.9297    0.362    -0.74332 
 C                    -3.20344   0.35306   0.17177 
 C                    -4.1717   -0.46691   1.02657 
 C                    -2.954     1.70428   0.85102 
 C                    -3.82538   0.59906  -1.20667 
 H                    -2.43444  -1.87751  -1.39447 
 H                    -2.43948  -2.44671   0.28036 
 H                    -0.91183  -2.20558  -0.56861 
 H                    -1.3806   -0.3758    1.05508 
 H                    -1.22612   0.29829  -1.65877 
 H                    -3.70472  -0.75799   1.9649 
 H                    -4.49528  -1.36363   0.50503 
 H                    -5.05372   0.1273    1.25494 
 H                    -2.62761   1.55901   1.87841 
 H                    -3.86277   2.30122   0.85899 
 H                    -2.17978   2.25452   0.32154 
 H                    -3.96965  -0.33155  -1.751 
 H                    -3.20543   1.26664  -1.80229 
 H                    -4.7986    1.06957  -1.08763 
 
 Add virtual bond connecting atoms O24        and H12        Dist= 3.61D+00.

 GradGradGradGradGradGradGradGradGradGradGradGradGradGradGradGradGradGrad
 Initialization pass.
                           ----------------------------
                           !    Initial Parameters    !
                           ! (Angstroms and Degrees)  !
 --------------------------                            --------------------------
 ! Name  Definition              Value          Derivative Info.                !
 --------------------------------------------------------------------------------
 ! R1    R(1,2)                  1.531          estimate D2E/DX2                !
 ! R2    R(1,8)                  1.0872         estimate D2E/DX2                !
 ! R3    R(1,9)                  1.0853         estimate D2E/DX2                !
 ! R4    R(1,10)                 1.0881         estimate D2E/DX2                !
 ! R5    R(2,3)                  1.4082         estimate D2E/DX2                !
 ! R6    R(2,4)                  1.5547         estimate D2E/DX2                !
 ! R7    R(2,11)                 1.0979         estimate D2E/DX2                !
 ! R8    R(3,12)                 0.9731         estimate D2E/DX2                !
 ! R9    R(4,5)                  1.5309         estimate D2E/DX2                !
 ! R10   R(4,6)                  1.5325         estimate D2E/DX2                !
 ! R11   R(4,7)                  1.5317         estimate D2E/DX2                !
 ! R12   R(5,13)                 1.0869         estimate D2E/DX2                !
 ! R13   R(5,14)                 1.0881         estimate D2E/DX2                !
 ! R14   R(5,15)                 1.088          estimate D2E/DX2                !
 ! R15   R(6,16)                 1.0867         estimate D2E/DX2                !
 ! R16   R(6,17)                 1.0878         estimate D2E/DX2                !
 ! R17   R(6,18)                 1.0877         estimate D2E/DX2                !
 ! R18   R(7,19)                 1.0874         estimate D2E/DX2                !
 ! R19   R(7,20)                 1.0875         estimate D2E/DX2                !
 ! R20   R(7,21)                 1.0881         estimate D2E/DX2                !
 ! R21   R(12,24)                1.9097         estimate D2E/DX2                !
 ! R22   R(22,23)                1.5277         estimate D2E/DX2                !
 ! R23   R(22,29)                1.088          estimate D2E/DX2                !
 ! R24   R(22,30)                1.085          estimate D2E/DX2                !
 ! R25   R(22,31)                1.0882         estimate D2E/DX2                !
 ! R26   R(23,24)                1.4196         estimate D2E/DX2                !
 ! R27   R(23,25)                1.552          estimate D2E/DX2                !
 ! R28   R(23,32)                1.0965         estimate D2E/DX2                !
 ! R29   R(24,33)                0.9644         estimate D2E/DX2                !
 ! R30   R(25,26)                1.5299         estimate D2E/DX2                !
 ! R31   R(25,27)                1.5328         estimate D2E/DX2                !
 ! R32   R(25,28)                1.5321         estimate D2E/DX2                !
 ! R33   R(26,34)                1.0878         estimate D2E/DX2                !
 ! R34   R(26,35)                1.0867         estimate D2E/DX2                !
 ! R35   R(26,36)                1.0877         estimate D2E/DX2                !
 ! R36   R(27,37)                1.0877         estimate D2E/DX2                !
 ! R37   R(27,38)                1.0873         estimate D2E/DX2                !
 ! R38   R(27,39)                1.0874         estimate D2E/DX2                !
 ! R39   R(28,40)                1.0877         estimate D2E/DX2                !
 ! R40   R(28,41)                1.0885         estimate D2E/DX2                !
 ! R41   R(28,42)                1.0875         estimate D2E/DX2                !
 ! A1    A(2,1,8)              110.4735         estimate D2E/DX2                !
 ! A2    A(2,1,9)              111.3315         estimate D2E/DX2                !
 ! A3    A(2,1,10)             108.8849         estimate D2E/DX2                !
 ! A4    A(8,1,9)              109.2727         estimate D2E/DX2                !
 ! A5    A(8,1,10)             108.3032         estimate D2E/DX2                !
 ! A6    A(9,1,10)             108.5014         estimate D2E/DX2                !
 ! A7    A(1,2,3)              110.0018         estimate D2E/DX2                !
 ! A8    A(1,2,4)              113.8706         estimate D2E/DX2                !
 ! A9    A(1,2,11)             108.51           estimate D2E/DX2                !
 ! A10   A(3,2,4)              112.0797         estimate D2E/DX2                !
 ! A11   A(3,2,11)             104.3602         estimate D2E/DX2                !
 ! A12   A(4,2,11)             107.4844         estimate D2E/DX2                !
 ! A13   A(2,3,12)             108.1438         estimate D2E/DX2                !
 ! A14   A(2,4,5)              110.1328         estimate D2E/DX2                !
 ! A15   A(2,4,6)              107.8156         estimate D2E/DX2                !
 ! A16   A(2,4,7)              111.7285         estimate D2E/DX2                !
 ! A17   A(5,4,6)              108.6608         estimate D2E/DX2                !
 ! A18   A(5,4,7)              109.2692         estimate D2E/DX2                !
 ! A19   A(6,4,7)              109.1705         estimate D2E/DX2                !
 ! A20   A(4,5,13)             111.4264         estimate D2E/DX2                !
 ! A21   A(4,5,14)             109.7995         estimate D2E/DX2                !
 ! A22   A(4,5,15)             110.7491         estimate D2E/DX2                !
 ! A23   A(13,5,14)            107.9422         estimate D2E/DX2                !
 ! A24   A(13,5,15)            108.5329         estimate D2E/DX2                !
 ! A25   A(14,5,15)            108.2918         estimate D2E/DX2                !
 ! A26   A(4,6,16)             110.3405         estimate D2E/DX2                !
 ! A27   A(4,6,17)             110.3533         estimate D2E/DX2                !
 ! A28   A(4,6,18)             110.5262         estimate D2E/DX2                !
 ! A29   A(16,6,17)            108.1339         estimate D2E/DX2                !
 ! A30   A(16,6,18)            108.8216         estimate D2E/DX2                !
 ! A31   A(17,6,18)            108.602          estimate D2E/DX2                !
 ! A32   A(4,7,19)             111.0388         estimate D2E/DX2                !
 ! A33   A(4,7,20)             111.4138         estimate D2E/DX2                !
 ! A34   A(4,7,21)             109.6795         estimate D2E/DX2                !
 ! A35   A(19,7,20)            108.6408         estimate D2E/DX2                !
 ! A36   A(19,7,21)            107.8552         estimate D2E/DX2                !
 ! A37   A(20,7,21)            108.0987         estimate D2E/DX2                !
 ! A38   A(23,22,29)           111.1804         estimate D2E/DX2                !
 ! A39   A(23,22,30)           110.9078         estimate D2E/DX2                !
 ! A40   A(23,22,31)           108.9214         estimate D2E/DX2                !
 ! A41   A(29,22,30)           108.9889         estimate D2E/DX2                !
 ! A42   A(29,22,31)           108.2149         estimate D2E/DX2                !
 ! A43   A(30,22,31)           108.5508         estimate D2E/DX2                !
 ! A44   A(22,23,24)           110.0351         estimate D2E/DX2                !
 ! A45   A(22,23,25)           114.8663         estimate D2E/DX2                !
 ! A46   A(22,23,32)           108.5682         estimate D2E/DX2                !
 ! A47   A(24,23,25)           111.0575         estimate D2E/DX2                !
 ! A48   A(24,23,32)           104.2075         estimate D2E/DX2                !
 ! A49   A(25,23,32)           107.4949         estimate D2E/DX2                !
 ! A50   A(12,24,23)           107.8656         estimate D2E/DX2                !
 ! A51   A(12,24,33)           104.0156         estimate D2E/DX2                !
 ! A52   A(23,24,33)           107.768          estimate D2E/DX2                !
 ! A53   A(23,25,26)           110.1927         estimate D2E/DX2                !
 ! A54   A(23,25,27)           107.6867         estimate D2E/DX2                !
 ! A55   A(23,25,28)           111.5315         estimate D2E/DX2                !
 ! A56   A(26,25,27)           109.1398         estimate D2E/DX2                !
 ! A57   A(26,25,28)           109.38           estimate D2E/DX2                !
 ! A58   A(27,25,28)           108.8574         estimate D2E/DX2                !
 ! A59   A(25,26,34)           110.7134         estimate D2E/DX2                !
 ! A60   A(25,26,35)           111.2587         estimate D2E/DX2                !
 ! A61   A(25,26,36)           109.7376         estimate D2E/DX2                !
 ! A62   A(34,26,35)           108.725          estimate D2E/DX2                !
 ! A63   A(34,26,36)           108.2513         estimate D2E/DX2                !
 ! A64   A(35,26,36)           108.0648         estimate D2E/DX2                !
 ! A65   A(25,27,37)           110.467          estimate D2E/DX2                !
 ! A66   A(25,27,38)           110.5612         estimate D2E/DX2                !
 ! A67   A(25,27,39)           110.2526         estimate D2E/DX2                !
 ! A68   A(37,27,38)           108.4922         estimate D2E/DX2                !
 ! A69   A(37,27,39)           108.2907         estimate D2E/DX2                !
 ! A70   A(38,27,39)           108.7128         estimate D2E/DX2                !
 ! A71   A(25,28,40)           111.5125         estimate D2E/DX2                !
 ! A72   A(25,28,41)           111.0749         estimate D2E/DX2                !
 ! A73   A(25,28,42)           109.5274         estimate D2E/DX2                !
 ! A74   A(40,28,41)           109.0526         estimate D2E/DX2                !
 ! A75   A(40,28,42)           107.8325         estimate D2E/DX2                !
 ! A76   A(41,28,42)           107.7124         estimate D2E/DX2                !
 ! A77   L(3,12,24,7,-1)       194.3639         estimate D2E/DX2                !
 ! A78   L(3,12,24,7,-2)       176.1311         estimate D2E/DX2                !
 ! D1    D(8,1,2,3)            -64.4581         estimate D2E/DX2                !
 ! D2    D(8,1,2,4)             62.3062         estimate D2E/DX2                !
 ! D3    D(8,1,2,11)          -178.0488         estimate D2E/DX2                !
 ! D4    D(9,1,2,3)            173.9387         estimate D2E/DX2                !
 ! D5    D(9,1,2,4)            -59.2971         estimate D2E/DX2                !
 ! D6    D(9,1,2,11)            60.348          estimate D2E/DX2                !
 ! D7    D(10,1,2,3)            54.3587         estimate D2E/DX2                !
 ! D8    D(10,1,2,4)          -178.877          estimate D2E/DX2                !
 ! D9    D(10,1,2,11)          -59.232          estimate D2E/DX2                !
 ! D10   D(1,2,3,12)            62.6373         estimate D2E/DX2                !
 ! D11   D(4,2,3,12)           -65.125          estimate D2E/DX2                !
 ! D12   D(11,2,3,12)          178.8648         estimate D2E/DX2                !
 ! D13   D(1,2,4,5)             65.3597         estimate D2E/DX2                !
 ! D14   D(1,2,4,6)           -176.2312         estimate D2E/DX2                !
 ! D15   D(1,2,4,7)            -56.2726         estimate D2E/DX2                !
 ! D16   D(3,2,4,5)           -168.9676         estimate D2E/DX2                !
 ! D17   D(3,2,4,6)            -50.5585         estimate D2E/DX2                !
 ! D18   D(3,2,4,7)             69.4001         estimate D2E/DX2                !
 ! D19   D(11,2,4,5)           -54.864          estimate D2E/DX2                !
 ! D20   D(11,2,4,6)            63.5451         estimate D2E/DX2                !
 ! D21   D(11,2,4,7)          -176.4963         estimate D2E/DX2                !
 ! D22   D(2,3,24,23)          -89.496          estimate D2E/DX2                !
 ! D23   D(2,3,24,33)          158.4063         estimate D2E/DX2                !
 ! D24   D(2,4,5,13)           -67.3701         estimate D2E/DX2                !
 ! D25   D(2,4,5,14)           173.092          estimate D2E/DX2                !
 ! D26   D(2,4,5,15)            53.5472         estimate D2E/DX2                !
 ! D27   D(6,4,5,13)           174.7414         estimate D2E/DX2                !
 ! D28   D(6,4,5,14)            55.2034         estimate D2E/DX2                !
 ! D29   D(6,4,5,15)           -64.3413         estimate D2E/DX2                !
 ! D30   D(7,4,5,13)            55.7136         estimate D2E/DX2                !
 ! D31   D(7,4,5,14)           -63.8244         estimate D2E/DX2                !
 ! D32   D(7,4,5,15)           176.6309         estimate D2E/DX2                !
 ! D33   D(2,4,6,16)            58.4529         estimate D2E/DX2                !
 ! D34   D(2,4,6,17)           -60.9907         estimate D2E/DX2                !
 ! D35   D(2,4,6,18)           178.8641         estimate D2E/DX2                !
 ! D36   D(5,4,6,16)           177.8017         estimate D2E/DX2                !
 ! D37   D(5,4,6,17)            58.3582         estimate D2E/DX2                !
 ! D38   D(5,4,6,18)           -61.787          estimate D2E/DX2                !
 ! D39   D(7,4,6,16)           -63.1085         estimate D2E/DX2                !
 ! D40   D(7,4,6,17)           177.4479         estimate D2E/DX2                !
 ! D41   D(7,4,6,18)            57.3027         estimate D2E/DX2                !
 ! D42   D(2,4,7,19)            69.1871         estimate D2E/DX2                !
 ! D43   D(2,4,7,20)           -52.0583         estimate D2E/DX2                !
 ! D44   D(2,4,7,21)          -171.705          estimate D2E/DX2                !
 ! D45   D(5,4,7,19)           -52.9424         estimate D2E/DX2                !
 ! D46   D(5,4,7,20)          -174.1877         estimate D2E/DX2                !
 ! D47   D(5,4,7,21)            66.1656         estimate D2E/DX2                !
 ! D48   D(6,4,7,19)          -171.6534         estimate D2E/DX2                !
 ! D49   D(6,4,7,20)            67.1013         estimate D2E/DX2                !
 ! D50   D(6,4,7,21)           -52.5454         estimate D2E/DX2                !
 ! D51   D(29,22,23,24)        -70.6031         estimate D2E/DX2                !
 ! D52   D(29,22,23,25)         55.5922         estimate D2E/DX2                !
 ! D53   D(29,22,23,32)        175.9383         estimate D2E/DX2                !
 ! D54   D(30,22,23,24)        167.9587         estimate D2E/DX2                !
 ! D55   D(30,22,23,25)        -65.846          estimate D2E/DX2                !
 ! D56   D(30,22,23,32)         54.5001         estimate D2E/DX2                !
 ! D57   D(31,22,23,24)         48.5538         estimate D2E/DX2                !
 ! D58   D(31,22,23,25)        174.7491         estimate D2E/DX2                !
 ! D59   D(31,22,23,32)        -64.9048         estimate D2E/DX2                !
 ! D60   D(22,23,24,12)        -55.0792         estimate D2E/DX2                !
 ! D61   D(22,23,24,33)         56.6668         estimate D2E/DX2                !
 ! D62   D(25,23,24,12)        176.6033         estimate D2E/DX2                !
 ! D63   D(25,23,24,33)        -71.6508         estimate D2E/DX2                !
 ! D64   D(32,23,24,12)         61.1501         estimate D2E/DX2                !
 ! D65   D(32,23,24,33)        172.896          estimate D2E/DX2                !
 ! D66   D(22,23,25,26)         53.7137         estimate D2E/DX2                !
 ! D67   D(22,23,25,27)        172.658          estimate D2E/DX2                !
 ! D68   D(22,23,25,28)        -67.9675         estimate D2E/DX2                !
 ! D69   D(24,23,25,26)        179.3803         estimate D2E/DX2                !
 ! D70   D(24,23,25,27)        -61.6754         estimate D2E/DX2                !
 ! D71   D(24,23,25,28)         57.699          estimate D2E/DX2                !
 ! D72   D(32,23,25,26)        -67.2222         estimate D2E/DX2                !
 ! D73   D(32,23,25,27)         51.7221         estimate D2E/DX2                !
 ! D74   D(32,23,25,28)        171.0966         estimate D2E/DX2                !
 ! D75   D(23,25,26,34)         50.1354         estimate D2E/DX2                !
 ! D76   D(23,25,26,35)        -70.888          estimate D2E/DX2                !
 ! D77   D(23,25,26,36)        169.568          estimate D2E/DX2                !
 ! D78   D(27,25,26,34)        -67.9179         estimate D2E/DX2                !
 ! D79   D(27,25,26,35)        171.0588         estimate D2E/DX2                !
 ! D80   D(27,25,26,36)         51.5147         estimate D2E/DX2                !
 ! D81   D(28,25,26,34)        173.0854         estimate D2E/DX2                !
 ! D82   D(28,25,26,35)         52.0621         estimate D2E/DX2                !
 ! D83   D(28,25,26,36)        -67.482          estimate D2E/DX2                !
 ! D84   D(23,25,27,37)        -65.9217         estimate D2E/DX2                !
 ! D85   D(23,25,27,38)        173.9737         estimate D2E/DX2                !
 ! D86   D(23,25,27,39)         53.7329         estimate D2E/DX2                !
 ! D87   D(26,25,27,37)         53.6936         estimate D2E/DX2                !
 ! D88   D(26,25,27,38)        -66.4109         estimate D2E/DX2                !
 ! D89   D(26,25,27,39)        173.3482         estimate D2E/DX2                !
 ! D90   D(28,25,27,37)        173.015          estimate D2E/DX2                !
 ! D91   D(28,25,27,38)         52.9104         estimate D2E/DX2                !
 ! D92   D(28,25,27,39)        -67.3304         estimate D2E/DX2                !
 ! D93   D(23,25,28,40)         58.139          estimate D2E/DX2                !
 ! D94   D(23,25,28,41)        -63.7265         estimate D2E/DX2                !
 ! D95   D(23,25,28,42)        177.417          estimate D2E/DX2                !
 ! D96   D(26,25,28,40)        -64.0116         estimate D2E/DX2                !
 ! D97   D(26,25,28,41)        174.1229         estimate D2E/DX2                !
 ! D98   D(26,25,28,42)         55.2663         estimate D2E/DX2                !
 ! D99   D(27,25,28,40)        176.8169         estimate D2E/DX2                !
 ! D100  D(27,25,28,41)         54.9514         estimate D2E/DX2                !
 ! D101  D(27,25,28,42)        -63.9052         estimate D2E/DX2                !
 --------------------------------------------------------------------------------
 Number of steps in this run=    230 maximum allowed number of steps=    252.
 GradGradGradGradGradGradGradGradGradGradGradGradGradGradGradGradGradGrad

                    Distance matrix (angstroms):
                    1          2          3          4          5
     1  C    0.000000
     2  C    1.531048   0.000000
     3  O    2.408724   1.408170   0.000000
     4  C    2.586051   1.554691   2.458837   0.000000
     5  C    3.105568   2.529631   3.777234   1.530872   0.000000
     6  C    3.892503   2.494678   2.815960   1.532472   2.488639
     7  C    3.047494   2.554635   3.073887   1.531656   2.497423
     8  H    1.087248   2.165804   2.711572   2.857755   3.541158
     9  H    1.085289   2.175050   3.351037   2.846658   2.788735
    10  H    1.088139   2.146302   2.610752   3.510020   4.059539
    11  H    2.148677   1.097908   1.988777   2.155952   2.691698
    12  H    2.587814   1.945087   0.973125   2.660768   4.087525
    13  H    2.842147   2.843327   4.180347   2.177308   1.086925
    14  H    4.120152   3.474587   4.584160   2.157744   1.088056
    15  H    3.396264   2.722233   3.983703   2.169637   1.087955
    16  H    4.133593   2.709866   2.453098   2.165011   3.443234
    17  H    4.188508   2.731681   3.121202   2.165945   2.711975
    18  H    4.729451   3.457349   3.831894   2.168077   2.742646
    19  H    2.802942   2.883077   3.590971   2.173520   2.691121
    20  H    3.276949   2.753918   2.747603   2.178274   3.456627
    21  H    4.083809   3.490383   3.989614   2.156943   2.777985
    22  C    4.280529   4.483712   3.481594   5.522600   6.807894
    23  C    4.064100   4.326909   3.536796   5.007350   6.289706
    24  O    3.926796   3.728675   2.861145   4.098442   5.512205
    25  C    5.476412   5.803716   5.034924   6.308415   7.569466
    26  C    6.101485   6.701155   6.002539   7.402270   8.559093
    27  C    5.691149   6.072063   5.563895   6.246643   7.377772
    28  C    6.562917   6.598348   5.600081   7.031771   8.422654
    29  H    5.210461   5.188484   4.001246   6.158174   7.535705
    30  H    4.620727   5.108369   4.272858   6.253239   7.418083
    31  H    3.579884   3.643383   2.613406   4.837635   6.089605
    32  H    3.387917   3.987398   3.543826   4.678159   5.782076
    33  H    4.678588   4.269303   3.175831   4.633610   6.120826
    34  H    5.607220   6.429281   5.925311   7.187068   8.204522
    35  H    6.431909   6.965160   6.130590   7.824396   9.032678
    36  H    7.055830   7.666830   6.992656   8.258761   9.397575
    37  H    5.315122   5.939220   5.654733   6.135998   7.100283
    38  H    6.771507   7.146513   6.607776   7.262015   8.381971
    39  H    5.482972   5.643150   5.160067   5.595535   6.759319
    40  H    6.735507   6.711645   5.577099   7.323148   8.754138
    41  H    6.550531   6.372318   5.361158   6.609440   8.039008
    42  H    7.512003   7.621841   6.667739   7.998737   9.357503
                    6          7          8          9         10
     6  C    0.000000
     7  C    2.497199   0.000000
     8  H    4.215021   2.731900   0.000000
     9  H    4.254484   3.391998   1.771694   0.000000
    10  H    4.639964   4.043018   1.763303   1.763915   0.000000
    11  H    2.720760   3.479320   3.057479   2.497469   2.455230
    12  H    3.135473   2.746038   2.476925   3.595960   2.891499
    13  H    3.450442   2.717978   3.175814   2.240739   3.822887
    14  H    2.677800   2.759732   4.413221   3.805138   5.111846
    15  H    2.766916   3.453610   4.094923   3.003650   4.158952
    16  H    1.086746   2.760660   4.335465   4.730334   4.750067
    17  H    1.087779   3.450713   4.745002   4.458057   4.796814
    18  H    1.087720   2.716530   4.938414   4.973563   5.575990
    19  H    3.451678   1.087379   2.279574   2.963480   3.833919
    20  H    2.809641   1.087491   2.795310   3.903967   4.103376
    21  H    2.665988   1.088097   3.782890   4.298540   5.103634
    22  C    6.082130   5.321585   3.890087   5.319071   3.903193
    23  C    5.692071   4.412731   3.347952   5.042954   4.049589
    24  O    4.549383   3.452543   3.301368   4.909936   4.188396
    25  C    6.958321   5.458837   4.628943   6.381479   5.495869
    26  C    8.190185   6.640603   5.279287   6.942991   5.915128
    27  C    6.992156   5.099071   4.692327   6.445085   5.960615
    28  C    7.384945   6.219748   5.814239   7.539978   6.577109
    29  H    6.490223   5.963475   4.864217   6.275754   4.849134
    30  H    6.955722   6.064498   4.228392   5.574247   4.070878
    31  H    5.361155   4.915719   3.440785   4.636606   3.129139
    32  H    5.629332   4.056175   2.537793   4.261085   3.427335
    33  H    4.796191   4.101514   4.172092   5.696414   4.861558
    34  H    8.145482   6.468329   4.775431   6.347549   5.385879
    35  H    8.521533   7.229957   5.743837   7.331175   6.087387
    36  H    9.040802   7.367732   6.170927   7.853819   6.928637
    37  H    7.089561   4.984445   4.257974   5.944200   5.601137
    38  H    7.951927   6.049109   5.761076   7.503654   7.031099
    39  H    6.223885   4.355608   4.516923   6.228258   5.912067
    40  H    7.590369   6.712669   6.117560   7.766113   6.600068
    41  H    6.799835   5.752273   5.828675   7.522667   6.704699
    42  H    8.374107   7.082965   6.700334   8.452925   7.533417
                   11         12         13         14         15
    11  H    0.000000
    12  H    2.808454   0.000000
    13  H    3.125444   4.385280   0.000000
    14  H    3.664125   4.806258   1.758951   0.000000
    15  H    2.425130   4.516574   1.765441   1.763681   0.000000
    16  H    3.066662   2.647239   4.301404   3.696154   3.749031
    17  H    2.501455   3.707137   3.740177   2.981390   2.541795
    18  H    3.720061   4.006653   3.720359   2.478215   3.149479
    19  H    3.831672   3.217293   2.456001   3.043621   3.694365
    20  H    3.772800   2.136739   3.706464   3.778198   4.306555
    21  H    4.291735   3.675888   3.109664   2.596038   3.780430
    22  C    5.157338   2.961800   6.831152   7.615535   7.194507
    23  C    5.239384   2.706618   6.243334   6.970988   6.886252
    24  O    4.687908   1.909695   5.661033   6.066124   6.154922
    25  C    6.757995   4.150534   7.467180   8.150572   8.262934
    26  C    7.585690   5.221276   8.326252   9.232909   9.196140
    27  C    7.125604   4.615507   7.190158   7.811081   8.218920
    28  C    7.501223   4.736678   8.483055   8.931861   9.090056
    29  H    5.806624   3.503006   7.669428   8.291158   7.901305
    30  H    5.724455   3.836573   7.314753   8.285507   7.772725
    31  H    4.191489   2.340155   6.182119   6.953619   6.357953
    32  H    4.934078   2.782639   5.569394   6.506744   6.407935
    33  H    5.125815   2.338574   6.393552   6.632016   6.700862
    34  H    7.294876   5.206183   7.852186   8.927015   8.824976
    35  H    7.752028   5.442571   8.860606   9.767950   9.574415
    36  H    8.589073   6.166721   9.134913  10.009670  10.094725
    37  H    6.992497   4.761434   6.760087   7.569001   7.953368
    38  H    8.202611   5.650880   8.187537   8.756387   9.252462
    39  H    6.718540   4.192101   6.673745   7.088038   7.644033
    40  H    7.508698   4.826648   8.868778   9.336740   9.315619
    41  H    7.287818   4.479564   8.203060   8.446970   8.735872
    42  H    8.549145   5.786914   9.371108   9.827468  10.070175
                   16         17         18         19         20
    16  H    0.000000
    17  H    1.760721   0.000000
    18  H    1.768299   1.766709   0.000000
    19  H    3.787423   4.297235   3.685564   0.000000
    20  H    2.633751   3.807244   3.145969   1.766627   0.000000
    21  H    3.018224   3.670553   2.427632   1.758380   1.761189
    22  C    5.460533   6.562298   6.939622   5.407835   4.526747
    23  C    5.129595   6.387458   6.387251   4.407032   3.551504
    24  O    3.899757   5.334269   5.158282   3.743224   2.447964
    25  C    6.349446   7.745183   7.525793   5.376304   4.545495
    26  C    7.637615   8.904147   8.832413   6.396862   5.827710
    27  C    6.510628   7.905826   7.377043   4.880038   4.281402
    28  C    6.600660   8.164445   7.902648   6.359549   5.186645
    29  H    5.724954   6.953472   7.321177   6.187642   5.069845
    30  H    6.416905   7.392401   7.838481   5.993583   5.354472
    31  H    4.798148   5.716437   6.302763   5.081318   4.242086
    32  H    5.265244   6.320579   6.320459   3.807070   3.399239
    33  H    3.970484   5.532799   5.390094   4.552231   3.051648
    34  H    7.720341   8.827635   8.814328   6.072242   5.793440
    35  H    7.902228   9.146597   9.244215   7.073171   6.386744
    36  H    8.480619   9.811082   9.610198   7.087564   6.547605
    37  H    6.758048   7.982606   7.487849   4.540926   4.347309
    38  H    7.437716   8.893115   8.270973   5.830110   5.229720
    39  H    5.739043   7.194667   6.507473   4.275632   3.500214
    40  H    6.744314   8.261159   8.205740   6.919774   5.677270
    41  H    5.970197   7.625096   7.219550   6.034573   4.681447
    42  H    7.600121   9.189734   8.833004   7.158354   6.065770
                   21         22         23         24         25
    21  H    0.000000
    22  C    6.262029   0.000000
    23  C    5.266361   1.527696   0.000000
    24  O    4.192595   2.415635   1.419647   0.000000
    25  C    6.156605   2.595478   1.551987   2.450991   0.000000
    26  C    7.418941   3.006499   2.527525   3.785519   1.529888
    27  C    5.620432   3.891615   2.490685   2.905404   1.532775
    28  C    6.798375   3.173276   2.549801   2.942084   1.532130
    29  H    6.824506   1.087974   2.172231   2.775550   2.831942
    30  H    7.048193   1.084980   2.166578   3.349064   2.904155
    31  H    5.903799   1.088192   2.143867   2.573581   3.513718
    32  H    4.977440   2.145475   1.096523   1.995465   2.152722
    33  H    4.736746   2.541714   1.944462   0.964350   2.695116
    34  H    7.305659   3.174807   2.694656   4.036032   2.168183
    35  H    8.061717   2.779182   2.868960   4.153258   2.174149
    36  H    8.059807   4.058213   3.467350   4.588643   2.155865
    37  H    5.559410   4.156499   2.771606   3.345025   2.167610
    38  H    6.467586   4.736306   3.451174   3.864048   2.168489
    39  H    4.750419   4.152247   2.666506   2.505644   2.164689
    40  H    7.366511   2.852805   2.796233   3.276847   2.180091
    41  H    6.205293   3.610941   2.834318   2.668097   2.175213
    42  H    7.596280   4.129461   3.488359   3.948111   2.154999
                   26         27         28         29         30
    26  C    0.000000
    27  C    2.495530   0.000000
    28  C    2.498719   2.492970   0.000000
    29  H    3.296862   4.259268   2.846645   0.000000
    30  H    2.734413   4.221501   3.661787   1.768914   0.000000
    31  H    4.024209   4.633866   4.094124   1.762951   1.764254
    32  H    2.792731   2.616090   3.470275   3.060392   2.451550
    33  H    4.058695   3.355795   2.655373   2.502804   3.573165
    34  H    1.087772   2.804833   3.451808   3.761949   2.700047
    35  H    1.086654   3.450697   2.689017   2.849427   2.334494
    36  H    1.087749   2.656849   2.791216   4.230750   3.795994
    37  H    2.685923   1.087733   3.445850   4.749605   4.316824
    38  H    2.790353   1.087326   2.676887   4.957826   4.990333
    39  H    3.445430   1.087439   2.789981   4.481434   4.708580
    40  H    2.788200   3.456388   1.087718   2.207713   3.307833
    41  H    3.455625   2.700885   1.088472   3.262893   4.325865
    42  H    2.687685   2.750234   1.087522   3.790606   4.449840
                   31         32         33         34         35
    31  H    0.000000
    32  H    2.490819   0.000000
    33  H    2.748927   2.800573   0.000000
    34  H    4.039101   2.524953   4.515543   0.000000
    35  H    3.834405   3.313551   4.258100   1.767200   0.000000
    36  H    5.091447   3.712798   4.813463   1.762834   1.759852
    37  H    4.806653   2.444670   4.008143   2.556590   3.730440
    38  H    5.572907   3.655962   4.159658   3.256808   3.735837
    39  H    4.721497   2.845232   2.942434   3.755170   4.299560
    40  H    3.776278   3.818273   2.816408   3.749657   2.535971
    41  H    4.340377   3.767249   2.208159   4.305825   3.729043
    42  H    5.109101   4.285210   3.699143   3.722164   2.923872
                   36         37         38         39         40
    36  H    0.000000
    37  H    2.885222   0.000000
    38  H    2.510193   1.765136   0.000000
    39  H    3.695378   1.762989   1.767339   0.000000
    40  H    3.228221   4.306726   3.708766   3.766537   0.000000
    41  H    3.749789   3.737232   2.929995   2.557052   1.772250
    42  H    2.537836   3.708121   2.486383   3.201264   1.757935
                   41         42
    41  H    0.000000
    42  H    1.757201   0.000000
 Framework group  C1[X(C12H28O2)]
 Deg. of freedom   120
                         Standard orientation:                         
 ---------------------------------------------------------------------
 Center     Atomic      Atomic             Coordinates (Angstroms)
 Number     Number       Type             X           Y           Z
 ---------------------------------------------------------------------
      1          6           0       -1.868119    1.345069    1.415025
      2          6           0       -2.454151    0.993551    0.044949
      3          8           0       -1.476621    1.161771   -0.954592
      4          6           0       -3.115044   -0.412410   -0.014696
      5          6           0       -4.344500   -0.455801    0.896415
      6          6           0       -3.565915   -0.657679   -1.458659
      7          6           0       -2.138216   -1.516260    0.401586
      8          1           0       -1.072989    0.651653    1.677799
      9          1           0       -2.630378    1.325327    2.187310
     10          1           0       -1.446819    2.347384    1.371233
     11          1           0       -3.227428    1.732330   -0.203345
     12          1           0       -0.749868    0.539921   -0.775416
     13          1           0       -4.065294   -0.378413    1.944013
     14          1           0       -4.872143   -1.397357    0.758831
     15          1           0       -5.028389    0.356601    0.659885
     16          1           0       -2.717789   -0.594197   -2.135172
     17          1           0       -4.295684    0.090800   -1.759456
     18          1           0       -4.018639   -1.642016   -1.554873
     19          1           0       -1.911820   -1.457113    1.463490
     20          1           0       -1.206904   -1.453467   -0.156403
     21          1           0       -2.582629   -2.490608    0.208977
     22          6           0        1.919298    1.799354   -0.527145
     23          6           0        1.829007    0.379965    0.030561
     24          8           0        0.918454   -0.388763   -0.741027
     25          6           0        3.190112   -0.350910    0.178480
     26          6           0        4.160352    0.500736    0.999388
     27          6           0        2.932607   -1.670251    0.914977
     28          6           0        3.814012   -0.659314   -1.186459
     29          1           0        2.435454    1.813330   -1.484786
     30          1           0        2.439408    2.454504    0.163831
     31          1           0        0.912563    2.184032   -0.677704
     32          1           0        1.368789    0.424105    1.024851
     33          1           0        1.217271   -0.366162   -1.657635
     34          1           0        3.692638    0.834386    1.923060
     35          1           0        4.489447    1.372487    0.440313
     36          1           0        5.038975   -0.087178    1.255468
     37          1           0        2.604579   -1.479086    1.934299
     38          1           0        3.838474   -2.270569    0.951059
     39          1           0        2.156963   -2.239256    0.407895
     40          1           0        3.964007    0.246149   -1.770213
     41          1           0        3.192215   -1.349141   -1.754156
     42          1           0        4.784676   -1.128813   -1.044736
 ---------------------------------------------------------------------
 Rotational constants (GHZ):           1.2118547           0.2693225           0.2610184
   252 basis functions,   462 primitive gaussians,   266 cartesian basis functions
    58 alpha electrons       58 beta electrons
       nuclear repulsion energy      1029.4912494666 Hartrees.
 NAtoms=   42 NActive=   42 NUniq=   42 SFac= 1.00D+00 NAtFMM=   60 NAOKFM=F Big=F
 Nuclear repulsion after empirical dispersion term =     1029.4546769017 Hartrees.
   1 Symmetry operations used in ECPInt.
 ECPInt:  NShTT=    9870 NPrTT=   39606 LenC2=    9402 LenP2D=   26840.
 LDataN:  DoStor=T MaxTD1= 4 Len=   56
 ExpMin= 1.22D-01 ExpMax= 2.27D+03 ExpMxC= 3.41D+02 IAcc=3 IRadAn=         5 AccDes= 0.00D+00
 Harris functional with IExCor= 4639 and IRadAn=       5 diagonalized for initial guess.
 HarFok:  IExCor= 4639 AccDes= 0.00D+00 IRadAn=         5 IDoV= 1 UseB2=F ITyADJ=14
 ICtDFT=  3500011 ScaDFX=  1.000000  1.000000  1.000000  1.000000
 FoFCou: FMM=F IPFlag=           0 FMFlag=      100000 FMFlg1=           0
         NFxFlg=           0 DoJE=T BraDBF=F KetDBF=T FulRan=T
         wScrn=  0.000000 ICntrl=       500 IOpCl=  0 I1Cent=   200000004 NGrid=           0
         NMat0=    1 NMatS0=      1 NMatT0=    0 NMatD0=    1 NMtDS0=    0 NMtDT0=    0
 Petite list used in FoFCou.
     Minimum is close to point  3 DX= -1.84D-02 DF= -1.36D-04 DXR=  3.17D-02 DFR=  9.94D-04 which will be used.
     Accept linear search using points  2 and  3.
     Accept linear search using points  1 and  2.
     Accept linear search using points  2 and  3.
     Minimum is close to point  3 DX= -2.98D-02 DF= -9.86D-09 DXR=  2.55D-02 DFR=  1.15D-04 which will be used.
     Accept linear search using points  1 and  2.
     Minimum is close to point  2 DX= -6.82D-05 DF=  0.00D+00 DXR=  6.82D-05 DFR=  0.00D+00 which will be used.
 SCF Done:  E(RwB97XD) =  -623.906966746     a.u. after    7 cycles
            Convg  =    0.7885D-06                    24 Fock formations.
              S**2 =  0.0000                  -V/T =  2.0097

 **********************************************************************

            Population analysis using the SCF Density.

 **********************************************************************

 Orbital symmetries:
       Occupied  (A) (A) (A) (A) (A) (A) (A) (A) (A) (A) (A) (A)
                 (A) (A) (A) (A) (A) (A) (A) (A) (A) (A) (A) (A)
                 (A) (A) (A) (A) (A) (A) (A) (A) (A) (A) (A) (A)
                 (A) (A) (A) (A) (A) (A) (A) (A) (A) (A) (A) (A)
                 (A) (A) (A) (A) (A) (A) (A) (A) (A) (A)
       Virtual   (A) (A) (A) (A) (A) (A) (A) (A) (A) (A) (A) (A)
                 (A) (A) (A) (A) (A) (A) (A) (A) (A) (A) (A) (A)
                 (A) (A) (A) (A) (A) (A) (A) (A) (A) (A) (A) (A)
                 (A) (A) (A) (A) (A) (A) (A) (A) (A) (A) (A) (A)
                 (A) (A) (A) (A) (A) (A) (A) (A) (A) (A) (A) (A)
                 (A) (A) (A) (A) (A) (A) (A) (A) (A) (A) (A) (A)
                 (A) (A) (A) (A) (A) (A) (A) (A) (A) (A) (A) (A)
                 (A) (A) (A) (A) (A) (A) (A) (A) (A) (A) (A) (A)
                 (A) (A) (A) (A) (A) (A) (A) (A) (A) (A) (A) (A)
                 (A) (A) (A) (A) (A) (A) (A) (A) (A) (A) (A) (A)
                 (A) (A) (A) (A) (A) (A) (A) (A) (A) (A) (A) (A)
                 (A) (A) (A) (A) (A) (A) (A) (A) (A) (A) (A) (A)
                 (A) (A) (A) (A) (A) (A) (A) (A) (A) (A) (A) (A)
                 (A) (A) (A) (A) (A) (A) (A) (A) (A) (A) (A) (A)
                 (A) (A) (A) (A) (A) (A) (A) (A) (A) (A) (A) (A)
                 (A) (A) (A) (A) (A) (A) (A) (A) (A) (A) (A) (A)
                 (A) (A)
 The electronic state is 1-A.
 Alpha  occ. eigenvalues --  -19.27440 -19.22131 -10.35063 -10.32288 -10.31155
 Alpha  occ. eigenvalues --  -10.28954 -10.28689 -10.28342 -10.28158 -10.27503
 Alpha  occ. eigenvalues --  -10.26685 -10.26658 -10.26220 -10.25730  -1.13727
 Alpha  occ. eigenvalues --   -1.08938  -0.92443  -0.90144  -0.83714  -0.81518
 Alpha  occ. eigenvalues --   -0.78887  -0.78239  -0.76786  -0.76243  -0.73068
 Alpha  occ. eigenvalues --   -0.70526  -0.65212  -0.62503  -0.58537  -0.57268
 Alpha  occ. eigenvalues --   -0.55981  -0.55365  -0.54143  -0.53773  -0.52576
 Alpha  occ. eigenvalues --   -0.52459  -0.51687  -0.50781  -0.48871  -0.48037
 Alpha  occ. eigenvalues --   -0.47498  -0.47013  -0.46947  -0.46070  -0.45635
 Alpha  occ. eigenvalues --   -0.45357  -0.44767  -0.44352  -0.43395  -0.42574
 Alpha  occ. eigenvalues --   -0.42119  -0.41540  -0.40056  -0.39587  -0.39239
 Alpha  occ. eigenvalues --   -0.37481  -0.36213  -0.32821
 Alpha virt. eigenvalues --    0.11311   0.13961   0.14238   0.15802   0.16678
 Alpha virt. eigenvalues --    0.17999   0.18429   0.18765   0.19347   0.19596
 Alpha virt. eigenvalues --    0.20224   0.20703   0.21165   0.21703   0.22459
 Alpha virt. eigenvalues --    0.22877   0.23320   0.23379   0.24362   0.24954
 Alpha virt. eigenvalues --    0.25436   0.26433   0.26647   0.27104   0.27359
 Alpha virt. eigenvalues --    0.27621   0.28323   0.29380   0.29516   0.30839
 Alpha virt. eigenvalues --    0.31543   0.32047   0.32255   0.32616   0.33958
 Alpha virt. eigenvalues --    0.34303   0.34474   0.34772   0.36147   0.38163
 Alpha virt. eigenvalues --    0.48053   0.49039   0.49314   0.49931   0.50260
 Alpha virt. eigenvalues --    0.51472   0.52861   0.53763   0.55409   0.57238
 Alpha virt. eigenvalues --    0.58201   0.59127   0.60572   0.61590   0.63602
 Alpha virt. eigenvalues --    0.65125   0.66541   0.68362   0.68864   0.69515
 Alpha virt. eigenvalues --    0.70819   0.71185   0.72022   0.72122   0.72858
 Alpha virt. eigenvalues --    0.73748   0.76095   0.77139   0.77417   0.77863
 Alpha virt. eigenvalues --    0.78132   0.78971   0.79162   0.79323   0.79889
 Alpha virt. eigenvalues --    0.80219   0.80354   0.81212   0.81418   0.82157
 Alpha virt. eigenvalues --    0.82348   0.82467   0.83019   0.83446   0.83836
 Alpha virt. eigenvalues --    0.84086   0.84150   0.84892   0.85023   0.85292
 Alpha virt. eigenvalues --    0.85872   0.86013   0.86874   0.87224   0.87603
 Alpha virt. eigenvalues --    0.88263   0.88782   0.89997   0.90706   0.91797
 Alpha virt. eigenvalues --    0.92784   0.95573   0.95923   0.98908   0.99973
 Alpha virt. eigenvalues --    1.01357   1.05406   1.07947   1.13535   1.17244
 Alpha virt. eigenvalues --    1.18570   1.19438   1.23113   1.25766   1.26180
 Alpha virt. eigenvalues --    1.27020   1.29298   1.30367   1.35275   1.38371
 Alpha virt. eigenvalues --    1.39523   1.43364   1.46424   1.51459   1.56132
 Alpha virt. eigenvalues --    1.60043   1.65074   1.67187   1.71721   1.74727
 Alpha virt. eigenvalues --    1.77253   1.79473   1.80811   1.83969   1.85336
 Alpha virt. eigenvalues --    1.86887   1.91104   1.92575   1.93165   1.94546
 Alpha virt. eigenvalues --    1.95313   1.97586   2.00295   2.01415   2.03270
 Alpha virt. eigenvalues --    2.04022   2.11603   2.11692   2.12820   2.13600
 Alpha virt. eigenvalues --    2.14187   2.15164   2.16199   2.16443   2.17669
 Alpha virt. eigenvalues --    2.19455   2.23470   2.25589   2.26173   2.26761
 Alpha virt. eigenvalues --    2.27258   2.27573   2.28061   2.28459   2.29196
 Alpha virt. eigenvalues --    2.30265   2.31381   2.32598   2.33787   2.35504
 Alpha virt. eigenvalues --    2.36208   2.37169   2.51235   2.52939   2.58548
 Alpha virt. eigenvalues --    2.60676   2.68445   2.71156   2.72362   2.73577
 Alpha virt. eigenvalues --    2.73924   2.74591   2.77809   2.80604   2.81943
 Alpha virt. eigenvalues --    2.84621   2.93278   2.98530   3.08205   3.09687
 Alpha virt. eigenvalues --    3.13790   3.17467   3.49123   3.54179
          Condensed to atoms (all electrons):
 Mulliken charges:
               1
     1  C   -0.307461
     2  C    0.086803
     3  O   -0.519025
     4  C   -0.285628
     5  C   -0.256210
     6  C   -0.221166
     7  C   -0.301570
     8  H    0.118857
     9  H    0.112493
    10  H    0.123313
    11  H    0.071731
    12  H    0.344909
    13  H    0.111526
    14  H    0.107811
    15  H    0.107191
    16  H    0.110850
    17  H    0.099792
    18  H    0.100306
    19  H    0.110453
    20  H    0.130503
    21  H    0.105772
    22  C   -0.308573
    23  C    0.053621
    24  O   -0.492067
    25  C   -0.256812
    26  C   -0.261989
    27  C   -0.242968
    28  C   -0.300245
    29  H    0.107882
    30  H    0.125322
    31  H    0.146783
    32  H    0.099027
    33  H    0.333462
    34  H    0.114688
    35  H    0.119702
    36  H    0.115700
    37  H    0.106339
    38  H    0.109803
    39  H    0.127200
    40  H    0.119843
    41  H    0.110759
    42  H    0.121273
 Sum of Mulliken charges =   0.00000
 Mulliken charges with hydrogens summed into heavy atoms:
               1
     1  C    0.047201
     2  C    0.158534
     3  O   -0.174115
     4  C   -0.285628
     5  C    0.070318
     6  C    0.089782
     7  C    0.045158
    22  C    0.071414
    23  C    0.152648
    24  O   -0.158605
    25  C   -0.256812
    26  C    0.088100
    27  C    0.100374
    28  C    0.051630
 Electronic spatial extent (au):  <R**2>=           4692.8062
 Charge=              0.0000 electrons
 Dipole moment (field-independent basis, Debye):
    X=              2.5888    Y=             -0.3984    Z=              0.4710  Tot=              2.6613
 Evaluate density.
 Using the total density.
 Monte-Carlo method of calculating molar volume:
 based on  0.001 e/bohr**3 density envelope.
 Number of points per bohr**3 =  100 CutOff= 1.00D-04
 Using the SCF density.
 There are      2190 points.  Will hold      2190 in memory.
 LenV=  1047917311 MDV=  1048576000.
 Box volume =10515.985 fraction occupied=0.200
 Integrated density= 2.4808404550410390D+02 error= 1.3208404550410390D+02
 Molar volume = 2103.197 bohr**3/mol (187.687 cm**3/mol)
 Recommended a0 for SCRF calculation =  5.13 angstrom (  9.69 bohr)
   1 Symmetry operations used in ECPInt.
 ECPInt:  NShTT=    9870 NPrTT=   39606 LenC2=    9402 LenP2D=   26840.
 LDataN:  DoStor=T MaxTD1= 5 Len=  102
 Calling FoFJK, ICntrl=      2127 FMM=F ISym2X=0 I1Cent= 0 IOpClX= 0 NMat=1 NMatS=1 NMatT=0.

 GradGradGradGradGradGradGradGradGradGradGradGradGradGradGradGradGradGrad
 FormGI is forming the generalized inverse of G from B-inverse, IUseBI=4.
 Internal  Forces:  Max     0.011708616 RMS     0.003912531
 Step number   1 out of a maximum of  230
 All quantities printed in internal units (Hartrees-Bohrs-Radians)
 Mixed Optimization -- RFO/linear search
 Second derivative matrix not updated -- first step.
 ITU=  0
     Eigenvalues ---    0.00230   0.00230   0.00230   0.00230   0.00230
     Eigenvalues ---    0.00332   0.00336   0.00341   0.00347   0.00355
     Eigenvalues ---    0.00358   0.00371   0.00400   0.01432   0.01584
     Eigenvalues ---    0.03585   0.03814   0.04448   0.04468   0.04577
     Eigenvalues ---    0.04667   0.04855   0.04896   0.04938   0.05020
     Eigenvalues ---    0.05024   0.05088   0.05421   0.05454   0.05491
     Eigenvalues ---    0.05510   0.05516   0.05529   0.05586   0.05588
     Eigenvalues ---    0.05626   0.05637   0.05667   0.05670   0.05692
     Eigenvalues ---    0.05693   0.05797   0.05799   0.06604   0.07670
     Eigenvalues ---    0.12132   0.14225   0.14239   0.14592   0.14609
     Eigenvalues ---    0.16000   0.16000   0.16000   0.16000   0.16000
     Eigenvalues ---    0.16000   0.16000   0.16000   0.16000   0.16000
     Eigenvalues ---    0.16000   0.16000   0.16000   0.16000   0.16000
     Eigenvalues ---    0.16000   0.16000   0.16000   0.16000   0.16000
     Eigenvalues ---    0.16000   0.16000   0.16000   0.16000   0.16000
     Eigenvalues ---    0.16000   0.17550   0.17694   0.18382   0.20379
     Eigenvalues ---    0.27256   0.27483   0.29169   0.29196   0.29228
     Eigenvalues ---    0.29271   0.29327   0.29343   0.29434   0.29637
     Eigenvalues ---    0.33915   0.34070   0.34990   0.35022   0.35029
     Eigenvalues ---    0.35033   0.35038   0.35048   0.35050   0.35071
     Eigenvalues ---    0.35071   0.35074   0.35076   0.35077   0.35078
     Eigenvalues ---    0.35101   0.35104   0.35110   0.35117   0.35123
     Eigenvalues ---    0.35133   0.35170   0.35191   0.35202   0.35363
     Eigenvalues ---    0.35399   0.42514   0.44293   0.52741   0.54548
 Linear search not attempted -- first point.
 Maximum step size (   0.300) exceeded in Quadratic search.
    -- Step size scaled by   0.987
 Iteration  1 RMS(Cart)=  0.18958296 RMS(Int)=  0.00823360
 Iteration  2 RMS(Cart)=  0.08824353 RMS(Int)=  0.00143434
 Iteration  3 RMS(Cart)=  0.00346959 RMS(Int)=  0.00005801
 Iteration  4 RMS(Cart)=  0.00000246 RMS(Int)=  0.00005801
 Iteration  5 RMS(Cart)=  0.00000000 RMS(Int)=  0.00005801
 Variable       Old X    -DE/DX   Delta X   Delta X   Delta X     New X
                                 (Linear)    (Quad)   (Total)
    R1        2.89326   0.00090   0.00000   0.00291   0.00291   2.89618
    R2        2.05460   0.01135   0.00000   0.03088   0.03088   2.08548
    R3        2.05090   0.01171   0.00000   0.03166   0.03166   2.08256
    R4        2.05628   0.00989   0.00000   0.02699   0.02699   2.08327
    R5        2.66106   0.00303   0.00000   0.00657   0.00657   2.66763
    R6        2.93794   0.00309   0.00000   0.01075   0.01075   2.94868
    R7        2.07475   0.00457   0.00000   0.01285   0.01285   2.08760
    R8        1.83894   0.00141   0.00000   0.00255   0.00255   1.84149
    R9        2.89293   0.00444   0.00000   0.01437   0.01437   2.90729
   R10        2.89595   0.00388   0.00000   0.01261   0.01261   2.90856
   R11        2.89441   0.00473   0.00000   0.01535   0.01535   2.90976
   R12        2.05399   0.01134   0.00000   0.03081   0.03081   2.08480
   R13        2.05613   0.01101   0.00000   0.03003   0.03003   2.08616
   R14        2.05594   0.01157   0.00000   0.03156   0.03156   2.08750
   R15        2.05365   0.00979   0.00000   0.02661   0.02661   2.08026
   R16        2.05560   0.01151   0.00000   0.03136   0.03136   2.08696
   R17        2.05549   0.01146   0.00000   0.03124   0.03124   2.08673
   R18        2.05485   0.01114   0.00000   0.03033   0.03033   2.08518
   R19        2.05506   0.01065   0.00000   0.02901   0.02901   2.08407
   R20        2.05621   0.01096   0.00000   0.02989   0.02989   2.08610
   R21        3.60880  -0.00169   0.00000  -0.02692  -0.02693   3.58187
   R22        2.88693   0.00078   0.00000   0.00251   0.00251   2.88943
   R23        2.05597   0.01111   0.00000   0.03029   0.03029   2.08626
   R24        2.05032   0.01117   0.00000   0.03018   0.03018   2.08050
   R25        2.05638   0.00996   0.00000   0.02719   0.02719   2.08357
   R26        2.68274   0.00419   0.00000   0.00947   0.00947   2.69222
   R27        2.93283   0.00163   0.00000   0.00561   0.00561   2.93844
   R28        2.07213   0.00463   0.00000   0.01297   0.01297   2.08510
   R29        1.82236   0.00415   0.00000   0.00736   0.00736   1.82972
   R30        2.89107   0.00430   0.00000   0.01388   0.01388   2.90495
   R31        2.89652   0.00407   0.00000   0.01325   0.01325   2.90978
   R32        2.89531   0.00414   0.00000   0.01347   0.01347   2.90878
   R33        2.05559   0.01170   0.00000   0.03189   0.03189   2.08748
   R34        2.05348   0.01140   0.00000   0.03097   0.03097   2.08445
   R35        2.05555   0.01093   0.00000   0.02979   0.02979   2.08534
   R36        2.05552   0.01145   0.00000   0.03119   0.03119   2.08671
   R37        2.05475   0.01149   0.00000   0.03127   0.03127   2.08602
   R38        2.05496   0.01006   0.00000   0.02740   0.02740   2.08236
   R39        2.05549   0.01112   0.00000   0.03032   0.03032   2.08581
   R40        2.05691   0.01081   0.00000   0.02953   0.02953   2.08645
   R41        2.05512   0.01076   0.00000   0.02930   0.02930   2.08442
    A1        1.92813   0.00120   0.00000   0.00606   0.00604   1.93417
    A2        1.94310   0.00262   0.00000   0.01542   0.01538   1.95848
    A3        1.90040   0.00025   0.00000   0.00194   0.00192   1.90232
    A4        1.90717  -0.00218   0.00000  -0.01352  -0.01356   1.89361
    A5        1.89025  -0.00082   0.00000  -0.00546  -0.00546   1.88479
    A6        1.89371  -0.00118   0.00000  -0.00512  -0.00516   1.88855
    A7        1.91989  -0.00215   0.00000  -0.00156  -0.00189   1.91800
    A8        1.98742   0.00294   0.00000   0.01702   0.01689   2.00430
    A9        1.89386  -0.00047   0.00000  -0.01025  -0.01017   1.88369
   A10        1.95616   0.00106   0.00000   0.01409   0.01394   1.97010
   A11        1.82143   0.00078   0.00000   0.00169   0.00177   1.82320
   A12        1.87596  -0.00241   0.00000  -0.02396  -0.02385   1.85211
   A13        1.88746   0.00554   0.00000   0.03192   0.03192   1.91938
   A14        1.92218  -0.00087   0.00000  -0.00864  -0.00863   1.91355
   A15        1.88174   0.00034   0.00000   0.00372   0.00370   1.88544
   A16        1.95003   0.00055   0.00000   0.00530   0.00528   1.95531
   A17        1.89649   0.00015   0.00000  -0.00091  -0.00090   1.89559
   A18        1.90711   0.00009   0.00000  -0.00103  -0.00102   1.90609
   A19        1.90538  -0.00026   0.00000   0.00154   0.00152   1.90690
   A20        1.94476   0.00184   0.00000   0.01115   0.01111   1.95587
   A21        1.91636   0.00118   0.00000   0.00618   0.00615   1.92252
   A22        1.93294   0.00114   0.00000   0.00665   0.00661   1.93955
   A23        1.88395  -0.00156   0.00000  -0.00910  -0.00913   1.87481
   A24        1.89426  -0.00144   0.00000  -0.00717  -0.00722   1.88704
   A25        1.89005  -0.00134   0.00000  -0.00878  -0.00880   1.88125
   A26        1.92580   0.00126   0.00000   0.00799   0.00796   1.93377
   A27        1.92603   0.00151   0.00000   0.00793   0.00791   1.93394
   A28        1.92905   0.00032   0.00000   0.00185   0.00184   1.93088
   A29        1.88729  -0.00142   0.00000  -0.00820  -0.00823   1.87907
   A30        1.89930  -0.00061   0.00000  -0.00203  -0.00205   1.89725
   A31        1.89546  -0.00116   0.00000  -0.00812  -0.00812   1.88734
   A32        1.93799   0.00198   0.00000   0.01135   0.01130   1.94930
   A33        1.94454   0.00211   0.00000   0.01258   0.01252   1.95706
   A34        1.91427   0.00073   0.00000   0.00382   0.00379   1.91806
   A35        1.89614  -0.00212   0.00000  -0.01150  -0.01158   1.88456
   A36        1.88243  -0.00148   0.00000  -0.00932  -0.00933   1.87310
   A37        1.88668  -0.00144   0.00000  -0.00825  -0.00827   1.87840
   A38        1.94046   0.00125   0.00000   0.00720   0.00719   1.94765
   A39        1.93571   0.00173   0.00000   0.00937   0.00935   1.94506
   A40        1.90104  -0.00040   0.00000  -0.00174  -0.00174   1.89930
   A41        1.90221  -0.00175   0.00000  -0.01114  -0.01116   1.89105
   A42        1.88871  -0.00024   0.00000  -0.00026  -0.00026   1.88844
   A43        1.89457  -0.00066   0.00000  -0.00387  -0.00387   1.89070
   A44        1.92048  -0.00126   0.00000  -0.00034  -0.00054   1.91993
   A45        2.00479   0.00320   0.00000   0.02119   0.02116   2.02596
   A46        1.89487  -0.00096   0.00000  -0.01055  -0.01048   1.88439
   A47        1.93832  -0.00052   0.00000   0.00342   0.00325   1.94157
   A48        1.81876   0.00046   0.00000  -0.00582  -0.00584   1.81292
   A49        1.87614  -0.00120   0.00000  -0.01133  -0.01125   1.86489
   A50        1.88261  -0.00288   0.00000  -0.01560  -0.01557   1.86704
   A51        1.81541  -0.00055   0.00000  -0.00353  -0.00333   1.81208
   A52        1.88091   0.00362   0.00000   0.02752   0.02730   1.90821
   A53        1.92322  -0.00084   0.00000  -0.00870  -0.00870   1.91452
   A54        1.87949   0.00070   0.00000   0.00579   0.00579   1.88527
   A55        1.94659  -0.00012   0.00000  -0.00120  -0.00122   1.94537
   A56        1.90485  -0.00005   0.00000   0.00020   0.00021   1.90506
   A57        1.90904   0.00049   0.00000   0.00166   0.00165   1.91069
   A58        1.89992  -0.00017   0.00000   0.00245   0.00245   1.90237
   A59        1.93231   0.00133   0.00000   0.00739   0.00736   1.93967
   A60        1.94183   0.00199   0.00000   0.01208   0.01203   1.95386
   A61        1.91528   0.00090   0.00000   0.00484   0.00482   1.92010
   A62        1.89761  -0.00168   0.00000  -0.00902  -0.00907   1.88854
   A63        1.88934  -0.00130   0.00000  -0.00870  -0.00870   1.88064
   A64        1.88609  -0.00141   0.00000  -0.00761  -0.00765   1.87844
   A65        1.92801   0.00114   0.00000   0.00611   0.00609   1.93410
   A66        1.92966   0.00076   0.00000   0.00390   0.00389   1.93354
   A67        1.92427   0.00126   0.00000   0.00822   0.00819   1.93246
   A68        1.89355  -0.00125   0.00000  -0.00902  -0.00902   1.88452
   A69        1.89003  -0.00110   0.00000  -0.00534  -0.00537   1.88466
   A70        1.89740  -0.00093   0.00000  -0.00448  -0.00450   1.89290
   A71        1.94626   0.00192   0.00000   0.01229   0.01222   1.95848
   A72        1.93862   0.00161   0.00000   0.00942   0.00937   1.94799
   A73        1.91161   0.00115   0.00000   0.00526   0.00524   1.91685
   A74        1.90333  -0.00157   0.00000  -0.00656  -0.00665   1.89668
   A75        1.88203  -0.00159   0.00000  -0.00941  -0.00944   1.87259
   A76        1.87994  -0.00174   0.00000  -0.01244  -0.01244   1.86749
   A77        3.39229   0.00214   0.00000   0.14264   0.14267   3.53496
   A78        3.07407   0.00267   0.00000   0.19432   0.19432   3.26839
    D1       -1.12501  -0.00071   0.00000  -0.00472  -0.00470  -1.12971
    D2        1.08745   0.00125   0.00000   0.02631   0.02632   1.11377
    D3       -3.10754  -0.00025   0.00000  -0.00034  -0.00035  -3.10789
    D4        3.03580  -0.00054   0.00000  -0.00219  -0.00217   3.03363
    D5       -1.03493   0.00142   0.00000   0.02885   0.02885  -1.00607
    D6        1.05327  -0.00008   0.00000   0.00219   0.00218   1.05545
    D7        0.94874  -0.00084   0.00000  -0.00659  -0.00659   0.94215
    D8       -3.12199   0.00112   0.00000   0.02444   0.02444  -3.09756
    D9       -1.03379  -0.00039   0.00000  -0.00221  -0.00224  -1.03603
   D10        1.09323   0.00024   0.00000  -0.02665  -0.02667   1.06656
   D11       -1.13665  -0.00278   0.00000  -0.05893  -0.05890  -1.19555
   D12        3.12178  -0.00088   0.00000  -0.03838  -0.03840   3.08338
   D13        1.14074  -0.00033   0.00000  -0.01876  -0.01886   1.12188
   D14       -3.07581  -0.00044   0.00000  -0.02252  -0.02263  -3.09845
   D15       -0.98214  -0.00021   0.00000  -0.01505  -0.01513  -0.99728
   D16       -2.94904   0.00002   0.00000   0.00479   0.00490  -2.94414
   D17       -0.88241  -0.00009   0.00000   0.00102   0.00113  -0.88128
   D18        1.21126   0.00015   0.00000   0.00850   0.00863   1.21989
   D19       -0.95756   0.00010   0.00000   0.00021   0.00019  -0.95736
   D20        1.10907  -0.00001   0.00000  -0.00355  -0.00358   1.10550
   D21       -3.08044   0.00023   0.00000   0.00392   0.00392  -3.07652
   D22       -1.56200   0.00188   0.00000   0.04565   0.04596  -1.51604
   D23        2.76471  -0.00073   0.00000   0.03774   0.03743   2.80215
   D24       -1.17583  -0.00007   0.00000   0.00236   0.00236  -1.17347
   D25        3.02102  -0.00006   0.00000   0.00258   0.00258   3.02360
   D26        0.93458   0.00013   0.00000   0.00535   0.00536   0.93994
   D27        3.04981  -0.00007   0.00000   0.00337   0.00336   3.05317
   D28        0.96348  -0.00006   0.00000   0.00359   0.00358   0.96706
   D29       -1.12297   0.00013   0.00000   0.00636   0.00636  -1.11661
   D30        0.97239   0.00010   0.00000   0.00264   0.00264   0.97503
   D31       -1.11395   0.00011   0.00000   0.00286   0.00286  -1.11108
   D32        3.08279   0.00030   0.00000   0.00563   0.00565   3.08844
   D33        1.02020   0.00057   0.00000   0.01608   0.01609   1.03628
   D34       -1.06449   0.00058   0.00000   0.01615   0.01614  -1.04835
   D35        3.12177   0.00084   0.00000   0.01995   0.01996  -3.14146
   D36        3.10323  -0.00019   0.00000   0.00738   0.00738   3.11061
   D37        1.01854  -0.00018   0.00000   0.00744   0.00743   1.02598
   D38       -1.07839   0.00008   0.00000   0.01125   0.01125  -1.06714
   D39       -1.10145  -0.00015   0.00000   0.00650   0.00651  -1.09495
   D40        3.09705  -0.00014   0.00000   0.00657   0.00656   3.10361
   D41        1.00012   0.00012   0.00000   0.01037   0.01037   1.01049
   D42        1.20754  -0.00048   0.00000  -0.01380  -0.01379   1.19376
   D43       -0.90859  -0.00060   0.00000  -0.01564  -0.01565  -0.92424
   D44       -2.99682  -0.00062   0.00000  -0.01583  -0.01583  -3.01265
   D45       -0.92402   0.00020   0.00000  -0.00568  -0.00567  -0.92969
   D46       -3.04015   0.00007   0.00000  -0.00752  -0.00753  -3.04768
   D47        1.15481   0.00006   0.00000  -0.00771  -0.00771   1.14709
   D48       -2.99592   0.00012   0.00000  -0.00489  -0.00487  -3.00079
   D49        1.17114  -0.00000   0.00000  -0.00672  -0.00674   1.16440
   D50       -0.91709  -0.00002   0.00000  -0.00692  -0.00692  -0.92401
   D51       -1.23226  -0.00046   0.00000  -0.00447  -0.00448  -1.23673
   D52        0.97027   0.00030   0.00000   0.01665   0.01669   0.98696
   D53        3.07070   0.00018   0.00000   0.00835   0.00833   3.07904
   D54        2.93143  -0.00027   0.00000  -0.00167  -0.00169   2.92974
   D55       -1.14923   0.00049   0.00000   0.01945   0.01948  -1.12975
   D56        0.95121   0.00037   0.00000   0.01115   0.01112   0.96233
   D57        0.84742  -0.00026   0.00000  -0.00151  -0.00152   0.84590
   D58        3.04995   0.00051   0.00000   0.01961   0.01964   3.06959
   D59       -1.13280   0.00038   0.00000   0.01130   0.01129  -1.12152
   D60       -0.96131   0.00146   0.00000   0.01015   0.01019  -0.95112
   D61        0.98902   0.00118   0.00000   0.01177   0.01165   1.00067
   D62        3.08231  -0.00138   0.00000  -0.02017  -0.02005   3.06225
   D63       -1.25054  -0.00166   0.00000  -0.01855  -0.01860  -1.26914
   D64        1.06727   0.00001   0.00000  -0.00534  -0.00525   1.06202
   D65        3.01761  -0.00027   0.00000  -0.00372  -0.00380   3.01381
   D66        0.93748  -0.00015   0.00000  -0.01218  -0.01223   0.92525
   D67        3.01345  -0.00027   0.00000  -0.01343  -0.01350   2.99995
   D68       -1.18626  -0.00011   0.00000  -0.00747  -0.00754  -1.19380
   D69        3.13078   0.00027   0.00000   0.00734   0.00740   3.13817
   D70       -1.07644   0.00015   0.00000   0.00609   0.00613  -1.07031
   D71        1.00704   0.00031   0.00000   0.01205   0.01209   1.01913
   D72       -1.17325  -0.00012   0.00000  -0.00412  -0.00410  -1.17735
   D73        0.90272  -0.00024   0.00000  -0.00537  -0.00537   0.89736
   D74        2.98620  -0.00008   0.00000   0.00059   0.00059   2.98679
   D75        0.87503   0.00039   0.00000   0.00753   0.00754   0.88257
   D76       -1.23723   0.00027   0.00000   0.00577   0.00577  -1.23146
   D77        2.95952   0.00018   0.00000   0.00446   0.00446   2.96398
   D78       -1.18539   0.00007   0.00000   0.00549   0.00550  -1.17989
   D79        2.98554  -0.00005   0.00000   0.00374   0.00373   2.98927
   D80        0.89910  -0.00014   0.00000   0.00242   0.00241   0.90152
   D81        3.02091   0.00002   0.00000   0.00141   0.00142   3.02233
   D82        0.90865  -0.00010   0.00000  -0.00035  -0.00035   0.90831
   D83       -1.17778  -0.00019   0.00000  -0.00166  -0.00166  -1.17945
   D84       -1.15055   0.00026   0.00000   0.01177   0.01177  -1.13878
   D85        3.03641   0.00059   0.00000   0.01655   0.01656   3.05297
   D86        0.93782   0.00043   0.00000   0.01428   0.01429   0.95211
   D87        0.93713  -0.00037   0.00000   0.00481   0.00480   0.94193
   D88       -1.15909  -0.00004   0.00000   0.00958   0.00959  -1.14950
   D89        3.02550  -0.00020   0.00000   0.00732   0.00732   3.03282
   D90        3.01968   0.00009   0.00000   0.00838   0.00837   3.02805
   D91        0.92346   0.00041   0.00000   0.01316   0.01316   0.93662
   D92       -1.17514   0.00026   0.00000   0.01089   0.01089  -1.16425
   D93        1.01472  -0.00028   0.00000  -0.00001   0.00001   1.01473
   D94       -1.11224  -0.00073   0.00000  -0.00682  -0.00684  -1.11907
   D95        3.09651  -0.00031   0.00000  -0.00059  -0.00058   3.09593
   D96       -1.11721   0.00052   0.00000   0.01064   0.01066  -1.10655
   D97        3.03902   0.00007   0.00000   0.00383   0.00382   3.04283
   D98        0.96458   0.00049   0.00000   0.01006   0.01007   0.97465
   D99        3.08604   0.00040   0.00000   0.00797   0.00798   3.09402
   D100       0.95908  -0.00005   0.00000   0.00116   0.00113   0.96022
   D101      -1.11536   0.00037   0.00000   0.00739   0.00739  -1.10797
         Item               Value     Threshold  Converged?
 Maximum Force            0.011709     0.000015     NO 
 RMS     Force            0.003913     0.000010     NO 
 Maximum Displacement     1.024639     0.000060     NO 
 RMS     Displacement     0.272787     0.000040     NO 
 GradGradGradGradGradGradGradGradGradGradGradGradGradGradGradGradGradGrad

                    Distance matrix (angstroms):
                    1          2          3          4          5
     1  C    0.000000
     2  C    1.532590   0.000000
     3  O    2.411209   1.411649   0.000000
     4  C    2.606273   1.560377   2.477953   0.000000
     5  C    3.112824   2.532841   3.792645   1.538474   0.000000
     6  C    3.915203   2.508037   2.845461   1.539146   2.499427
     7  C    3.091189   2.570641   3.109880   1.539781   2.509343
     8  H    1.103587   2.183811   2.727968   2.904807   3.578646
     9  H    1.102042   2.200079   3.376169   2.878184   2.799178
    10  H    1.102419   2.159631   2.616574   3.539418   4.071666
    11  H    2.147441   1.104710   1.998010   2.147613   2.671958
    12  H    2.602891   1.970301   0.974475   2.732818   4.153663
    13  H    2.856368   2.859940   4.208056   2.204337   1.103229
    14  H    4.147999   3.496864   4.622805   2.180789   1.103948
    15  H    3.404047   2.737147   4.004046   2.193704   1.104655
    16  H    4.178149   2.743533   2.501634   2.187222   3.470646
    17  H    4.209377   2.750930   3.143882   2.190021   2.738494
    18  H    4.769507   3.485670   3.883860   2.187710   2.755328
    19  H    2.854586   2.909759   3.630107   2.200945   2.720487
    20  H    3.346453   2.794615   2.806303   2.206051   3.488329
    21  H    4.138586   3.521582   4.046557   2.178655   2.795132
    22  C    4.072894   4.262621   3.262601   5.498040   6.715596
    23  C    3.816981   4.185041   3.382130   5.133297   6.359688
    24  O    3.781292   3.718155   2.815310   4.324879   5.705970
    25  C    5.184676   5.679430   4.905918   6.503868   7.707877
    26  C    5.753227   6.490191   5.812932   7.513415   8.587813
    27  C    5.380429   5.995179   5.474390   6.532507   7.624407
    28  C    6.340940   6.545475   5.532904   7.281900   8.630666
    29  H    5.055088   5.025976   3.835038   6.175054   7.493520
    30  H    4.375751   4.834689   4.031339   6.190246   7.261943
    31  H    3.432429   3.389983   2.356466   4.714669   5.908604
    32  H    3.066743   3.789936   3.356056   4.762163   5.801774
    33  H    4.575669   4.285318   3.160854   4.848763   6.315045
    34  H    5.219177   6.170938   5.707743   7.247302   8.167288
    35  H    6.124225   6.747652   5.939778   7.900102   9.017403
    36  H    6.709417   7.489018   6.835739   8.428269   9.487558
    37  H    4.948753   5.808684   5.529473   6.367373   7.282443
    38  H    6.468678   7.095901   6.546294   7.592549   8.676839
    39  H    5.245347   5.655269   5.140810   5.963283   7.108300
    40  H    6.560617   6.656349   5.512862   7.530804   8.914144
    41  H    6.390554   6.402199   5.362238   6.932868   8.340761
    42  H    7.277500   7.578477   6.613102   8.283802   9.601265
                    6          7          8          9         10
     6  C    0.000000
     7  C    2.510612   0.000000
     8  H    4.268581   2.801185   0.000000
     9  H    4.289523   3.435441   1.789983   0.000000
    10  H    4.667585   4.103569   1.784587   1.785771   0.000000
    11  H    2.714035   3.487574   3.076630   2.515821   2.460479
    12  H    3.219289   2.842232   2.502217   3.636481   2.893804
    13  H    3.481031   2.745988   3.213875   2.244784   3.843336
    14  H    2.700591   2.780993   4.473370   3.829490   5.144882
    15  H    2.786549   3.483956   4.135495   3.016237   4.162053
    16  H    1.100827   2.782905   4.404289   4.789204   4.802042
    17  H    1.104373   3.482524   4.798997   4.496479   4.812629
    18  H    1.104252   2.742039   5.014320   5.017635   5.622475
    19  H    3.484327   1.103428   2.345735   3.011162   3.903266
    20  H    2.836750   1.102842   2.881431   3.973906   4.193268
    21  H    2.691164   1.103917   3.865899   4.347856   5.175509
    22  C    6.050447   5.561467   3.886898   5.113392   3.523097
    23  C    5.874095   4.793042   3.232037   4.825574   3.595212
    24  O    4.874453   3.823208   3.172128   4.812013   3.911298
    25  C    7.258455   5.923684   4.440267   6.107851   4.966539
    26  C    8.374926   7.080290   5.113455   6.582671   5.292848
    27  C    7.426098   5.643182   4.418078   6.157452   5.415626
    28  C    7.769564   6.680660   5.657603   7.340980   6.146383
    29  H    6.507238   6.215733   4.872111   6.122669   4.549251
    30  H    6.866257   6.322221   4.252955   5.307168   3.610323
    31  H    5.188827   5.033393   3.503900   4.482937   2.888747
    32  H    5.754107   4.431830   2.385754   3.970603   2.870304
    33  H    5.124041   4.409054   4.074265   5.635321   4.649966
    34  H    8.259637   6.886351   4.612937   5.930175   4.704666
    35  H    8.644674   7.637660   5.646921   7.003265   5.518854
    36  H    9.310460   7.864613   5.986700   7.490056   6.302266
    37  H    7.448282   5.506605   3.949913   5.584556   4.992953
    38  H    8.456698   6.629280   5.492981   7.215629   6.482414
    39  H    6.766443   4.924084   4.250110   6.030441   5.478078
    40  H    7.896205   7.131610   6.036550   7.606586   6.232979
    41  H    7.291365   6.221589   5.678652   7.399800   6.364958
    42  H    8.811671   7.589074   6.531088   8.235377   7.072871
                   11         12         13         14         15
    11  H    0.000000
    12  H    2.832160   0.000000
    13  H    3.123638   4.457591   0.000000
    14  H    3.660366   4.903270   1.779042   0.000000
    15  H    2.407298   4.582251   1.787567   1.784391   0.000000
    16  H    3.089092   2.740206   4.349574   3.732637   3.787026
    17  H    2.492632   3.776397   3.783883   3.020434   2.566606
    18  H    3.722125   4.122261   3.753034   2.491421   3.167148
    19  H    3.856134   3.300300   2.492336   3.080011   3.742397
    20  H    3.811532   2.251369   3.754077   3.816415   4.357923
    21  H    4.308881   3.798448   3.139778   2.612335   3.814983
    22  C    4.789576   2.929267   6.769158   7.619216   6.975197
    23  C    4.999049   2.683091   6.295814   7.170057   6.847727
    24  O    4.647636   1.895446   5.808319   6.373307   6.297067
    25  C    6.533726   4.133279   7.556050   8.458212   8.280663
    26  C    7.220917   5.195031   8.325795   9.434808   9.061993
    27  C    6.978523   4.602570   7.350996   8.258063   8.356271
    28  C    7.373630   4.740753   8.629000   9.308849   9.201233
    29  H    5.512402   3.486618   7.652056   8.342867   7.743393
    30  H    5.251927   3.818587   7.201711   8.233526   7.449195
    31  H    3.789711   2.298911   6.061809   6.835216   6.064171
    32  H    4.625789   2.751569   5.577917   6.658132   6.304320
    33  H    5.126512   2.325356   6.541901   6.930526   6.861095
    34  H    6.860202   5.178260   7.795711   9.059108   8.607146
    35  H    7.359718   5.431447   8.836271   9.910115   9.386986
    36  H    8.262436   6.160618   9.176750  10.293800  10.019635
    37  H    6.775216   4.737100   6.863656   7.950989   8.010378
    38  H    8.081106   5.661082   8.380879   9.272030   9.435387
    39  H    6.701126   4.200687   6.917539   7.634342   7.916549
    40  H    7.362295   4.849264   8.991564   9.643424   9.373590
    41  H    7.283648   4.502364   8.423889   8.915473   8.974387
    42  H    8.426274   5.804571   9.540461  10.260721  10.208578
                   16         17         18         19         20
    16  H    0.000000
    17  H    1.780221   0.000000
    18  H    1.791879   1.788362   0.000000
    19  H    3.827823   4.349124   3.728216   0.000000
    20  H    2.661848   3.852008   3.184108   1.784653   0.000000
    21  H    3.050507   3.713965   2.455265   1.778055   1.781047
    22  C    5.491722   6.381355   7.018382   5.663960   4.890264
    23  C    5.361433   6.441392   6.706075   4.746314   4.047647
    24  O    4.259032   5.578788   5.600452   4.009674   2.904387
    25  C    6.700316   7.906089   8.004371   5.762315   5.108882
    26  C    7.889649   8.914345   9.198991   6.798279   6.384140
    27  C    6.976252   8.216118   8.018479   5.301276   4.889292
    28  C    7.030742   8.428283   8.470141   6.715144   5.715236
    29  H    5.796796   6.827528   7.448869   6.443626   5.427975
    30  H    6.406220   7.118442   7.866983   6.291075   5.754004
    31  H    4.685733   5.407368   6.212465   5.247758   4.479259
    32  H    5.441778   6.312278   6.579574   4.172132   3.895185
    33  H    4.334783   5.796728   5.828142   4.761822   3.402940
    34  H    7.910080   8.756488   9.102295   6.478375   6.340065
    35  H    8.099884   9.082893   9.536399   7.462169   6.920287
    36  H    8.814291   9.905591  10.083008   7.523816   7.147511
    37  H    7.152169   8.210274   8.047339   4.971362   4.937993
    38  H    7.972824   9.272796   9.005854   6.268608   5.855477
    39  H    6.295439   7.641018   7.256778   4.674985   4.103056
    40  H    7.099271   8.439983   8.672785   7.265810   6.170990
    41  H    6.495085   8.026437   7.893091   6.366550   5.184198
    42  H    8.080695   9.500974   9.475275   7.547994   6.629171
                   21         22         23         24         25
    21  H    0.000000
    22  C    6.575326   0.000000
    23  C    5.764249   1.529022   0.000000
    24  O    4.681340   2.420314   1.424659   0.000000
    25  C    6.801987   2.616519   1.554955   2.460264   0.000000
    26  C    8.031551   3.020773   2.528251   3.795460   1.537235
[...]
 000124,0.00000342,-0.00000269,-0.00002407,0.00003998,0.00003502,-0.000
 04984,0.00000413,0.00001037,0.00000881,0.00000368,-0.00000316,-0.00002
 019,0.00000257,-0.00000071,0.00003184,-0.00021338,0.00004113,-0.000037
 84,0.00000031,0.00000341,0.00000463,0.00000186,0.00000172,0.00000380,0
 .00000185,-0.00000088,0.00000183,-0.00000380,-0.00000174,0.00000753,0.
 00000061,-0.00000140,-0.00000003,0.00000208,0.00000288,0.00000290,-0.0
 0000733,0.00000255,-0.00000817,-0.00000916,-0.00000622,0.00002334,0.00
 001027,0.00000285,0.00000696,0.00140937,-0.00030318,0.00008831,-0.0022
 5415,-0.00236488,-0.00254740,0.00014822,-0.00040503,-0.00009709,0.0177
 5706,-0.00913189,-0.00679008,0.00036503,0.00122265,0.00023028,0.064111
 84,-0.03579382,-0.07076225,0.00131124,-0.00030913,0.00047683,-0.000022
 33,0.00006735,-0.00002292,-0.00006150,-0.00001305,0.00003507,-0.000087
 60,-0.00036803,-0.00028648,0.00009394,-0.00013165,0.00022260,0.0000210
 1,-0.00007194,0.00011085,-0.00011331,0.00006170,0.00001279,-0.00007487
 ,0.00018326,-0.00007730,-0.00027721,0.00001181,0.00050987,-0.02174307,
 0.01176542,0.00980356,-0.06947841,0.04309496,0.07322877,-0.00003590,0.
 00008035,0.00003302,-0.00002796,-0.00001338,0.00000509,0.00006307,-0.0
 0002367,-0.00001566,-0.00000436,0.00002509,-0.00002531,0.00000226,-0.0
 0000512,-0.00000417,0.00001125,-0.00001229,0.00001336,0.00001900,0.000
 02274,0.00006148,-0.00001612,-0.00000927,-0.00005967,0.00002532,-0.000
 01701,0.00000485,0.00000847,-0.00001974,-0.00000895,0.00001441,-0.0000
 1052,-0.00001155,-0.00005997,0.00005726,0.00004147,-0.00000608,-0.0000
 0217,-0.00000574,0.00000647,0.00000566,-0.00000295,0.00000418,-0.00000
 582,0.00000384,-0.00000618,-0.00000155,0.00000428,0.00000688,-0.000007
 85,-0.00000588,0.00000474,0.00000668,-0.00000158,-0.00003237,-0.000034
 82,-0.00007818,-0.00001805,-0.00000034,0.00003821,0.00003765,0.0000005
 5,-0.00001413,0.00001734,-0.00005412,0.00004557,-0.00040097,0.00013463
 ,0.00007888,-0.00111087,0.00199085,0.00161618,-0.00443487,-0.00391013,
 0.00298525,-0.00021164,-0.00091303,-0.00149004,-0.15350910,-0.11178473
 ,0.07216200,-0.00009086,-0.00013976,0.00072211,-0.00002164,-0.00000817
 ,-0.00002997,-0.00004026,-0.00001610,-0.00000699,0.00003410,0.00000494
 ,-0.00002855,-0.00003007,-0.00005167,-0.00011776,0.00005135,-0.0001299
 4,0.00008141,0.00003584,-0.00017875,0.00015644,0.00015525,-0.00055097,
 0.00029130,0.00039895,0.00013065,-0.00022305,0.01111520,0.01135073,-0.
 00673460,-0.01297046,-0.01775741,0.00979648,0.16090032,0.00003913,-0.0
 0015156,-0.00005339,0.00008951,0.00005741,0.00005968,-0.00025151,0.000
 13504,-0.00003678,0.00001771,-0.00002317,0.00000366,-0.00000546,0.0000
 0281,0.00000743,-0.00000725,0.00000636,-0.00001019,-0.00000065,-0.0000
 4450,-0.00002539,0.00005389,0.00001335,0.00009005,-0.00003773,0.000033
 89,-0.00001437,-0.00001373,0.00003593,0.00001270,-0.00004381,0.0000150
 4,0.00000553,0.00040088,-0.00022617,-0.00001059,0.00000908,0.00000299,
 0.00000644,-0.00001065,-0.00000886,0.00000296,-0.00000568,0.00000914,-
 0.00000536,0.00001128,-0.00000016,-0.00001043,-0.00000955,0.00001091,0
 .00000208,-0.00000762,-0.00000961,0.00000288,0.00005598,0.00004625,0.0
 0005738,0.00002653,0.00001183,-0.00005603,-0.00005081,-0.00000474,0.00
 001167,0.00018583,0.00018793,0.00000875,-0.00210487,-0.00140701,0.0015
 4700,0.00042581,0.00215913,0.00004362,-0.01348941,-0.01535555,0.011529
 87,-0.00064463,-0.00315551,-0.00457988,-0.10959731,-0.16619109,0.07765
 065,0.00075199,0.00060729,0.00104977,-0.00004105,0.00001290,0.00003873
 ,0.00000906,0.00022022,0.00005719,0.00003121,-0.00003446,-0.00003652,0
 .00010655,0.00004945,-0.00004723,0.00006549,0.00007126,-0.00024861,0.0
 0020480,0.00026695,-0.00006846,-0.00112307,-0.00102571,0.00060297,0.00
 002120,0.00025263,-0.00000874,-0.00684180,-0.00674103,0.00308695,0.009
 91923,0.01248777,-0.00773105,0.12170746,0.17709617,-0.00005864,0.00007
 638,-0.00002996,0.00010261,0.00000565,0.00013896,-0.00022507,0.0000391
 9,-0.00010208,-0.00000978,0.00000448,-0.00004199,-0.00001202,-0.000000
 67,0.00001656,0.00001009,-0.00001585,0.00001122,-0.00002824,0.00001910
 ,0.00010125,0.00000327,0.00003095,0.00002147,0.00000168,-0.00000693,-0
 .00001048,0.00001629,-0.00005068,-0.00000038,-0.00000367,-0.00000476,-
 0.00003337,0.00025674,-0.00008547,0.00005027,-0.00000124,0.00000189,-0
 .00001330,-0.00000404,-0.00000092,-0.00000305,0.00000360,-0.00000561,-
 0.00000409,0.00000200,0.00000049,-0.00000897,0.00000559,-0.00000385,-0
 .00000601,-0.00000346,-0.00000058,0.00000064,-0.00000306,0.00000367,-0
 .00001505,0.00001668,-0.00000612,-0.00004097,-0.00000242,-0.00000719,-
 0.00001573,-0.00013028,0.00009840,-0.00003488,0.00012708,0.00009038,0.
 00083654,0.00071984,-0.00066194,-0.00170009,-0.01387131,-0.01289034,0.
 00991125,-0.00068001,-0.00291559,-0.00262307,0.07312292,0.08047678,-0.
 10054156,-0.00033429,-0.00064054,0.00146444,-0.00000650,-0.00001255,0.
 00000482,0.00001652,0.00010585,0.00001618,0.00001514,0.00004856,0.0000
 2522,0.00013255,0.00007389,-0.00007834,0.00018139,-0.00034130,-0.00038
 752,0.00008785,-0.00026780,0.00007279,-0.00062318,-0.00102495,0.000731
 32,-0.00010934,0.00006043,-0.00020054,0.01659862,0.01468055,-0.0089412
 6,0.00315026,0.00507178,-0.00386445,-0.07859596,-0.08224712,0.10570194
 ,0.00001299,-0.00001733,0.00003890,-0.00009987,-0.00001559,-0.00011859
 ,0.00018676,0.00006138,0.00010200,0.00000917,-0.00000498,0.00001977,0.
 00000493,0.00000977,-0.00000848,-0.00000578,0.00000636,-0.00000618,0.0
 0000326,0.00000491,-0.00002093,0.00000111,-0.00000137,-0.00001244,0.00
 001174,0.00000476,0.00001013,-0.00000255,0.00001139,-0.00001825,0.0000
 0792,-0.00000060,0.00001288,-0.00009207,-0.00005561,-0.00002440,-0.000
 00141,-0.00000031,0.00000506,0.00000605,0.00000337,0.00000194,-0.00000
 187,-0.00000087,0.,-0.00000411,-0.00000355,0.00000845,-0.00000217,-0.0
 0000036,0.00000252,0.00000515,0.00000452,0.00000009,0.00000038,-0.0000
 0301,0.00001068,0.00000203,-0.00001091,0.00000433,0.00000582,0.0000057
 1,0.00000239,-0.00049128,0.00055774,-0.00055724,0.00046249,-0.00130998
 ,-0.00046093,-0.00026461,0.00055561,0.00034101,-0.00443870,-0.01273334
 ,-0.00956071,0.00014078,-0.00015717,0.00107823,-0.00147312,0.00225507,
 -0.00235189,-0.06468802,-0.04711399,-0.04270767,-0.00075856,0.00111302
 ,0.00064471,0.00003761,-0.00008090,0.00011342,0.00009121,-0.00009664,0
 .00029110,0.00018308,0.00013152,0.00010311,-0.00023732,-0.00049282,-0.
 00025039,-0.00013531,0.00003086,0.00008529,0.00042487,0.00010051,0.000
 10563,-0.00000519,0.00011413,0.00008469,0.00012961,-0.00067572,-0.0009
 6880,0.00023987,-0.00017052,-0.00012973,0.00017098,0.00027740,0.000216
 67,0.06527345,0.,-0.00000906,-0.00000464,0.00001371,0.00000221,-0.0000
 0475,-0.00004566,0.00002392,0.00002201,0.00000557,-0.00000636,0.000002
 83,-0.00000208,0.00000243,0.00000182,-0.00000438,0.00000030,-0.0000047
 7,-0.00000325,0.00000291,-0.00000318,0.00000242,0.00001314,0.00000611,
 -0.00000783,0.00000137,0.00000003,0.00000233,-0.00000947,0.00000213,-0
 .00000758,0.00000477,-0.00000035,0.00007658,-0.00004140,-0.00002259,0.
 00000103,0.00000093,0.00000384,-0.00000135,-0.00000262,0.00000045,-0.0
 0000135,0.00000284,-0.00000190,0.00000352,-0.00000008,-0.00000161,-0.0
 0000298,0.00000354,0.00000080,-0.00000162,-0.00000236,0.00000110,0.000
 00352,0.00000240,0.00001508,0.00000742,-0.00000307,-0.00001355,-0.0000
 0379,-0.00000190,-0.00000045,0.00056840,-0.00052280,-0.00046274,0.0001
 9892,0.00018903,-0.00082741,-0.00031579,0.00028980,0.00005968,0.001939
 89,0.01030665,0.00911963,0.00035079,0.00120664,0.00044370,0.00105319,-
 0.00046053,0.00161838,-0.04787348,-0.18392940,-0.12488364,0.00132913,-
 0.00091553,0.00027511,-0.00000006,-0.00008686,0.00007238,0.00003960,-0
 .00001067,0.00020776,-0.00027208,0.00005464,0.00007179,-0.00003342,-0.
 00028573,-0.00030562,0.00005213,0.00016803,-0.00014236,-0.00000165,-0.
 00007063,-0.00001212,-0.00006197,-0.00009274,0.00001070,0.00026398,0.0
 0060147,0.00042747,-0.00010351,0.00001230,0.00025719,0.00024149,0.0000
 6212,0.00009022,0.04941839,0.19480943,0.00000511,-0.00003848,0.0000288
 0,-0.00002894,0.00000438,-0.00007503,0.00006098,0.00005298,0.00006371,
 0.00000723,0.00000025,0.00001576,0.00000377,0.00000177,-0.00000523,-0.
 00000361,0.00000130,-0.00000366,0.00000563,-0.00000639,-0.00001871,0.0
 0001157,0.00002201,-0.00001246,-0.00000108,0.00000611,0.00000346,0.000
 00293,-0.00000331,-0.00000780,-0.00000835,0.00000359,0.00001205,0.0000
 1678,-0.00005926,-0.00003057,0.00000087,0.00000213,0.00000568,-0.00000
 017,-0.00000107,0.00000264,-0.00000099,0.00000230,-0.00000043,0.000001
 19,-0.00000146,0.00000258,-0.00000332,0.00000254,0.00000059,-0.0000003
 7,-0.00000057,0.00000165,0.00000245,0.00000595,0.00001097,0.00000247,0
 .00000096,-0.00000087,-0.00000501,0.00000060,0.00000308,0.00024026,-0.
 00004590,-0.00004484,0.00083472,-0.00086583,0.00000892,-0.00016036,0.0
 0015557,0.00022348,-0.00414284,-0.01876412,-0.01517754,-0.00030826,-0.
 00159429,0.00059186,-0.00264983,0.00366167,-0.00387794,-0.04280397,-0.
 12350630,-0.16510488,0.00033880,-0.00021297,0.00079286,-0.00006692,0.0
 0007350,-0.00004855,0.00011528,0.00002687,0.00029300,0.00012456,0.0000
 1554,0.00001505,-0.00004606,-0.00005725,-0.00005378,0.00007533,0.00018
 722,0.00038934,0.00039687,0.00099165,-0.00018501,-0.00005390,0.0000169
 1,-0.00001347,-0.00070861,-0.00123481,-0.00103051,0.00012237,0.0003063
 1,0.00031458,-0.00005735,-0.00004885,0.00015030,0.04901198,0.13495083,
 0.17666104,0.00001166,0.00001621,0.00002149,-0.00008696,-0.00002728,-0
 .00006055,0.00020110,-0.00003251,0.00002494,-0.00000325,-0.00000050,0.
 00000689,0.00000423,0.00000519,-0.00000686,0.00000120,0.00000566,0.000
 00225,0.00000040,0.00001056,-0.00000885,-0.00000918,-0.00002166,-0.000
 01431,0.00001513,-0.00000343,0.00000695,-0.00000267,0.00001660,-0.0000
 1052,0.00001801,-0.00000380,0.00000758,-0.00025567,0.00008673,-0.00002
 930,-0.00000257,-0.00000339,-0.00000115,0.00000759,0.00000512,-0.00000
 018,-0.00000123,-0.00000180,0.00000153,-0.00000532,-0.00000463,0.00000
 624,0.00000057,-0.00000234,-0.00000006,0.00000785,0.00000606,-0.000001
 67,-0.00000449,-0.00001241,-0.00000891,-0.00000098,-0.00001354,0.00001
 787,0.00001922,0.00000719,0.00000181,0.00000681,0.00003284,-0.00001540
 ,0.00028200,0.00029902,0.00071660,-0.00111579,0.00027803,0.00008863,0.
 01051966,0.01122578,-0.00699022,-0.00135931,0.00101755,-0.00196783,0.0
 0075972,0.00047019,0.00023196,-0.12728067,-0.10183355,0.06650029,0.000
 00200,-0.00004874,0.00005268,-0.00000617,-0.00004665,-0.00003622,0.000
 01441,-0.00000756,0.00003565,0.00023394,-0.00021935,-0.00007117,-0.001
 71675,0.00105482,-0.00004587,0.00058362,0.00051884,-0.00057296,-0.0001
 3930,0.00016547,0.00001375,0.00013004,0.00000673,-0.00032138,0.0000582
 5,0.00016180,0.00018106,-0.00011828,-0.00014178,0.00007768,0.00002542,
 -0.00020391,-0.00010817,-0.00373729,-0.00239371,0.00292353,0.13566522,
 -0.00000206,-0.00003225,-0.00004267,0.00010459,0.00003423,0.00015371,-
 0.00027319,0.00012958,-0.00010452,0.00000499,-0.00001847,-0.00002054,-
 0.00000695,0.00000418,0.00000884,0.00000557,0.00000454,0.00000170,0.00
 000870,-0.00000145,0.00003675,0.00000263,0.00000618,0.00003041,-0.0000
 1048,0.00000549,-0.00001413,-0.00000007,0.00001112,0.00000997,-0.00002
 567,0.00000672,-0.00002290,0.00039316,-0.00020904,0.00004448,0.0000032
 0,-0.00000235,-0.00000365,-0.00000424,-0.00000409,-0.00000124,-0.00000
 500,0.00000496,-0.00000408,0.00000541,-0.00000266,-0.00000966,-0.00000
 517,0.00000568,-0.00000276,-0.00000209,-0.00000463,-0.00000079,0.00000
 722,0.00000870,0.00000700,0.00000622,0.00000801,-0.00003163,-0.0000181
 7,-0.00000406,-0.00000561,0.00049144,0.00001971,-0.00003166,-0.0020152
 5,-0.00120426,0.00115531,-0.00039761,0.00170678,-0.00113157,-0.0069804
 0,-0.00910418,0.00403393,0.00241317,-0.00054424,0.00208806,-0.00000358
 ,0.00054489,-0.00113668,-0.10211459,-0.17831072,0.08411325,-0.00015748
 ,-0.00006020,0.00003925,-0.00008532,0.00025165,-0.00007523,0.00004669,
 -0.00005197,-0.00001665,0.00008374,0.00009496,-0.00011952,0.00205846,-
 0.00068074,-0.00040975,-0.00056194,-0.00025677,0.00076070,0.00022200,0
 .00040220,-0.00013618,-0.00015787,0.00007866,0.00006114,0.00019528,-0.
 00001542,-0.00008414,0.00013714,-0.00000325,0.00001385,0.00001199,0.00
 052628,0.00014409,-0.01099290,-0.01280768,0.01157130,0.10959241,0.1880
 1212,-0.00000853,0.00003632,0.00001544,-0.00001674,-0.00001070,-0.0000
 5227,0.00009819,-0.00009106,0.00002013,-0.00000881,0.00002251,0.000003
 36,0.00000316,-0.00000916,-0.00000219,0.00000255,-0.00000983,0.0000060
 9,-0.00000242,-0.00000814,-0.00000029,0.00000465,0.00000020,-0.0000129
 6,0.00000290,-0.00000550,0.00000449,0.00000432,-0.00002125,-0.00000122
 ,0.00001239,-0.00000688,0.00000763,-0.00018302,0.00012100,0.00000150,-
 0.00000155,0.00000315,-0.00000233,-0.00000105,0.00000164,0.00000074,0.
 00000585,-0.00000486,0.00000303,-0.00000296,0.00000248,0.00000260,0.00
 000582,-0.00000547,-0.00000171,-0.00000152,0.00000165,0.00000130,-0.00
 000600,-0.00000115,-0.00002399,-0.00000862,0.00000590,0.00002475,0.000
 00697,-0.00000065,0.00000202,-0.00013288,0.00000202,0.00000980,0.00166
 709,0.00056434,-0.00035481,0.00048154,-0.00175697,0.00103426,0.0155691
 8,0.01594313,-0.01062316,-0.00416210,0.00167660,-0.00394592,0.00117758
 ,0.00089484,0.00078524,0.06577253,0.08243094,-0.10422631,-0.00006431,0
 .00005417,-0.00001945,-0.00004954,-0.00008375,-0.00010149,0.00000192,0
 .00005458,0.00006111,0.00006154,-0.00002967,-0.00000030,-0.00045369,0.
 00038120,0.00082508,0.00088704,0.00136718,-0.00072861,0.00001234,0.000
 05909,0.00021005,-0.00017183,-0.00027112,0.00024072,-0.00010115,-0.000
 19179,0.00033963,0.00003948,-0.00000272,-0.00007516,-0.00068730,-0.000
 54638,-0.00049464,-0.01275564,-0.01415217,0.01203563,-0.07125884,-0.09
 379143,0.10972881,-0.00002389,-0.00001050,-0.00005279,0.00013401,0.000
 03330,0.00009119,-0.00026226,0.00002363,-0.00004140,0.00000206,0.00000
 155,-0.00001170,-0.00000720,-0.00000716,0.00001158,0.00000065,-0.00000
 959,0.00000074,-0.00000379,-0.00000937,0.00002625,0.00001035,0.0000464
 0,0.00002577,-0.00003628,0.00000207,-0.00000876,0.00001183,-0.00004361
 ,0.00002327,-0.00002649,0.00000646,-0.00001120,0.00028395,-0.00006526,
 -0.00002036,0.00000426,0.00000409,-0.00000058,-0.00001056,-0.00000744,
 0.00000060,0.00000104,0.00000374,-0.00000297,0.00000897,0.00000283,-0.
 00001151,-0.00000145,0.00000446,-0.00000233,-0.00000921,-0.00000805,0.
 00000323,0.00000749,0.00001623,0.00000681,0.00001186,0.00001174,-0.000
 02738,-0.00002094,-0.00000981,-0.00000172,0.00016029,-0.00028519,-0.00
 026278,-0.00018567,0.00016205,-0.00343157,-0.00007598,0.00045052,-0.00
 022419,-0.01383532,0.00660010,0.00559947,0.00080920,-0.00088113,0.0008
 3085,0.00011436,0.00025024,0.00109656,-0.23879515,0.09878945,0.0719099
 9,0.00004515,-0.00005564,0.00016911,0.00000097,0.00007153,-0.00000247,
 0.00004522,0.00003452,0.00015384,-0.00084876,0.00046846,0.00017300,0.0
 0058964,-0.00025348,-0.00027105,0.00012087,-0.00024892,-0.00010099,-0.
 00001410,0.00002617,-0.00013233,0.00053320,0.00030792,-0.00028677,0.00
 041213,-0.00018295,-0.00001784,0.00014922,-0.00046915,-0.00080598,-0.0
 0008071,0.00008048,0.00002330,0.00902795,-0.00443449,-0.00325476,-0.01
 272218,0.00802603,0.00426148,0.25447523,0.00001700,-0.00000503,0.00002
 125,-0.00005702,-0.00000779,-0.00001266,0.00008482,0.00005576,0.000003
 95,0.00000156,-0.00000942,0.00000019,0.00000147,0.00000908,-0.00000406
 ,0.00000127,0.00000803,-0.00000015,0.00000610,0.00000652,0.00000461,-0
 .00000766,-0.00002909,-0.00000331,0.00002194,0.00000369,0.00000132,-0.
 00000729,0.00003260,-0.00001713,0.00000819,-0.00000304,-0.00000264,-0.
 00003788,-0.00005696,0.00001582,-0.00000147,-0.00000270,-0.00000131,0.
 00000515,0.00000352,-0.00000024,-0.00000231,-0.00000182,-0.00000033,-0
 .00000368,-0.00000345,0.00000400,-0.00000069,-0.00000147,0.00000061,0.
 00000505,0.00000374,-0.00000210,-0.00000103,-0.00000482,-0.00000132,-0
 .00000006,-0.00000730,0.00000101,0.00000348,0.00000476,-0.00000151,0.0
 0020022,0.00033512,-0.00001746,-0.00022381,-0.00128833,0.00318117,-0.0
 0035539,0.00096990,-0.00059010,0.01085301,-0.00675221,-0.00438235,0.00
 056532,0.00010213,-0.00074562,-0.00104558,0.00032455,-0.00060990,0.098
 73115,-0.09824241,-0.03765432,-0.00008167,0.00006770,0.00026140,-0.000
 00322,-0.00003825,0.00003781,0.00002651,-0.00007453,0.00009769,0.00077
 708,-0.00026527,-0.00016097,0.00044877,-0.00040971,-0.00022563,-0.0003
 0247,0.00017552,-0.00008590,0.00007054,-0.00017078,-0.00008166,-0.0001
 9844,-0.00007576,0.00067871,-0.00016266,-0.00010888,0.00005224,-0.0000
 9311,0.00047551,-0.00008752,-0.00011272,-0.00000188,0.00006805,0.01927
 204,-0.00850198,-0.00562338,-0.01996026,0.01145177,0.00737774,-0.10844
 222,0.10203296,-0.00001814,0.00001584,-0.00002078,0.00000246,-0.000002
 99,-0.00004518,0.00003676,-0.00002191,0.00006241,0.00000072,0.00001155
 ,0.00000694,0.00000064,-0.00000428,0.00000045,-0.00000278,-0.00000690,
 -0.00000026,-0.00000652,-0.00000373,-0.00000492,0.00000637,0.00002605,
 0.00000513,-0.00002093,-0.00000271,0.00000631,0.00000905,-0.00003390,0
 .00001055,0.00000103,-0.00000164,0.00000479,-0.00001662,0.00003876,-0.
 00004685,-0.00000060,0.00000181,0.00000076,-0.00000013,0.00000087,0.00
 000018,0.00000265,-0.00000186,0.00000118,-0.00000096,0.00000103,0.0000
 0143,0.00000205,-0.00000210,0.00000019,-0.00000073,0.00000171,0.000001
 57,-0.00000240,0.00000078,-0.00000428,-0.00000153,0.00000155,0.0000071
 7,0.00000385,-0.00000019,0.00000142,-0.00001948,-0.00027760,-0.0005089
 4,-0.00150787,0.00198675,-0.00558936,0.00032334,-0.00044490,0.00041541
 ,-0.02307827,0.01186784,0.00765836,-0.00078020,-0.00014118,0.00124688,
 -0.00067775,0.00080192,0.00119357,0.07360642,-0.03850127,-0.07340057,0
 .00012296,0.00004426,0.00042996,0.00001207,-0.00000539,0.00007267,0.00
 005381,0.00001978,0.00021971,-0.00137512,0.00067120,0.00057849,-0.0004
 4257,0.00000660,0.00003822,0.00000509,-0.00031783,0.00015203,0.0001776
 9,-0.00004418,-0.00005199,0.00033653,0.00002949,-0.00032920,0.00026755
 ,0.00005994,0.00023259,0.00007272,-0.00029070,-0.00049363,0.00006411,-
 0.00009259,-0.00006335,0.01765733,-0.00681717,-0.00593575,0.01061104,-
 0.00707673,-0.00469661,-0.07542364,0.03850399,0.07884329\\0.00000011,-
 0.00000082,-0.00000039,-0.00000009,-0.00000004,-0.00000024,-0.00000038
 ,0.00000023,-0.00000058,-0.00000003,-0.00000052,-0.00000001,0.00000013
 ,-0.00000101,0.00000013,-0.00000001,-0.00000005,-0.00000008,0.00000020
 ,-0.00000008,0.00000077,-0.00000009,-0.00000073,0.,-0.00000012,-0.0000
 0124,-0.00000025,-0.00000029,-0.00000079,-0.00000067,-0.00000027,-0.00
 000058,-0.00000072,0.00000032,-0.00000007,-0.00000003,0.00000016,-0.00
 000124,0.00000040,0.00000022,-0.00000097,0.00000041,-0.00000003,-0.000
 00121,-0.00000019,-0.00000007,0.00000041,-0.00000014,-0.00000009,-0.00
 000021,-0.00000038,0.00000015,0.00000006,0.00000027,0.00000029,-0.0000
 0042,0.00000074,0.00000023,0.00000023,0.00000048,0.00000036,-0.0000001
 6,0.00000090,-0.00000024,0.00000087,-0.00000062,0.00000006,0.00000041,
 -0.00000043,-0.00000030,0.00000037,0.00000029,-0.00000003,0.00000028,0
 .00000005,-0.00000010,0.00000025,-0.00000029,0.00000019,-0.00000015,0.
 00000051,0.00000011,0.00000091,0.00000041,-0.00000022,0.00000112,-0.00
 000059,-0.00000042,0.00000057,-0.00000090,-0.00000032,0.00000057,-0.00
 000085,0.00000003,-0.00000003,-0.00000029,0.00000001,0.00000092,0.0000
 0033,-0.00000015,-0.00000023,-0.00000045,-0.00000024,0.00000048,-0.000
 00060,-0.00000008,0.00000014,-0.00000005,0.00000019,-0.00000053,0.0000
 0039,0.00000022,-0.00000007,0.00000075,0.00000033,0.00000004,0.0000007
 8,-0.00000006,0.00000124,0.00000002,0.00000020,0.00000109,0.00000060,0
 .00000011,0.00000096,0.00000055\\\@


 Mondays are the potholes in the road of life.
                                -- Tom Wilson
 File lengths (MBytes):  RWF=    322 Int=      0 D2E=      0 Chk=      7 Scr=      1
 Normal termination of Gaussian 16 at Sun Feb  5 17:32:01 2023.
real 7692.02
user 30417.88
sys 29.54
