 Entering Gaussian System, Link 0=g16
 Input=gaussian_test.inp
 Output=gaussian_test.log
 Initial command:
 /sw/restricted/lms/sw/Gaussian/g16_B01/g16/l1.exe "/scratch/user/peterchao1/peterchao1/8625373_1689034718000000452180760/Gau-138280.inp" -scrdir="/scratch/user/peterchao1/peterchao1/8625373_1689034718000000452180760/"
 Entering Link 1 = /sw/restricted/lms/sw/Gaussian/g16_B01/g16/l1.exe PID=    138284.
  
 Copyright (c) 1988-2017, Gaussian, Inc.  All Rights Reserved.
  
 This is part of the Gaussian(R) 16 program.  It is based on
 the Gaussian(R) 09 system (copyright 2009, Gaussian, Inc.),
 the Gaussian(R) 03 system (copyright 2003, Gaussian, Inc.),
 the Gaussian(R) 98 system (copyright 1998, Gaussian, Inc.),
 the Gaussian(R) 94 system (copyright 1995, Gaussian, Inc.),
 the Gaussian 92(TM) system (copyright 1992, Gaussian, Inc.),
 the Gaussian 90(TM) system (copyright 1990, Gaussian, Inc.),
 the Gaussian 88(TM) system (copyright 1988, Gaussian, Inc.),
 the Gaussian 86(TM) system (copyright 1986, Carnegie Mellon
 University), and the Gaussian 82(TM) system (copyright 1983,
 Carnegie Mellon University). Gaussian is a federally registered
 trademark of Gaussian, Inc.
  
 This software contains proprietary and confidential information,
 including trade secrets, belonging to Gaussian, Inc.
  
 This software is provided under written license and may be
 used, copied, transmitted, or stored only in accord with that
 written license.
  
 The following legend is applicable only to US Government
 contracts under FAR:
  
                    RESTRICTED RIGHTS LEGEND
  
 Use, reproduction and disclosure by the US Government is
 subject to restrictions as set forth in subparagraphs (a)
 and (c) of the Commercial Computer Software - Restricted
 Rights clause in FAR 52.227-19.
  
 Gaussian, Inc.
 340 Quinnipiac St., Bldg. 40, Wallingford CT 06492
  
  
 ---------------------------------------------------------------
 Warning -- This program may not be used in any manner that
 competes with the business of Gaussian, Inc. or will provide
 assistance to any competitor of Gaussian, Inc.  The licensee
 of this program is prohibited from giving any competitor of
 Gaussian, Inc. access to this program.  By using this program,
 the user acknowledges that Gaussian, Inc. is engaged in the
 business of creating and licensing software in the field of
 computational chemistry and represents and warrants to the
 licensee that it is not a competitor of Gaussian, Inc. and that
 it will not use this program in any manner prohibited above.
 ---------------------------------------------------------------
  

 Cite this work as:
 Gaussian 16, Revision B.01,
 M. J. Frisch, G. W. Trucks, H. B. Schlegel, G. E. Scuseria, 
 M. A. Robb, J. R. Cheeseman, G. Scalmani, V. Barone, 
 G. A. Petersson, H. Nakatsuji, X. Li, M. Caricato, A. V. Marenich, 
 J. Bloino, B. G. Janesko, R. Gomperts, B. Mennucci, H. P. Hratchian, 
 J. V. Ortiz, A. F. Izmaylov, J. L. Sonnenberg, D. Williams-Young, 
 F. Ding, F. Lipparini, F. Egidi, J. Goings, B. Peng, A. Petrone, 
 T. Henderson, D. Ranasinghe, V. G. Zakrzewski, J. Gao, N. Rega, 
 G. Zheng, W. Liang, M. Hada, M. Ehara, K. Toyota, R. Fukuda, 
 J. Hasegawa, M. Ishida, T. Nakajima, Y. Honda, O. Kitao, H. Nakai, 
 T. Vreven, K. Throssell, J. A. Montgomery, Jr., J. E. Peralta, 
 F. Ogliaro, M. J. Bearpark, J. J. Heyd, E. N. Brothers, K. N. Kudin, 
 V. N. Staroverov, T. A. Keith, R. Kobayashi, J. Normand, 
 K. Raghavachari, A. P. Rendell, J. C. Burant, S. S. Iyengar, 
 J. Tomasi, M. Cossi, J. M. Millam, M. Klene, C. Adamo, R. Cammi, 
 J. W. Ochterski, R. L. Martin, K. Morokuma, O. Farkas, 
 J. B. Foresman, and D. J. Fox, Gaussian, Inc., Wallingford CT, 2016.
 
 ******************************************
 Gaussian 16:  ES64L-G16RevB.01 20-Dec-2017
                10-Jul-2023 
 ******************************************
 %nprocshared=4
 Will use up to    4 processors via shared memory.
 %mem=8000mb
 %chk=30.chk
 %mem=8000mb
 ----------------------------------------------------------------------
 #T wB97XD/def2svpp opt=tight freq int(grid=ultrafine) scf=(verytight,q
 c)
 ----------------------------------------------------------------------
 -------
 comment
 -------
 Symbolic Z-matrix:
 Charge =  1 Multiplicity = 2
 O                    -1.81251  -0.99459   1.09112 
 C                    -0.49929  -1.30117   0.69677 
 C                     0.1186   -0.30447  -0.29634 
 C                     1.4895   -0.80286  -0.78178 
 O                     2.433    -0.88478   0.24508 
 C                    -0.80613  -0.02361  -1.50001 
 O                    -2.02224   0.54832  -1.15529 
 N                     0.34311   1.02127   0.40943 
 O                    -0.33749   1.27691   1.38014 
 O                     1.18672   1.7602   -0.04566 
 H                    -1.75717  -0.19057   1.63446 
 H                    -0.54694  -2.27681   0.18682 
 H                     0.17709  -1.41248   1.56365 
 H                     1.83811  -0.16474  -1.61333 
 H                     1.35208  -1.82236  -1.17847 
 H                     2.78949   0.00113   0.40542 
 H                    -0.92149  -0.99171  -2.03456 
 H                    -0.2973    0.67518  -2.18466 
 H                    -2.43151  -0.0224   -0.48027 
 

 GradGradGradGradGradGradGradGradGradGradGradGradGradGradGradGradGradGrad
 Initialization pass.
                           ----------------------------
                           !    Initial Parameters    !
                           ! (Angstroms and Degrees)  !
 --------------------------                            --------------------------
 ! Name  Definition              Value          Derivative Info.                !
 --------------------------------------------------------------------------------
 ! R1    R(1,2)                  1.405          estimate D2E/DX2                !
 ! R2    R(1,11)                 0.972          estimate D2E/DX2                !
 ! R3    R(2,3)                  1.5367         estimate D2E/DX2                !
 ! R4    R(2,12)                 1.1019         estimate D2E/DX2                !
 ! R5    R(2,13)                 1.1052         estimate D2E/DX2                !
 ! R6    R(3,4)                  1.5373         estimate D2E/DX2                !
 ! R7    R(3,6)                  1.5436         estimate D2E/DX2                !
 ! R8    R(3,8)                  1.5186         estimate D2E/DX2                !
 ! R9    R(4,5)                  1.3969         estimate D2E/DX2                !
 ! R10   R(4,14)                 1.1046         estimate D2E/DX2                !
 ! R11   R(4,15)                 1.1026         estimate D2E/DX2                !
 ! R12   R(5,16)                 0.9683         estimate D2E/DX2                !
 ! R13   R(6,7)                  1.3874         estimate D2E/DX2                !
 ! R14   R(6,17)                 1.1119         estimate D2E/DX2                !
 ! R15   R(6,18)                 1.1027         estimate D2E/DX2                !
 ! R16   R(7,19)                 0.9741         estimate D2E/DX2                !
 ! R17   R(8,9)                  1.2128         estimate D2E/DX2                !
 ! R18   R(8,10)                 1.2103         estimate D2E/DX2                !
 ! A1    A(2,1,11)             106.5101         estimate D2E/DX2                !
 ! A2    A(1,2,3)              114.5621         estimate D2E/DX2                !
 ! A3    A(1,2,12)             106.4198         estimate D2E/DX2                !
 ! A4    A(1,2,13)             111.9536         estimate D2E/DX2                !
 ! A5    A(3,2,12)             107.0124         estimate D2E/DX2                !
 ! A6    A(3,2,13)             109.0368         estimate D2E/DX2                !
 ! A7    A(12,2,13)            107.4753         estimate D2E/DX2                !
 ! A8    A(2,3,4)              110.6312         estimate D2E/DX2                !
 ! A9    A(2,3,6)              112.4001         estimate D2E/DX2                !
 ! A10   A(2,3,8)              108.9848         estimate D2E/DX2                !
 ! A11   A(4,3,6)              110.3021         estimate D2E/DX2                !
 ! A12   A(4,3,8)              107.3334         estimate D2E/DX2                !
 ! A13   A(6,3,8)              106.9851         estimate D2E/DX2                !
 ! A14   A(3,4,5)              112.9045         estimate D2E/DX2                !
 ! A15   A(3,4,14)             109.3811         estimate D2E/DX2                !
 ! A16   A(3,4,15)             107.5917         estimate D2E/DX2                !
 ! A17   A(5,4,14)             111.9684         estimate D2E/DX2                !
 ! A18   A(5,4,15)             107.1236         estimate D2E/DX2                !
 ! A19   A(14,4,15)            107.6167         estimate D2E/DX2                !
 ! A20   A(4,5,16)             108.465          estimate D2E/DX2                !
 ! A21   A(3,6,7)              113.9765         estimate D2E/DX2                !
 ! A22   A(3,6,17)             106.1773         estimate D2E/DX2                !
 ! A23   A(3,6,18)             108.8451         estimate D2E/DX2                !
 ! A24   A(7,6,17)             112.795          estimate D2E/DX2                !
 ! A25   A(7,6,18)             107.3081         estimate D2E/DX2                !
 ! A26   A(17,6,18)            107.5259         estimate D2E/DX2                !
 ! A27   A(6,7,19)             107.3936         estimate D2E/DX2                !
 ! A28   A(3,8,9)              118.2316         estimate D2E/DX2                !
 ! A29   A(3,8,10)             117.4709         estimate D2E/DX2                !
 ! A30   A(9,8,10)             124.2943         estimate D2E/DX2                !
 ! D1    D(11,1,2,3)           -68.734          estimate D2E/DX2                !
 ! D2    D(11,1,2,12)          173.2285         estimate D2E/DX2                !
 ! D3    D(11,1,2,13)           56.0783         estimate D2E/DX2                !
 ! D4    D(1,2,3,4)           -173.9116         estimate D2E/DX2                !
 ! D5    D(1,2,3,6)            -50.1192         estimate D2E/DX2                !
 ! D6    D(1,2,3,8)             68.3014         estimate D2E/DX2                !
 ! D7    D(12,2,3,4)           -56.2107         estimate D2E/DX2                !
 ! D8    D(12,2,3,6)            67.5818         estimate D2E/DX2                !
 ! D9    D(12,2,3,8)          -173.9977         estimate D2E/DX2                !
 ! D10   D(13,2,3,4)            59.7516         estimate D2E/DX2                !
 ! D11   D(13,2,3,6)          -176.456          estimate D2E/DX2                !
 ! D12   D(13,2,3,8)           -58.0355         estimate D2E/DX2                !
 ! D13   D(2,3,4,5)            -63.9443         estimate D2E/DX2                !
 ! D14   D(2,3,4,14)           170.6654         estimate D2E/DX2                !
 ! D15   D(2,3,4,15)            54.0432         estimate D2E/DX2                !
 ! D16   D(6,3,4,5)            171.0651         estimate D2E/DX2                !
 ! D17   D(6,3,4,14)            45.6747         estimate D2E/DX2                !
 ! D18   D(6,3,4,15)           -70.9475         estimate D2E/DX2                !
 ! D19   D(8,3,4,5)             54.8492         estimate D2E/DX2                !
 ! D20   D(8,3,4,14)           -70.5412         estimate D2E/DX2                !
 ! D21   D(8,3,4,15)           172.8366         estimate D2E/DX2                !
 ! D22   D(2,3,6,7)             61.6996         estimate D2E/DX2                !
 ! D23   D(2,3,6,17)           -63.087          estimate D2E/DX2                !
 ! D24   D(2,3,6,18)          -178.5752         estimate D2E/DX2                !
 ! D25   D(4,3,6,7)           -174.325          estimate D2E/DX2                !
 ! D26   D(4,3,6,17)            60.8883         estimate D2E/DX2                !
 ! D27   D(4,3,6,18)           -54.5999         estimate D2E/DX2                !
 ! D28   D(8,3,6,7)            -57.8918         estimate D2E/DX2                !
 ! D29   D(8,3,6,17)           177.3216         estimate D2E/DX2                !
 ! D30   D(8,3,6,18)            61.8334         estimate D2E/DX2                !
 ! D31   D(2,3,8,9)            -24.1696         estimate D2E/DX2                !
 ! D32   D(2,3,8,10)           156.4653         estimate D2E/DX2                !
 ! D33   D(4,3,8,9)           -144.0189         estimate D2E/DX2                !
 ! D34   D(4,3,8,10)            36.616          estimate D2E/DX2                !
 ! D35   D(6,3,8,9)             97.5966         estimate D2E/DX2                !
 ! D36   D(6,3,8,10)           -81.7685         estimate D2E/DX2                !
 ! D37   D(3,4,5,16)           -80.5241         estimate D2E/DX2                !
 ! D38   D(14,4,5,16)           43.4553         estimate D2E/DX2                !
 ! D39   D(15,4,5,16)          161.2148         estimate D2E/DX2                !
 ! D40   D(3,6,7,19)           -53.656          estimate D2E/DX2                !
 ! D41   D(17,6,7,19)           67.5194         estimate D2E/DX2                !
 ! D42   D(18,6,7,19)         -174.2447         estimate D2E/DX2                !
 --------------------------------------------------------------------------------
 Number of steps in this run=    100 maximum allowed number of steps=    114.
 GradGradGradGradGradGradGradGradGradGradGradGradGradGradGradGradGradGrad

                    Distance matrix (angstroms):
                    1          2          3          4          5
     1  O    0.000000
     2  C    1.405009   0.000000
     3  C    2.475981   1.536704   0.000000
     4  C    3.801020   2.527782   1.537338   0.000000
     5  O    4.330373   2.995942   2.446701   1.396901   0.000000
     6  C    2.944413   2.559723   1.543641   2.528443   3.778747
     7  O    2.733301   3.028224   2.459314   3.781205   4.885075
     8  N    3.029042   2.487150   1.518592   2.461834   2.833313
     9  O    2.723766   2.672007   2.349331   3.512432   3.692810
    10  O    4.228058   3.572920   2.338071   2.683800   2.938307
    11  H    0.971972   1.922228   2.694341   4.093160   4.468758
    12  H    2.015815   1.101907   2.136939   2.694030   3.289548
    13  H    2.087202   1.105150   2.165802   2.755922   2.665748
    14  H    4.618412   3.477280   2.170418   1.104632   2.079915
    15  H    3.981313   2.686211   2.145605   1.102561   2.018398
    16  H    4.758157   3.549215   2.778408   1.935406   0.968316
    17  H    3.250200   2.781045   2.139038   2.723606   4.057192
    18  H    3.976771   3.499912   2.167583   2.710226   3.973869
    19  H    1.948734   2.598875   2.572244   4.009283   4.993321
                    6          7          8          9         10
     6  C    0.000000
     7  O    1.387389   0.000000
     8  N    2.461405   2.875229   0.000000
     9  O    3.194716   3.130114   1.212781   0.000000
    10  O    3.044428   3.605182   1.210286   2.142355   0.000000
    11  H    3.279825   2.898089   2.716695   2.057584   3.910853
    12  H    2.826576   3.458203   3.423315   3.754566   4.399663
    13  H    3.504533   4.009297   2.698692   2.744317   3.697990
    14  H    2.650432   3.952287   2.780864   3.971451   2.566566
    15  H    2.827861   4.123920   3.409648   4.359653   3.761026
    16  H    4.069372   5.088026   2.650563   3.515071   2.422122
    17  H    1.111878   2.087209   3.409461   4.140994   3.996656
    18  H    1.102701   2.012736   2.694295   3.615448   2.820442
    19  H    1.918788   0.974111   3.095054   3.087753   4.056862
                   11         12         13         14         15
    11  H    0.000000
    12  H    2.812956   0.000000
    13  H    2.288984   1.779589   0.000000
    14  H    4.845086   3.659217   3.795931   0.000000
    15  H    4.499195   2.382606   3.011286   1.781307   0.000000
    16  H    4.713752   4.045807   3.188176   2.237849   2.810687
    17  H    3.847321   2.593519   3.785642   2.911485   2.567493
    18  H    4.179281   3.794797   4.316621   2.364712   3.157623
    19  H    2.225997   3.013136   3.593705   4.419704   4.247695
                   16         17         18         19
    16  H    0.000000
    17  H    4.550894   0.000000
    18  H    4.085477   1.786240   0.000000
    19  H    5.295647   2.373930   2.818943   0.000000
 Framework group  C1[X(C4H9NO5)]
 Deg. of freedom    51
                         Standard orientation:                         
 ---------------------------------------------------------------------
 Center     Atomic      Atomic             Coordinates (Angstroms)
 Number     Number       Type             X           Y           Z
 ---------------------------------------------------------------------
      1          8           0        1.812508   -0.994590   -1.091119
      2          6           0        0.499286   -1.301166   -0.696772
      3          6           0       -0.118596   -0.304470    0.296344
      4          6           0       -1.489500   -0.802856    0.781775
      5          8           0       -2.432995   -0.884782   -0.245083
      6          6           0        0.806132   -0.023605    1.500013
      7          8           0        2.022240    0.548322    1.155294
      8          7           0       -0.343112    1.021272   -0.409433
      9          8           0        0.337493    1.276907   -1.380136
     10          8           0       -1.186719    1.760197    0.045661
     11          1           0        1.757173   -0.190567   -1.634456
     12          1           0        0.546936   -2.276810   -0.186824
     13          1           0       -0.177088   -1.412480   -1.563654
     14          1           0       -1.838113   -0.164735    1.613329
     15          1           0       -1.352081   -1.822361    1.178468
     16          1           0       -2.789493    0.001129   -0.405416
     17          1           0        0.921493   -0.991707    2.034562
     18          1           0        0.297300    0.675178    2.184660
     19          1           0        2.431512   -0.022402    0.480266
 ---------------------------------------------------------------------
 Rotational constants (GHZ):           1.6942415           1.1656094           1.0889411
   158 basis functions,   286 primitive gaussians,   168 cartesian basis functions
    40 alpha electrons       39 beta electrons
       nuclear repulsion energy       627.3969104397 Hartrees.
 NAtoms=   19 NActive=   19 NUniq=   19 SFac= 1.00D+00 NAtFMM=   60 NAOKFM=F Big=F
 Nuclear repulsion after empirical dispersion term =      627.3840284894 Hartrees.
   1 Symmetry operations used in ECPInt.
 ECPInt:  NShTT=    3081 NPrTT=   12403 LenC2=    3044 LenP2D=    9522.
 LDataN:  DoStor=T MaxTD1= 4 Len=   56
 ExpMin= 1.22D-01 ExpMax= 2.27D+03 ExpMxC= 3.41D+02 IAcc=3 IRadAn=         5 AccDes= 0.00D+00
 Harris functional with IExCor= 4639 and IRadAn=       5 diagonalized for initial guess.
 HarFok:  IExCor= 4639 AccDes= 0.00D+00 IRadAn=         5 IDoV= 1 UseB2=F ITyADJ=14
 ICtDFT=  3500011 ScaDFX=  1.000000  1.000000  1.000000  1.000000
 FoFCou: FMM=F IPFlag=           0 FMFlag=      100000 FMFlg1=           0
         NFxFlg=           0 DoJE=T BraDBF=F KetDBF=T FulRan=T
         wScrn=  0.000000 ICntrl=       500 IOpCl=  0 I1Cent=   200000004 NGrid=           0
         NMat0=    1 NMatS0=      1 NMatT0=    0 NMatD0=    1 NMtDS0=    0 NMtDT0=    0
 Petite list used in FoFCou.
 Initial guess <Sx>= 0.0000 <Sy>= 0.0000 <Sz>= 0.5000 <S**2>= 0.7500 S= 0.5000
     Accept linear search using points  3 and  4.
     Accept linear search using points  1 and  2.
     Minimum is close to point  3 DX=  7.88D-02 DF= -1.72D-04 DXR=  8.97D-02 DFR=  8.17D-03 which will be used.
     Minimum is close to point  2 DX=  3.20D-02 DF= -1.89D-05 DXR=  6.02D-02 DFR=  3.64D-03 which will be used.
     Accept linear search using points  1 and  2.
     Accept linear search using points  1 and  2.
     Minimum is close to point  3 DX= -1.65D-02 DF= -2.59D-06 DXR=  4.30D-02 DFR=  1.86D-03 which will be used.
     Accept linear search using points  1 and  2.
     Accept linear search using points  3 and  4.
     Minimum is close to point  3 DX= -1.35D-02 DF= -7.87D-07 DXR=  3.49D-02 DFR=  1.22D-03 which will be used.
     Accept linear search using points  2 and  3.
     Accept linear search using points  1 and  2.
     Accept linear search using points  1 and  2.
     Accept linear search using points  1 and  2.
     Minimum is close to point  2 DX= -3.83D-02 DF= -2.19D-07 DXR=  3.98D-02 DFR=  1.59D-03 which will be used.
     Minimum is close to point  2 DX=  8.07D-02 DF= -6.65D-08 DXR=  7.47D-02 DFR=  5.61D-03 which will be used.
     Minimum is close to point  2 DX=  9.88D-03 DF= -1.08D-11 DXR=  9.79D-03 DFR=  9.58D-05 which will be used.
 SCF Done:  E(UwB97XD) =  -587.564757761     a.u. after   25 cycles
            Convg  =    0.1709D-07                   166 Fock formations.
              S**2 =  0.7555                  -V/T =  2.0071
 <Sx>= 0.0000 <Sy>= 0.0000 <Sz>= 0.5000 <S**2>= 0.7555 S= 0.5028
 <L.S>=  0.00000000000    
 Annihilation of the first spin contaminant:
 S**2 before annihilation     0.7555,   after     0.7500

 **********************************************************************

            Population analysis using the SCF Density.

 **********************************************************************

 Orbital symmetries:
 Alpha Orbitals:
       Occupied  (A) (A) (A) (A) (A) (A) (A) (A) (A) (A) (A) (A)
                 (A) (A) (A) (A) (A) (A) (A) (A) (A) (A) (A) (A)
                 (A) (A) (A) (A) (A) (A) (A) (A) (A) (A) (A) (A)
                 (A) (A) (A) (A)
       Virtual   (A) (A) (A) (A) (A) (A) (A) (A) (A) (A) (A) (A)
                 (A) (A) (A) (A) (A) (A) (A) (A) (A) (A) (A) (A)
                 (A) (A) (A) (A) (A) (A) (A) (A) (A) (A) (A) (A)
                 (A) (A) (A) (A) (A) (A) (A) (A) (A) (A) (A) (A)
                 (A) (A) (A) (A) (A) (A) (A) (A) (A) (A) (A) (A)
                 (A) (A) (A) (A) (A) (A) (A) (A) (A) (A) (A) (A)
                 (A) (A) (A) (A) (A) (A) (A) (A) (A) (A) (A) (A)
                 (A) (A) (A) (A) (A) (A) (A) (A) (A) (A) (A) (A)
                 (A) (A) (A) (A) (A) (A) (A) (A) (A) (A) (A) (A)
                 (A) (A) (A) (A) (A) (A) (A) (A) (A) (A)
 Beta  Orbitals:
       Occupied  (A) (A) (A) (A) (A) (A) (A) (A) (A) (A) (A) (A)
                 (A) (A) (A) (A) (A) (A) (A) (A) (A) (A) (A) (A)
                 (A) (A) (A) (A) (A) (A) (A) (A) (A) (A) (A) (A)
                 (A) (A) (A)
       Virtual   (A) (A) (A) (A) (A) (A) (A) (A) (A) (A) (A) (A)
                 (A) (A) (A) (A) (A) (A) (A) (A) (A) (A) (A) (A)
                 (A) (A) (A) (A) (A) (A) (A) (A) (A) (A) (A) (A)
                 (A) (A) (A) (A) (A) (A) (A) (A) (A) (A) (A) (A)
                 (A) (A) (A) (A) (A) (A) (A) (A) (A) (A) (A) (A)
                 (A) (A) (A) (A) (A) (A) (A) (A) (A) (A) (A) (A)
                 (A) (A) (A) (A) (A) (A) (A) (A) (A) (A) (A) (A)
                 (A) (A) (A) (A) (A) (A) (A) (A) (A) (A) (A) (A)
                 (A) (A) (A) (A) (A) (A) (A) (A) (A) (A) (A) (A)
                 (A) (A) (A) (A) (A) (A) (A) (A) (A) (A) (A)
 The electronic state is 2-A.
 Alpha  occ. eigenvalues --  -19.57855 -19.53314 -19.49506 -19.49005 -19.44223
 Alpha  occ. eigenvalues --  -14.88258 -10.60245 -10.60210 -10.57990 -10.54870
 Alpha  occ. eigenvalues --   -1.54010  -1.42964  -1.38503  -1.35975  -1.31010
 Alpha  occ. eigenvalues --   -1.17129  -1.03079  -1.01148  -0.98203  -0.91103
 Alpha  occ. eigenvalues --   -0.88069  -0.85724  -0.84231  -0.82192  -0.80793
 Alpha  occ. eigenvalues --   -0.79641  -0.78073  -0.77423  -0.76113  -0.73586
 Alpha  occ. eigenvalues --   -0.71931  -0.70068  -0.67406  -0.66801  -0.63127
 Alpha  occ. eigenvalues --   -0.60725  -0.59591  -0.58902  -0.58294  -0.55632
 Alpha virt. eigenvalues --   -0.19216  -0.06888  -0.04561  -0.03281  -0.02722
 Alpha virt. eigenvalues --   -0.00291   0.00835   0.01816   0.03329   0.04525
 Alpha virt. eigenvalues --    0.05634   0.06157   0.08447   0.10499   0.11323
 Alpha virt. eigenvalues --    0.11582   0.16712   0.20066   0.26385   0.29556
 Alpha virt. eigenvalues --    0.32141   0.35586   0.37790   0.38748   0.40251
 Alpha virt. eigenvalues --    0.41670   0.43111   0.44909   0.46107   0.47090
 Alpha virt. eigenvalues --    0.49069   0.51528   0.53289   0.54248   0.55302
 Alpha virt. eigenvalues --    0.56614   0.57941   0.59020   0.61683   0.62005
 Alpha virt. eigenvalues --    0.63433   0.65230   0.72788   0.78032   0.78760
 Alpha virt. eigenvalues --    0.80789   0.83142   0.84764   0.88096   0.89054
 Alpha virt. eigenvalues --    0.89597   0.92009   0.94504   0.96616   0.98757
 Alpha virt. eigenvalues --    1.00585   1.03316   1.05004   1.08889   1.12102
 Alpha virt. eigenvalues --    1.14219   1.19388   1.22888   1.26226   1.28916
 Alpha virt. eigenvalues --    1.35174   1.37115   1.44116   1.50844   1.51712
 Alpha virt. eigenvalues --    1.57511   1.58850   1.62639   1.65890   1.67159
 Alpha virt. eigenvalues --    1.73545   1.76328   1.79687   1.83256   1.88217
 Alpha virt. eigenvalues --    1.89930   1.94438   1.97524   1.99487   2.04706
 Alpha virt. eigenvalues --    2.08847   2.15459   2.24076   2.29279   2.34260
 Alpha virt. eigenvalues --    2.35977   2.38549   2.42007   2.46448   2.51702
 Alpha virt. eigenvalues --    2.52836   2.54646   2.55453   2.57039   2.65017
 Alpha virt. eigenvalues --    2.66323   2.67399   2.74500   2.75452   2.80227
 Alpha virt. eigenvalues --    2.81600   2.86334   2.88978   2.91871   2.96658
 Alpha virt. eigenvalues --    3.03934   3.18655   3.20077   3.22612   3.29375
 Alpha virt. eigenvalues --    3.32932   3.63446   3.67136
  Beta  occ. eigenvalues --  -19.56742 -19.52712 -19.49482 -19.48951 -19.44164
  Beta  occ. eigenvalues --  -14.88276 -10.60187 -10.59983 -10.57966 -10.54879
  Beta  occ. eigenvalues --   -1.53947  -1.40426  -1.37138  -1.35707  -1.30858
  Beta  occ. eigenvalues --   -1.16305  -1.02044  -1.00751  -0.97978  -0.89968
  Beta  occ. eigenvalues --   -0.87613  -0.85147  -0.83888  -0.81386  -0.79824
  Beta  occ. eigenvalues --   -0.79464  -0.77050  -0.76226  -0.73677  -0.72860
  Beta  occ. eigenvalues --   -0.70891  -0.68510  -0.66375  -0.61418  -0.60453
  Beta  occ. eigenvalues --   -0.59352  -0.58193  -0.57814  -0.55130
  Beta virt. eigenvalues --   -0.39945  -0.19058  -0.06473  -0.04351  -0.03088
  Beta virt. eigenvalues --   -0.02382  -0.00031   0.01100   0.02110   0.03565
  Beta virt. eigenvalues --    0.04638   0.06104   0.06348   0.08788   0.11143
  Beta virt. eigenvalues --    0.11932   0.11993   0.17018   0.20180   0.26555
  Beta virt. eigenvalues --    0.29826   0.32479   0.35782   0.38024   0.39187
  Beta virt. eigenvalues --    0.40533   0.41839   0.43531   0.45114   0.46520
  Beta virt. eigenvalues --    0.47320   0.49730   0.51988   0.53658   0.54534
  Beta virt. eigenvalues --    0.55547   0.57053   0.58178   0.59364   0.61764
  Beta virt. eigenvalues --    0.62314   0.63572   0.65484   0.73013   0.78225
  Beta virt. eigenvalues --    0.79070   0.81072   0.83308   0.85192   0.88406
  Beta virt. eigenvalues --    0.89802   0.89881   0.93081   0.95435   0.97218
  Beta virt. eigenvalues --    0.99070   1.00872   1.03755   1.05440   1.09301
  Beta virt. eigenvalues --    1.12297   1.14854   1.19648   1.23298   1.26449
  Beta virt. eigenvalues --    1.29342   1.35518   1.37631   1.44745   1.51187
  Beta virt. eigenvalues --    1.52024   1.58184   1.59099   1.62969   1.66322
  Beta virt. eigenvalues --    1.67303   1.74035   1.76664   1.80084   1.83493
  Beta virt. eigenvalues --    1.88631   1.90363   1.94640   1.97771   1.99629
  Beta virt. eigenvalues --    2.05057   2.09105   2.15880   2.24520   2.29438
  Beta virt. eigenvalues --    2.34716   2.36588   2.41217   2.43754   2.47477
  Beta virt. eigenvalues --    2.51900   2.52985   2.54849   2.55752   2.57834
  Beta virt. eigenvalues --    2.66065   2.67526   2.67926   2.74988   2.77498
  Beta virt. eigenvalues --    2.82610   2.83236   2.87573   2.89239   2.92103
  Beta virt. eigenvalues --    2.96742   3.04081   3.18713   3.21253   3.23365
  Beta virt. eigenvalues --    3.29517   3.33015   3.63488   3.67195
          Condensed to atoms (all electrons):
          Atomic-Atomic Spin Densities.
 Mulliken charges and spin densities:
               1          2
     1  O   -0.377979   0.242405
     2  C    0.053986   0.012007
     3  C   -0.352962   0.135135
     4  C    0.067602  -0.004323
     5  O   -0.446105   0.024751
     6  C    0.066814   0.022471
     7  O   -0.232620   0.455636
     8  N    0.264768  -0.007388
     9  O   -0.214485   0.010728
    10  O   -0.173129   0.023941
    11  H    0.386483  -0.007948
    12  H    0.189807  -0.001237
    13  H    0.237595   0.053844
    14  H    0.181221   0.008372
    15  H    0.168877   0.002924
    16  H    0.358926  -0.000138
    17  H    0.223064   0.040368
    18  H    0.215670   0.004365
    19  H    0.382465  -0.015915
 Sum of Mulliken charges =   1.00000   1.00000
 Mulliken charges and spin densities with hydrogens summed into heavy atoms:
               1          2
     1  O    0.008505   0.234457
     2  C    0.481388   0.064614
     3  C   -0.352962   0.135135
     4  C    0.417700   0.006973
     5  O   -0.087178   0.024613
     6  C    0.505548   0.067204
     7  O    0.149846   0.439722
     8  N    0.264768  -0.007388
     9  O   -0.214485   0.010728
    10  O   -0.173129   0.023941
 Electronic spatial extent (au):  <R**2>=           1273.7260
 Charge=              1.0000 electrons
 Dipole moment (field-independent basis, Debye):
    X=              2.3995    Y=             -3.0363    Z=              2.5776  Tot=              4.6498
                          Isotropic Fermi Contact Couplings
        Atom                 a.u.       MegaHertz       Gauss      10(-4) cm-1
     1  O(17)              0.09195     -55.74213     -19.89018     -18.59357
     2  C(13)             -0.01790     -20.12810      -7.18221      -6.71401
     3  C(13)              0.00104       1.17216       0.41825       0.39099
     4  C(13)             -0.00933     -10.49422      -3.74460      -3.50049
     5  O(17)              0.00697      -4.22410      -1.50726      -1.40901
     6  C(13)             -0.02326     -26.15096      -9.33131      -8.72302
     7  O(17)              0.16294     -98.77061     -35.24381     -32.94633
     8  N(14)             -0.00992      -3.20415      -1.14332      -1.06879
     9  O(17)              0.00012      -0.06980      -0.02491      -0.02328
    10  O(17)              0.00655      -3.97004      -1.41661      -1.32426
    11  H(1)              -0.00336     -15.02739      -5.36214      -5.01260
    12  H(1)              -0.00040      -1.78414      -0.63663      -0.59513
    13  H(1)               0.02672     119.45356      42.62400      39.84542
    14  H(1)               0.00365      16.33372       5.82828       5.44834
    15  H(1)               0.00186       8.29860       2.96115       2.76812
    16  H(1)               0.00016       0.71266       0.25429       0.23772
    17  H(1)               0.01929      86.20761      30.76102      28.75576
    18  H(1)               0.00198       8.84578       3.15639       2.95063
    19  H(1)              -0.00550     -24.58850      -8.77379      -8.20184
 --------------------------------------------------------
       Center         ----  Spin Dipole Couplings  ----
                      3XX-RR        3YY-RR        3ZZ-RR
 --------------------------------------------------------
     1   Atom       -0.417201     -0.114175      0.531376
     2   Atom       -0.025623     -0.021240      0.046864
     3   Atom       -0.082823     -0.073982      0.156805
     4   Atom       -0.000902      0.007346     -0.006444
     5   Atom        0.037341      0.011186     -0.048527
     6   Atom       -0.004487     -0.068836      0.073324
     7   Atom       -0.376062     -0.761561      1.137624
     8   Atom       -0.005470      0.009381     -0.003911
     9   Atom       -0.058162      0.095080     -0.036919
    10   Atom       -0.005308     -0.014084      0.019391
    11   Atom       -0.031974      0.026293      0.005682
    12   Atom       -0.004719      0.007183     -0.002464
    13   Atom        0.005793     -0.009235      0.003442
    14   Atom        0.004336     -0.004234     -0.000103
    15   Atom        0.001129      0.000321     -0.001450
    16   Atom        0.002976      0.001587     -0.004563
    17   Atom       -0.009774      0.016738     -0.006965
    18   Atom        0.002991     -0.002713     -0.000278
    19   Atom       -0.015646      0.006731      0.008914
 --------------------------------------------------------
                        XY            XZ            YZ
 --------------------------------------------------------
     1   Atom        0.181253      0.285466      0.627750
     2   Atom        0.012717      0.012968      0.046089
     3   Atom        0.054747      0.109008      0.127298
     4   Atom        0.004473      0.001290      0.006203
     5   Atom        0.075016      0.023166      0.020065
     6   Atom       -0.000480      0.073981     -0.024142
     7   Atom       -0.305673      1.053393     -0.615772
     8   Atom       -0.006075     -0.005840     -0.005411
     9   Atom       -0.050271     -0.018022     -0.048465
    10   Atom        0.037031      0.053012      0.051104
    11   Atom       -0.000474      0.003365     -0.025188
    12   Atom        0.002039     -0.000211     -0.002331
    13   Atom        0.001034      0.013151      0.000832
    14   Atom       -0.000063     -0.003565      0.000962
    15   Atom        0.003836     -0.001120     -0.002587
    16   Atom       -0.003105      0.001907     -0.001047
    17   Atom        0.003370     -0.002275     -0.009216
    18   Atom       -0.007200     -0.008450      0.006922
    19   Atom       -0.052629     -0.031596      0.055785
 --------------------------------------------------------


 ---------------------------------------------------------------------------------
              Anisotropic Spin Dipole Couplings in Principal Axis System
 ---------------------------------------------------------------------------------

       Atom             a.u.   MegaHertz   Gauss  10(-4) cm-1        Axes

              Baa    -0.5036    36.437    13.002    12.154  0.7123 -0.6698  0.2098
     1 O(17)  Bbb    -0.4918    35.589    12.699    11.871  0.6621  0.5421 -0.5173
              Bcc     0.9954   -72.026   -25.701   -24.025  0.2328  0.5074  0.8297
 
              Baa    -0.0462    -6.197    -2.211    -2.067 -0.2928  0.8724 -0.3913
     2 C(13)  Bbb    -0.0270    -3.620    -1.292    -1.207  0.9404  0.1887 -0.2829
              Bcc     0.0732     9.817     3.503     3.275  0.1730  0.4509  0.8757
 
              Baa    -0.1343   -18.026    -6.432    -6.013 -0.5454  0.8235 -0.1559
     3 C(13)  Bbb    -0.1226   -16.452    -5.870    -5.488  0.7671  0.4156 -0.4886
              Bcc     0.2569    34.478    12.303    11.501  0.3376  0.3861  0.8584
 
              Baa    -0.0088    -1.187    -0.424    -0.396  0.0585 -0.3712  0.9267
     4 C(13)  Bbb    -0.0026    -0.351    -0.125    -0.117  0.9344 -0.3064 -0.1817
              Bcc     0.0115     1.539     0.549     0.513  0.3513  0.8766  0.3289
 
              Baa    -0.0547     3.955     1.411     1.319 -0.0453 -0.2436  0.9688
     5 O(17)  Bbb    -0.0518     3.749     1.338     1.251 -0.6593  0.7359  0.1542
              Bcc     0.1065    -7.704    -2.749    -2.570  0.7505  0.6317  0.1940
 
              Baa    -0.0764   -10.256    -3.660    -3.421 -0.2943  0.9100  0.2921
     6 C(13)  Bbb    -0.0439    -5.891    -2.102    -1.965  0.8101  0.3997 -0.4290
              Bcc     0.1203    16.147     5.762     5.386  0.5071 -0.1104  0.8548
 
              Baa    -0.9446    68.352    24.390    22.800 -0.1515  0.9244  0.3500
     7 O(17)  Bbb    -0.9136    66.109    23.589    22.052  0.8848  0.2847 -0.3689
              Bcc     1.8582  -134.461   -47.979   -44.851  0.4407 -0.2538  0.8610
 
              Baa    -0.0135    -0.520    -0.185    -0.173  0.7078  0.3353  0.6217
     8 N(14)  Bbb     0.0012     0.046     0.017     0.015 -0.6613  0.0051  0.7501
              Bcc     0.0123     0.473     0.169     0.158 -0.2484  0.9421 -0.2253
 
              Baa    -0.0934     6.755     2.410     2.253  0.7679  0.3439  0.5405
     9 O(17)  Bbb    -0.0279     2.016     0.720     0.673 -0.5954  0.0720  0.8002
              Bcc     0.1212    -8.772    -3.130    -2.926 -0.2363  0.9363 -0.2600
 
              Baa    -0.0513     3.712     1.324     1.238  0.1540  0.7423 -0.6521
    10 O(17)  Bbb    -0.0459     3.322     1.185     1.108  0.8317 -0.4537 -0.3201
              Bcc     0.0972    -7.034    -2.510    -2.346  0.5335  0.4931  0.6872
 
              Baa    -0.0323   -17.258    -6.158    -5.757  0.9925 -0.0415 -0.1153
    11 H(1)   Bbb    -0.0109    -5.829    -2.080    -1.944  0.1188  0.5576  0.8216
              Bcc     0.0433    23.087     8.238     7.701 -0.0302  0.8291 -0.5583
 
              Baa    -0.0051    -2.707    -0.966    -0.903  0.9807 -0.1784 -0.0801
    12 H(1)   Bbb    -0.0030    -1.584    -0.565    -0.528  0.1159  0.2002  0.9729
              Bcc     0.0080     4.291     1.531     1.431  0.1575  0.9634 -0.2170
 
              Baa    -0.0093    -4.967    -1.772    -1.657 -0.1132  0.9922  0.0520
    13 H(1)   Bbb    -0.0086    -4.576    -1.633    -1.526 -0.6662 -0.1146  0.7369
              Bcc     0.0179     9.543     3.405     3.183  0.7371  0.0488  0.6740
 
              Baa    -0.0045    -2.416    -0.862    -0.806 -0.1127  0.9482 -0.2970
    14 H(1)   Bbb    -0.0018    -0.968    -0.345    -0.323  0.4785  0.3137  0.8201
              Bcc     0.0063     3.384     1.207     1.129  0.8708 -0.0497 -0.4891
 
              Baa    -0.0039    -2.100    -0.749    -0.700 -0.4197  0.7167  0.5569
    15 H(1)   Bbb    -0.0016    -0.858    -0.306    -0.286  0.6195 -0.2221  0.7529
              Bcc     0.0055     2.958     1.055     0.987  0.6633  0.6610 -0.3508
 
              Baa    -0.0050    -2.686    -0.958    -0.896 -0.2108  0.0554  0.9760
    16 H(1)   Bbb    -0.0009    -0.463    -0.165    -0.154  0.6004  0.7953  0.0845
              Bcc     0.0059     3.149     1.124     1.050  0.7715 -0.6037  0.2009
 
              Baa    -0.0113    -6.007    -2.143    -2.004  0.7273  0.1340  0.6731
    17 H(1)   Bbb    -0.0092    -4.884    -1.743    -1.629  0.6741 -0.3240 -0.6638
              Bcc     0.0204    10.891     3.886     3.633  0.1291  0.9365 -0.3260
 
              Baa    -0.0085    -4.549    -1.623    -1.517  0.0296  0.7804 -0.6245
    18 H(1)   Bbb    -0.0069    -3.687    -1.315    -1.230  0.7456  0.3989  0.5338
              Bcc     0.0154     8.236     2.939     2.747  0.6657 -0.4815 -0.5701
 
              Baa    -0.0615   -32.815   -11.709   -10.946  0.6287  0.7217 -0.2896
    19 H(1)   Bbb    -0.0343   -18.285    -6.524    -6.099  0.6154 -0.2341  0.7526
              Bcc     0.0958    51.100    18.234    17.045 -0.4754  0.6514  0.5913
 

 ---------------------------------------------------------------------------------

   1 Symmetry operations used in ECPInt.
 ECPInt:  NShTT=    3081 NPrTT=   12403 LenC2=    3044 LenP2D=    9522.
 LDataN:  DoStor=T MaxTD1= 5 Len=  102
 Calling FoFJK, ICntrl=      2127 FMM=F ISym2X=0 I1Cent= 0 IOpClX= 1 NMat=1 NMatS=1 NMatT=0.

 GradGradGradGradGradGradGradGradGradGradGradGradGradGradGradGradGradGrad
 FormGI is forming the generalized inverse of G from B-inverse, IUseBI=4.
 Internal  Forces:  Max     0.020380646 RMS     0.006255501
 Step number   1 out of a maximum of  100
 All quantities printed in internal units (Hartrees-Bohrs-Radians)
 Mixed Optimization -- RFO/linear search
 Second derivative matrix not updated -- first step.
 ITU=  0
     Eigenvalues ---    0.00230   0.00230   0.00231   0.00272   0.00280
     Eigenvalues ---    0.01626   0.01733   0.01859   0.04162   0.04568
     Eigenvalues ---    0.04711   0.04757   0.05366   0.05806   0.05980
     Eigenvalues ---    0.05998   0.06025   0.11677   0.11727   0.11815
     Eigenvalues ---    0.14033   0.14089   0.14137   0.14994   0.15220
     Eigenvalues ---    0.16000   0.16000   0.16000   0.22074   0.22087
     Eigenvalues ---    0.22100   0.25000   0.25000   0.28199   0.28756
     Eigenvalues ---    0.28813   0.30503   0.32402   0.33119   0.33175
     Eigenvalues ---    0.33385   0.33401   0.33472   0.44800   0.46138
     Eigenvalues ---    0.47776   0.52546   0.52976   0.53723   0.98655
     Eigenvalues ---    0.99820
 Linear search not attempted -- first point.
 Iteration  1 RMS(Cart)=  0.12715219 RMS(Int)=  0.00772562
 Iteration  2 RMS(Cart)=  0.00964952 RMS(Int)=  0.00091475
 Iteration  3 RMS(Cart)=  0.00004591 RMS(Int)=  0.00091422
 Iteration  4 RMS(Cart)=  0.00000008 RMS(Int)=  0.00091422
 Variable       Old X    -DE/DX   Delta X   Delta X   Delta X     New X
                                 (Linear)    (Quad)   (Total)
    R1        2.65508  -0.00846   0.00000  -0.01793  -0.01793   2.63715
    R2        1.83676   0.01242   0.00000   0.02244   0.02244   1.85920
    R3        2.90395  -0.00630   0.00000  -0.02021  -0.02021   2.88374
    R4        2.08230  -0.00068   0.00000  -0.00189  -0.00189   2.08041
    R5        2.08843   0.00437   0.00000   0.01231   0.01231   2.10074
    R6        2.90515   0.00228   0.00000   0.00734   0.00734   2.91248
    R7        2.91706   0.01173   0.00000   0.03834   0.03834   2.95540
    R8        2.86972   0.00503   0.00000   0.01531   0.01531   2.88503
    R9        2.63976  -0.00950   0.00000  -0.01958  -0.01958   2.62018
   R10        2.08745   0.00027   0.00000   0.00075   0.00075   2.08820
   R11        2.08354   0.00096   0.00000   0.00269   0.00269   2.08623
   R12        1.82985   0.00322   0.00000   0.00573   0.00573   1.83559
   R13        2.62179  -0.01183   0.00000  -0.02359  -0.02359   2.59820
   R14        2.10114   0.00050   0.00000   0.00143   0.00143   2.10257
   R15        2.08380  -0.00087   0.00000  -0.00242  -0.00242   2.08138
   R16        1.84080   0.02038   0.00000   0.03710   0.03710   1.87791
   R17        2.29182  -0.00039   0.00000  -0.00039  -0.00039   2.29143
   R18        2.28711  -0.01197   0.00000  -0.01171  -0.01171   2.27540
    A1        1.85895   0.00527   0.00000   0.02869   0.02869   1.88764
    A2        1.99949  -0.01577   0.00000  -0.07100  -0.07230   1.92719
    A3        1.85738   0.00577   0.00000   0.04432   0.04556   1.90294
    A4        1.95396   0.00446   0.00000  -0.00963  -0.01337   1.94059
    A5        1.86772   0.00686   0.00000   0.05039   0.05144   1.91916
    A6        1.90305  -0.00010   0.00000  -0.02547  -0.02789   1.87516
    A7        1.87580  -0.00003   0.00000   0.02254   0.02273   1.89853
    A8        1.93088   0.00649   0.00000   0.04875   0.04916   1.98004
    A9        1.96175  -0.01081   0.00000  -0.09168  -0.09211   1.86964
   A10        1.90214  -0.00017   0.00000  -0.01099  -0.01364   1.88850
   A11        1.92513   0.00304   0.00000   0.02615   0.02709   1.95222
   A12        1.87332  -0.00059   0.00000   0.03209   0.03172   1.90504
   A13        1.86724   0.00227   0.00000  -0.00105  -0.00344   1.86381
   A14        1.97056  -0.00908   0.00000  -0.03821  -0.03825   1.93231
   A15        1.90906   0.00263   0.00000   0.01258   0.01273   1.92179
   A16        1.87783   0.00099   0.00000  -0.00190  -0.00205   1.87578
   A17        1.95422   0.00389   0.00000   0.02085   0.02093   1.97515
   A18        1.86966   0.00270   0.00000   0.00618   0.00586   1.87552
   A19        1.87827  -0.00091   0.00000   0.00108   0.00100   1.87927
   A20        1.89307   0.00819   0.00000   0.04456   0.04456   1.93763
   A21        1.98926  -0.01414   0.00000  -0.06782  -0.06901   1.92026
   A22        1.85314   0.00507   0.00000   0.01000   0.00727   1.86041
   A23        1.89971   0.00011   0.00000   0.00703   0.00747   1.90718
   A24        1.96864  -0.00177   0.00000  -0.04701  -0.04895   1.91969
   A25        1.87288   0.00864   0.00000   0.05439   0.05494   1.92782
   A26        1.87668   0.00282   0.00000   0.05061   0.05065   1.92734
   A27        1.87437   0.01240   0.00000   0.06744   0.06744   1.94182
   A28        2.06353  -0.01134   0.00000  -0.04147  -0.04157   2.02196
   A29        2.05025  -0.00106   0.00000  -0.00396  -0.00405   2.04620
   A30        2.16934   0.01239   0.00000   0.04518   0.04509   2.21443
    D1       -1.19963   0.00252   0.00000   0.00976   0.00877  -1.19086
    D2        3.02341  -0.00079   0.00000  -0.04174  -0.04139   2.98202
    D3        0.97875  -0.00664   0.00000  -0.09049  -0.08985   0.88890
    D4       -3.03533  -0.00342   0.00000  -0.07051  -0.06899  -3.10432
    D5       -0.87474  -0.00248   0.00000  -0.06677  -0.06657  -0.94132
    D6        1.19208  -0.00641   0.00000  -0.13159  -0.12975   1.06233
    D7       -0.98106  -0.00082   0.00000  -0.02276  -0.02265  -1.00371
    D8        1.17952   0.00012   0.00000  -0.01902  -0.02024   1.15929
    D9       -3.03683  -0.00381   0.00000  -0.08385  -0.08342  -3.12025
   D10        1.04286   0.00275   0.00000   0.01759   0.01697   1.05983
   D11       -3.07974   0.00369   0.00000   0.02133   0.01938  -3.06035
   D12       -1.01291  -0.00024   0.00000  -0.04349  -0.04380  -1.05671
   D13       -1.11604  -0.00256   0.00000  -0.01568  -0.01590  -1.13193
   D14        2.97867  -0.00303   0.00000  -0.02467  -0.02479   2.95388
   D15        0.94323  -0.00389   0.00000  -0.03159  -0.03164   0.91159
   D16        2.98565   0.00451   0.00000   0.04855   0.04828   3.03393
   D17        0.79717   0.00404   0.00000   0.03956   0.03939   0.83656
   D18       -1.23827   0.00318   0.00000   0.03264   0.03254  -1.20573
   D19        0.95730   0.00054   0.00000   0.01778   0.01800   0.97530
   D20       -1.23118   0.00007   0.00000   0.00879   0.00911  -1.22206
   D21        3.01657  -0.00080   0.00000   0.00187   0.00226   3.01883
   D22        1.07686  -0.00903   0.00000  -0.19020  -0.18947   0.88739
   D23       -1.10108  -0.00117   0.00000  -0.09258  -0.09242  -1.19350
   D24       -3.11673  -0.00712   0.00000  -0.15997  -0.15969   3.00677
   D25       -3.04255  -0.00614   0.00000  -0.17361  -0.17331   3.06733
   D26        1.06270   0.00172   0.00000  -0.07598  -0.07626   0.98644
   D27       -0.95295  -0.00422   0.00000  -0.14337  -0.14352  -1.09647
   D28       -1.01040  -0.00397   0.00000  -0.12234  -0.12235  -1.13275
   D29        3.09485   0.00389   0.00000  -0.02472  -0.02530   3.06955
   D30        1.07920  -0.00205   0.00000  -0.09210  -0.09256   0.98663
   D31       -0.42184   0.00611   0.00000   0.05315   0.05332  -0.36852
   D32        2.73083   0.00672   0.00000   0.07655   0.07672   2.80755
   D33       -2.51360  -0.00122   0.00000  -0.01747  -0.01722  -2.53083
   D34        0.63907  -0.00060   0.00000   0.00592   0.00617   0.64524
   D35        1.70338  -0.00564   0.00000  -0.06401  -0.06442   1.63896
   D36       -1.42713  -0.00502   0.00000  -0.04061  -0.04103  -1.46816
   D37       -1.40541  -0.00273   0.00000  -0.05965  -0.05956  -1.46497
   D38        0.75844  -0.00320   0.00000  -0.05608  -0.05624   0.70220
   D39        2.81373  -0.00045   0.00000  -0.03926  -0.03920   2.77453
   D40       -0.93647  -0.00600   0.00000  -0.13646  -0.13855  -1.07503
   D41        1.17844  -0.01136   0.00000  -0.21109  -0.20916   0.96928
   D42       -3.04114  -0.00336   0.00000  -0.14105  -0.14089   3.10115
         Item               Value     Threshold  Converged?
 Maximum Force            0.020381     0.000015     NO 
 RMS     Force            0.006256     0.000010     NO 
 Maximum Displacement     0.680006     0.000060     NO 
 RMS     Displacement     0.127087     0.000040     NO 
 GradGradGradGradGradGradGradGradGradGradGradGradGradGradGradGradGradGrad

                    Distance matrix (angstroms):
                    1          2          3          4          5
     1  O    0.000000
     2  C    1.395519   0.000000
     3  C    2.400455   1.526010   0.000000
     4  C    3.781839   2.564331   1.541220   0.000000
     5  O    4.283728   3.010401   2.410292   1.386542   0.000000
     6  C    2.785711   2.485936   1.563931   2.572108   3.790005
     7  O    2.315642   2.754368   2.410127   3.768858   4.818101
     8  N    2.857651   2.472867   1.526692   2.499990   2.842009
     9  O    2.465764   2.598536   2.327111   3.531615   3.695122
    10  O    4.049360   3.564460   2.337383   2.729322   2.979586
    11  H    0.983847   1.941903   2.630675   4.054426   4.382873
    12  H    2.039943   1.100906   2.165099   2.797101   3.373811
    13  H    2.074770   1.111665   2.140396   2.787534   2.680281
    14  H    4.571675   3.504830   2.183480   1.105027   2.085463
    15  H    4.009547   2.722697   2.148481   1.103983   2.014893
    16  H    4.725175   3.601947   2.796927   1.957580   0.971350
    17  H    3.210525   2.747988   2.162803   2.743955   4.053556
    18  H    3.760548   3.444097   2.190009   2.832771   4.067143
    19  H    1.659646   2.377204   2.622616   4.020391   4.958538
                    6          7          8          9         10
     6  C    0.000000
     7  O    1.374906   0.000000
     8  N    2.481116   2.886547   0.000000
     9  O    3.152906   3.041285   1.212575   0.000000
    10  O    3.075375   3.682906   1.204088   2.161604   0.000000
    11  H    3.177600   2.632550   2.518001   1.756567   3.692403
    12  H    2.765438   3.146643   3.439948   3.685430   4.437236
    13  H    3.449506   3.763659   2.678190   2.673240   3.695007
    14  H    2.726167   4.033505   2.828431   4.008775   2.626553
    15  H    2.854983   4.061020   3.440515   4.359350   3.802800
    16  H    4.144108   5.125701   2.718253   3.592149   2.521986
    17  H    1.112633   2.043097   3.431758   4.111230   4.017409
    18  H    1.101420   2.040094   2.674071   3.525749   2.829037
    19  H    1.966888   0.993746   3.270322   3.206045   4.262394
                   11         12         13         14         15
    11  H    0.000000
    12  H    2.850640   0.000000
    13  H    2.270029   1.798804   0.000000
    14  H    4.779383   3.751509   3.823578   0.000000
    15  H    4.508422   2.497798   3.042978   1.783425   0.000000
    16  H    4.637005   4.154269   3.231135   2.270513   2.825380
    17  H    3.849925   2.565142   3.760317   2.945531   2.577773
    18  H    3.975979   3.791913   4.286908   2.543397   3.284850
    19  H    2.231148   2.640196   3.405192   4.511275   4.158772
                   16         17         18         19
    16  H    0.000000
    17  H    4.598187   0.000000
    18  H    4.227177   1.818390   0.000000
    19  H    5.387835   2.308817   2.885749   0.000000
 Framework group  C1[X(C4H9NO5)]
 Deg. of freedom    51
                         Standard orientation:                         
 ---------------------------------------------------------------------
 Center     Atomic      Atomic             Coordinates (Angstroms)
 Number     Number       Type             X           Y           Z
 ---------------------------------------------------------------------
      1          8           0        1.792511   -0.337553   -1.209403
      2          6           0        0.538502   -0.932723   -1.065498
      3          6           0       -0.168632   -0.391552    0.173777
      4          6           0       -1.542352   -1.041975    0.429128
      5          8           0       -2.427924   -0.734777   -0.592582
      6          6           0        0.803552   -0.590822    1.382507
      7          8           0        2.043655   -0.080984    1.078237
      8          7           0       -0.352049    1.113965   -0.001047
      9          8           0        0.388986    1.647754   -0.798715
     10          8           0       -1.182565    1.651360    0.685449
     11          1           0        1.657774    0.611217   -1.432195
     12          1           0        0.666273   -2.022789   -0.979329
     13          1           0       -0.111604   -0.716732   -1.941004
     14          1           0       -1.917069   -0.758227    1.429207
     15          1           0       -1.397122   -2.136350    0.423703
     16          1           0       -2.846679    0.128774   -0.442766
     17          1           0        0.875149   -1.687632    1.555231
     18          1           0        0.387907   -0.088206    2.270055
     19          1           0        2.445988   -0.551784    0.301059
 ---------------------------------------------------------------------
 Rotational constants (GHZ):           1.8116841           1.1907942           1.0965315
   158 basis functions,   286 primitive gaussians,   168 cartesian basis functions
    40 alpha electrons       39 beta electrons
       nuclear repulsion energy       634.8965909118 Hartrees.
 NAtoms=   19 NActive=   19 NUniq=   19 SFac= 1.00D+00 NAtFMM=   60 NAOKFM=F Big=F
 Nuclear repulsion after empirical dispersion term =      634.8839259075 Hartrees.
   1 Symmetry operations used in ECPInt.
 ECPInt:  NShTT=    3081 NPrTT=   12403 LenC2=    3046 LenP2D=    9549.
 LDataN:  DoStor=T MaxTD1= 4 Len=   56
 Initial guess from the checkpoint file:  "30.chk"
 B after Tr=     0.000000    0.000000    0.000000
         Rot=    0.980442   -0.196773    0.002539    0.002864 Ang= -22.70 deg.
 Initial guess <Sx>= 0.0000 <Sy>= 0.0000 <Sz>= 0.5000 <S**2>= 0.7555 S= 0.5027
 ExpMin= 1.22D-01 ExpMax= 2.27D+03 ExpMxC= 3.41D+02 IAcc=3 IRadAn=         5 AccDes= 0.00D+00
 Harris functional with IExCor= 4639 and IRadAn=       5 diagonalized for initial guess.
 HarFok:  IExCor= 4639 AccDes= 0.00D+00 IRadAn=         5 IDoV= 1 UseB2=F ITyADJ=14
 ICtDFT=  3500011 ScaDFX=  1.000000  1.000000  1.000000  1.000000
 FoFCou: FMM=F IPFlag=           0 FMFlag=      100000 FMFlg1=           0
         NFxFlg=           0 DoJE=T BraDBF=F KetDBF=T FulRan=T
         wScrn=  0.000000 ICntrl=       500 IOpCl=  0 I1Cent=   200000004 NGrid=           0
         NMat0=    1 NMatS0=      1 NMatT0=    0 NMatD0=    1 NMtDS0=    0 NMtDT0=    0
 Petite list used in FoFCou.
     Minimum is close to point  4 DX=  2.76D-02 DF= -1.53D-05 DXR=  2.25D-02 DFR=  5.06D-04 which will be used.
     Accept linear search using points  2 and  3.
     Accept linear search using points  1 and  2.
     Minimum is close to point  2 DX= -6.40D-02 DF= -1.33D-05 DXR=  6.18D-02 DFR=  4.49D-03 which will be used.
     Accept linear search using points  1 and  2.
     Accept linear search using points  1 and  2.
     Accept linear search using points  1 and  2.
     Accept linear search using points  1 and  2.
     Accept linear search using points  1 and  2.
     Accept linear search using points  1 and  2.
     Accept linear search using points  1 and  2.
     Accept linear search using points  1 and  2.
     Accept linear search using points  1 and  2.
     Minimum is close to point  2 DX= -2.97D-02 DF= -8.50D-07 DXR=  3.06D-02 DFR=  9.60D-04 which will be used.
     Minimum is close to point  2 DX=  1.07D-03 DF= -1.07D-11 DXR=  1.07D-03 DFR=  1.16D-06 which will be used.
 SCF Done:  E(UwB97XD) =  -587.575156755     a.u. after   22 cycles
            Convg  =    0.7847D-08                   107 Fock formations.
              S**2 =  0.7554                  -V/T =  2.0070
 <Sx>= 0.0000 <Sy>= 0.0000 <Sz>= 0.5000 <S**2>= 0.7554 S= 0.5027
 <L.S>=  0.00000000000    
 Annihilation of the first spin contaminant:
 S**2 before annihilation     0.7554,   after     0.7500
   1 Symmetry operations used in ECPInt.
 ECPInt:  NShTT=    3081 NPrTT=   12403 LenC2=    3046 LenP2D=    9549.
 LDataN:  DoStor=T MaxTD1= 5 Len=  102
 Calling FoFJK, ICntrl=      2127 FMM=F ISym2X=0 I1Cent= 0 IOpClX= 1 NMat=1 NMatS=1 NMatT=0.

 GradGradGradGradGradGradGradGradGradGradGradGradGradGradGradGradGradGrad
 Using GEDIIS/GDIIS optimizer.
 FormGI is forming the generalized inverse of G from B-inverse, IUseBI=4.
 Internal  Forces:  Max     0.026947617 RMS     0.007078793
 Step number   2 out of a maximum of  100
 All quantities printed in internal units (Hartrees-Bohrs-Radians)
 Mixed Optimization -- RFO/linear search
 Trust test= 6.44D-01 RLast= 6.05D-01 DXMaxT set to 5.05D-01
 ITU=  1  0
 Use linear search instead of GDIIS.
     Eigenvalues ---    0.00228   0.00234   0.00256   0.00272   0.00321
     Eigenvalues ---    0.01577   0.01676   0.01757   0.04143   0.04918
     Eigenvalues ---    0.04986   0.05090   0.05342   0.05930   0.05998
     Eigenvalues ---    0.06035   0.08220   0.11196   0.11395   0.11448
     Eigenvalues ---    0.13028   0.13818   0.13886   0.14386   0.15111
     Eigenvalues ---    0.15654   0.16000   0.16095   0.21631   0.22115
     Eigenvalues ---    0.23748   0.24793   0.26774   0.28273   0.28756
     Eigenvalues ---    0.30172   0.32374   0.33049   0.33175   0.33382
     Eigenvalues ---    0.33398   0.33470   0.41986   0.45047   0.45969
     Eigenvalues ---    0.49405   0.51021   0.53137   0.53815   0.98705
     Eigenvalues ---    0.99140
 Quartic linear search produced a step of -0.18708.
 Iteration  1 RMS(Cart)=  0.09344825 RMS(Int)=  0.00657043
 Iteration  2 RMS(Cart)=  0.00692773 RMS(Int)=  0.00036827
 Iteration  3 RMS(Cart)=  0.00008481 RMS(Int)=  0.00035772
 Iteration  4 RMS(Cart)=  0.00000002 RMS(Int)=  0.00035772
 Variable       Old X    -DE/DX   Delta X   Delta X   Delta X     New X
                                 (Linear)    (Quad)   (Total)
    R1        2.63715   0.00041   0.00335  -0.01089  -0.00754   2.62961
    R2        1.85920   0.00590  -0.00420   0.02192   0.01772   1.87693
    R3        2.88374   0.01809   0.00378   0.02853   0.03231   2.91606
    R4        2.08041  -0.00060   0.00035  -0.00242  -0.00207   2.07835
    R5        2.10074  -0.00062  -0.00230   0.00671   0.00440   2.10515
    R6        2.91248  -0.00255  -0.00137  -0.00112  -0.00249   2.91000
    R7        2.95540   0.01526  -0.00717   0.06069   0.05351   3.00891
    R8        2.88503   0.01247  -0.00286   0.03709   0.03422   2.91925
    R9        2.62018  -0.00142   0.00366  -0.01464  -0.01098   2.60921
   R10        2.08820  -0.00017  -0.00014   0.00013  -0.00001   2.08819
   R11        2.08623  -0.00015  -0.00050   0.00143   0.00092   2.08715
   R12        1.83559  -0.00104  -0.00107   0.00235   0.00128   1.83686
   R13        2.59820   0.00526   0.00441  -0.00767  -0.00325   2.59494
   R14        2.10257  -0.00316  -0.00027  -0.00558  -0.00585   2.09672
   R15        2.08138   0.00046   0.00045  -0.00065  -0.00020   2.08118
   R16        1.87791   0.00189  -0.00694   0.02620   0.01926   1.89716
   R17        2.29143   0.00322   0.00007   0.00200   0.00207   2.29351
   R18        2.27540  -0.01065   0.00219  -0.01479  -0.01260   2.26280
    A1        1.88764  -0.00040  -0.00537   0.01736   0.01199   1.89963
    A2        1.92719   0.02695   0.01353   0.03615   0.04984   1.97703
    A3        1.90294  -0.01202  -0.00852  -0.01418  -0.02366   1.87928
    A4        1.94059  -0.00668   0.00250  -0.02029  -0.01679   1.92381
    A5        1.91916  -0.00412  -0.00962   0.02393   0.01400   1.93316
    A6        1.87516  -0.00680   0.00522  -0.03353  -0.02751   1.84765
    A7        1.89853   0.00250  -0.00425   0.00812   0.00373   1.90226
    A8        1.98004  -0.00786  -0.00920  -0.01183  -0.02095   1.95909
    A9        1.86964   0.00593   0.01723  -0.01681  -0.00036   1.86928
   A10        1.88850   0.00964   0.00255   0.06255   0.06556   1.95407
   A11        1.95222  -0.00078  -0.00507  -0.01207  -0.01758   1.93464
   A12        1.90504  -0.00430  -0.00593  -0.02049  -0.02617   1.87887
   A13        1.86381  -0.00182   0.00064   0.00231   0.00250   1.86630
   A14        1.93231  -0.00113   0.00716  -0.02842  -0.02128   1.91103
   A15        1.92179  -0.00025  -0.00238   0.00702   0.00469   1.92648
   A16        1.87578  -0.00074   0.00038  -0.00712  -0.00677   1.86901
   A17        1.97515   0.00117  -0.00392   0.02064   0.01672   1.99187
   A18        1.87552   0.00067  -0.00110   0.00522   0.00399   1.87951
   A19        1.87927   0.00023  -0.00019   0.00212   0.00191   1.88118
   A20        1.93763   0.00035  -0.00834   0.03082   0.02249   1.96012
   A21        1.92026   0.01974   0.01291   0.01346   0.02636   1.94662
   A22        1.86041  -0.00256  -0.00136   0.01584   0.01479   1.87521
   A23        1.90718  -0.00791  -0.00140  -0.03639  -0.03776   1.86941
   A24        1.91969  -0.00150   0.00916  -0.00823   0.00081   1.92050
   A25        1.92782  -0.01032  -0.01028  -0.02165  -0.03199   1.89583
   A26        1.92734   0.00302  -0.00948   0.03823   0.02897   1.95631
   A27        1.94182   0.01120  -0.01262   0.08905   0.07644   2.01825
   A28        2.02196   0.02405   0.00778   0.03723   0.04373   2.06569
   A29        2.04620  -0.00905   0.00076  -0.02545  -0.02596   2.02024
   A30        2.21443  -0.01489  -0.00843  -0.00888  -0.01859   2.19585
    D1       -1.19086   0.00156  -0.00164   0.03157   0.02995  -1.16092
    D2        2.98202  -0.00249   0.00774  -0.01153  -0.00345   2.97857
    D3        0.88890   0.00632   0.01681   0.00017   0.01662   0.90552
    D4       -3.10432   0.00246   0.01291   0.02515   0.03742  -3.06690
    D5       -0.94132   0.00057   0.01245  -0.01035   0.00162  -0.93970
    D6        1.06233   0.00619   0.02427   0.01458   0.03844   1.10077
    D7       -1.00371   0.00207   0.00424   0.04603   0.05041  -0.95330
    D8        1.15929   0.00019   0.00379   0.01052   0.01461   1.17390
    D9       -3.12025   0.00580   0.01561   0.03546   0.05143  -3.06882
   D10        1.05983  -0.00116  -0.00317   0.04948   0.04641   1.10625
   D11       -3.06035  -0.00304  -0.00363   0.01397   0.01062  -3.04973
   D12       -1.05671   0.00258   0.00819   0.03890   0.04744  -1.00927
   D13       -1.13193  -0.00041   0.00297  -0.00871  -0.00574  -1.13767
   D14        2.95388  -0.00092   0.00464  -0.01990  -0.01524   2.93864
   D15        0.91159  -0.00065   0.00592  -0.02216  -0.01617   0.89542
   D16        3.03393  -0.00184  -0.00903   0.03111   0.02209   3.05602
   D17        0.83656  -0.00236  -0.00737   0.01992   0.01259   0.84915
   D18       -1.20573  -0.00209  -0.00609   0.01767   0.01166  -1.19407
   D19        0.97530   0.00362  -0.00337   0.04865   0.04518   1.02048
   D20       -1.22206   0.00310  -0.00170   0.03746   0.03567  -1.18639
   D21        3.01883   0.00338  -0.00042   0.03520   0.03474   3.05357
   D22        0.88739   0.01082   0.03545  -0.05638  -0.02104   0.86635
   D23       -1.19350   0.00335   0.01729  -0.06314  -0.04618  -1.23968
   D24        3.00677   0.00547   0.02987  -0.09798  -0.06822   2.93855
   D25        3.06733   0.00457   0.03242  -0.09104  -0.05852   3.00882
   D26        0.98644  -0.00291   0.01427  -0.09780  -0.08366   0.90278
   D27       -1.09647  -0.00079   0.02685  -0.13265  -0.10570  -1.20217
   D28       -1.13275  -0.00227   0.02289  -0.12148  -0.09835  -1.23110
   D29        3.06955  -0.00974   0.00473  -0.12824  -0.12349   2.94605
   D30        0.98663  -0.00762   0.01732  -0.16308  -0.14554   0.84110
   D31       -0.36852  -0.00328  -0.00998   0.08161   0.07126  -0.29726
   D32        2.80755  -0.00602  -0.01435  -0.00216  -0.01685   2.79069
   D33       -2.53083   0.00295   0.00322   0.06910   0.07237  -2.45846
   D34        0.64524   0.00021  -0.00115  -0.01468  -0.01575   0.62950
   D35        1.63896   0.00737   0.01205   0.09371   0.10604   1.74500
   D36       -1.46816   0.00463   0.00768   0.00993   0.01792  -1.45023
   D37       -1.46497  -0.00215   0.01114  -0.08825  -0.07709  -1.54206
   D38        0.70220  -0.00247   0.01052  -0.08555  -0.07509   0.62711
   D39        2.77453  -0.00104   0.00733  -0.06723  -0.05985   2.71468
   D40       -1.07503  -0.00901   0.02592  -0.25732  -0.23105  -1.30607
   D41        0.96928  -0.00127   0.03913  -0.23488  -0.19604   0.77323
   D42        3.10115  -0.00533   0.02636  -0.20671  -0.18041   2.92074
         Item               Value     Threshold  Converged?
 Maximum Force            0.026948     0.000015     NO 
 RMS     Force            0.007079     0.000010     NO 
 Maximum Displacement     0.443123     0.000060     NO 
 RMS     Displacement     0.094787     0.000040     NO 
 GradGradGradGradGradGradGradGradGradGradGradGradGradGradGradGradGradGrad

                    Distance matrix (angstroms):
                    1          2          3          4          5
     1  O    0.000000
     2  C    1.391532   0.000000
     3  C    2.452462   1.543111   0.000000
     4  C    3.802629   2.559650   1.539903   0.000000
     5  O    4.270720   2.975765   2.386789   1.380732   0.000000
     6  C    2.866043   2.522206   1.592249   2.579089   3.789287
     7  O    2.431678   2.805263   2.454773   3.786665   4.836539
     8  N    3.026583   2.559387   1.544801   2.490052   2.820188
     9  O    2.752742   2.747111   2.374938   3.524731   3.628168
    10  O    4.203861   3.618135   2.329709   2.677465   2.945483
    11  H    0.993226   1.953340   2.687549   4.105680   4.412130
    12  H    2.018728   1.099813   2.189516   2.778828   3.315725
    13  H    2.061359   1.113995   2.135861   2.778319   2.636115
    14  H    4.614735   3.507963   2.185747   1.105024   2.091590
    15  H    3.985228   2.695355   2.142568   1.104471   2.013195
    16  H    4.792544   3.625148   2.822157   1.967250   0.972025
    17  H    3.312249   2.817511   2.196673   2.723809   4.033200
    18  H    3.812417   3.455624   2.186310   2.856550   4.069825
    19  H    1.989197   2.630581   2.834250   4.164976   5.139749
                    6          7          8          9         10
     6  C    0.000000
     7  O    1.373185   0.000000
     8  N    2.520780   3.006742   0.000000
     9  O    3.272122   3.283821   1.213673   0.000000
    10  O    3.079411   3.784140   1.197420   2.146519   0.000000
    11  H    3.246948   2.732294   2.709318   2.072867   3.893808
    12  H    2.815927   3.194738   3.514640   3.834743   4.464821
    13  H    3.474935   3.814156   2.729098   2.742306   3.726659
    14  H    2.730832   4.053177   2.797032   3.981453   2.542430
    15  H    2.843052   4.038135   3.437998   4.378448   3.750737
    16  H    4.191254   5.214761   2.740299   3.544872   2.537604
    17  H    1.109538   2.039791   3.465937   4.249765   3.978818
    18  H    1.101315   2.016038   2.610857   3.513529   2.744321
    19  H    2.021504   1.003936   3.597738   3.703413   4.532222
                   11         12         13         14         15
    11  H    0.000000
    12  H    2.848260   0.000000
    13  H    2.272087   1.802217   0.000000
    14  H    4.851571   3.742311   3.815830   0.000000
    15  H    4.517717   2.453051   3.030740   1.785063   0.000000
    16  H    4.752952   4.142142   3.231979   2.280996   2.826115
    17  H    3.936799   2.663467   3.821305   2.896915   2.544658
    18  H    4.003899   3.840484   4.276124   2.579799   3.320189
    19  H    2.541389   2.821810   3.680444   4.625248   4.224305
                   16         17         18         19
    16  H    0.000000
    17  H    4.606404   0.000000
    18  H    4.260188   1.833838   0.000000
    19  H    5.648174   2.311161   2.900710   0.000000
 Framework group  C1[X(C4H9NO5)]
 Deg. of freedom    51
                         Standard orientation:                         
 ---------------------------------------------------------------------
 Center     Atomic      Atomic             Coordinates (Angstroms)
 Number     Number       Type             X           Y           Z
 ---------------------------------------------------------------------
      1          8           0        1.847939   -0.379227   -1.271477
      2          6           0        0.619285   -0.979803   -1.014417
      3          6           0       -0.122339   -0.360444    0.188736
      4          6           0       -1.427274   -1.109027    0.517478
      5          8           0       -2.316590   -0.966146   -0.529003
      6          6           0        0.879343   -0.397664    1.425871
      7          8           0        2.108618    0.116978    1.094720
      8          7           0       -0.481452    1.122148   -0.054918
      9          8           0        0.091781    1.715297   -0.945187
     10          8           0       -1.356703    1.565066    0.631794
     11          1           0        1.692030    0.555212   -1.569832
     12          1           0        0.799546   -2.052392   -0.851178
     13          1           0       -0.060554   -0.855300   -1.888089
     14          1           0       -1.823669   -0.780248    1.495156
     15          1           0       -1.174636   -2.181108    0.599166
     16          1           0       -2.867155   -0.170124   -0.439224
     17          1           0        0.982501   -1.457241    1.738490
     18          1           0        0.438525    0.226965    2.218596
     19          1           0        2.689134   -0.474929    0.528561
 ---------------------------------------------------------------------
 Rotational constants (GHZ):           1.7287293           1.1584095           1.0708517
   158 basis functions,   286 primitive gaussians,   168 cartesian basis functions
    40 alpha electrons       39 beta electrons
       nuclear repulsion energy       626.4513646951 Hartrees.
 NAtoms=   19 NActive=   19 NUniq=   19 SFac= 1.00D+00 NAtFMM=   60 NAOKFM=F Big=F
 Nuclear repulsion after empirical dispersion term =      626.4386432415 Hartrees.
   1 Symmetry operations used in ECPInt.
 ECPInt:  NShTT=    3081 NPrTT=   12403 LenC2=    3044 LenP2D=    9523.
 LDataN:  DoStor=T MaxTD1= 4 Len=   56
 Initial guess from the checkpoint file:  "30.chk"
 B after Tr=     0.000000    0.000000   -0.000000
         Rot=    0.998421    0.035396   -0.006726   -0.043096 Ang=   6.44 deg.
 Initial guess <Sx>= 0.0000 <Sy>= 0.0000 <Sz>= 0.5000 <S**2>= 0.7554 S= 0.5027
 ExpMin= 1.22D-01 ExpMax= 2.27D+03 ExpMxC= 3.41D+02 IAcc=3 IRadAn=         5 AccDes= 0.00D+00
 Harris functional with IExCor= 4639 and IRadAn=       5 diagonalized for initial guess.
 HarFok:  IExCor= 4639 AccDes= 0.00D+00 IRadAn=         5 IDoV= 1 UseB2=F ITyADJ=14
 ICtDFT=  3500011 ScaDFX=  1.000000  1.000000  1.000000  1.000000
 FoFCou: FMM=F IPFlag=           0 FMFlag=      100000 FMFlg1=           0
         NFxFlg=           0 DoJE=T BraDBF=F KetDBF=T FulRan=T
         wScrn=  0.000000 ICntrl=       500 IOpCl=  0 I1Cent=   200000004 NGrid=           0
         NMat0=    1 NMatS0=      1 NMatT0=    0 NMatD0=    1 NMtDS0=    0 NMtDT0=    0
 Petite list used in FoFCou.
     Accept linear search using points  3 and  4.
     Minimum is close to point  4 DX= -3.64D-02 DF= -3.85D-06 DXR=  3.13D-02 DFR=  1.84D-04 which will be used.
     Minimum is close to point  2 DX=  1.72D-02 DF= -6.17D-07 DXR=  1.69D-02 DFR=  2.86D-04 which will be used.
     Accept linear search using points  1 and  2.
     Minimum is close to point  2 DX= -7.14D-02 DF= -6.67D-06 DXR=  8.62D-02 DFR=  6.16D-03 which will be used.
     Accept linear search using points  1 and  2.
     Minimum is close to point  2 DX= -5.98D-02 DF= -2.52D-06 DXR=  7.12D-02 DFR=  4.17D-03 which will be used.
     Minimum is close to point  2 DX=  6.81D-02 DF= -2.25D-06 DXR=  7.85D-02 DFR=  6.20D-03 which will be used.
     Accept linear search using points  1 and  2.
     Accept linear search using points  1 and  2.
     Accept linear search using points  1 and  2.
     Accept linear search using points  1 and  2.
     Minimum is close to point  2 DX= -1.83D-03 DF= -1.18D-09 DXR=  1.83D-03 DFR=  3.37D-06 which will be used.
     Accept linear search using points  2 and  3.
     Minimum is close to point  2 DX=  2.86D-04 DF=  0.00D+00 DXR=  2.86D-04 DFR=  0.00D+00 which will be used.
 SCF Done:  E(UwB97XD) =  -587.580398144     a.u. after   15 cycles
            Convg  =    0.1495D-06                    69 Fock formations.
              S**2 =  0.7556                  -V/T =  2.0074
 <Sx>= 0.0000 <Sy>= 0.0000 <Sz>= 0.5000 <S**2>= 0.7556 S= 0.5028
 <L.S>=  0.00000000000    
 Annihilation of the first spin contaminant:
 S**2 before annihilation     0.7556,   after     0.7500
   1 Symmetry operations used in ECPInt.
 ECPInt:  NShTT=    3081 NPrTT=   12403 LenC2=    3044 LenP2D=    9523.
 LDataN:  DoStor=T MaxTD1= 5 Len=  102
 Calling FoFJK, ICntrl=      2127 FMM=F ISym2X=0 I1Cent= 0 IOpClX= 1 NMat=1 NMatS=1 NMatT=0.

 GradGradGradGradGradGradGradGradGradGradGradGradGradGradGradGradGradGrad
 Using GEDIIS/GDIIS optimizer.
 FormGI is forming the generalized inverse of G from B-inverse, IUseBI=4.
 Internal  Forces:  Max     0.017693608 RMS     0.004205433
 Step number   3 out of a maximum of  100
 All quantities printed in internal units (Hartrees-Bohrs-Radians)
 Mixed Optimization -- RFO/linear search
 Trust test= 5.23D-01 RLast= 5.36D-01 DXMaxT set to 8.49D-01
 ITU=  1  1  0
 Use linear search instead of GDIIS.
     Eigenvalues ---    0.00226   0.00245   0.00271   0.00288   0.00320
     Eigenvalues ---    0.01352   0.01706   0.01770   0.04466   0.04734
     Eigenvalues ---    0.05024   0.05088   0.05352   0.05944   0.06076
     Eigenvalues ---    0.06114   0.08225   0.11192   0.11363   0.11760
     Eigenvalues ---    0.13621   0.13799   0.13932   0.14814   0.14991
     Eigenvalues ---    0.15756   0.16002   0.16069   0.21761   0.22218
     Eigenvalues ---    0.23652   0.24855   0.26762   0.28224   0.28755
     Eigenvalues ---    0.30119   0.32375   0.33077   0.33174   0.33384
     Eigenvalues ---    0.33399   0.33469   0.44025   0.45775   0.47223
     Eigenvalues ---    0.49109   0.52731   0.53716   0.64290   0.98732
     Eigenvalues ---    0.99819
 Quartic linear search produced a step of -0.23884.
 Iteration  1 RMS(Cart)=  0.06668339 RMS(Int)=  0.01089231
 Iteration  2 RMS(Cart)=  0.01175457 RMS(Int)=  0.00477766
 Iteration  3 RMS(Cart)=  0.00027611 RMS(Int)=  0.00477008
 Iteration  4 RMS(Cart)=  0.00000434 RMS(Int)=  0.00477007
 Iteration  5 RMS(Cart)=  0.00000009 RMS(Int)=  0.00477007
 Variable       Old X    -DE/DX   Delta X   Delta X   Delta X     New X
                                 (Linear)    (Quad)   (Total)
    R1        2.62961  -0.00398   0.00180  -0.00856  -0.00676   2.62285
    R2        1.87693  -0.00466  -0.00423   0.00279  -0.00144   1.87548
    R3        2.91606  -0.01007  -0.00772   0.00348  -0.00424   2.91182
    R4        2.07835  -0.00015   0.00049  -0.00151  -0.00101   2.07733
    R5        2.10515  -0.00018  -0.00105   0.00051  -0.00054   2.10461
    R6        2.91000  -0.00053   0.00059  -0.00463  -0.00403   2.90596
    R7        3.00891  -0.00498  -0.01278   0.02008   0.00730   3.01622
    R8        2.91925  -0.01056  -0.00817  -0.00185  -0.01002   2.90923
    R9        2.60921   0.00322   0.00262   0.00048   0.00310   2.61231
   R10        2.08819  -0.00073   0.00000  -0.00171  -0.00171   2.08648
   R11        2.08715  -0.00015  -0.00022  -0.00015  -0.00037   2.08677
   R12        1.83686  -0.00201  -0.00030  -0.00281  -0.00312   1.83375
   R13        2.59494   0.00055   0.00078   0.00293   0.00370   2.59865
   R14        2.09672  -0.00253   0.00140  -0.01022  -0.00882   2.08790
   R15        2.08118   0.00101   0.00005   0.00247   0.00252   2.08370
   R16        1.89716  -0.01769  -0.00460  -0.01667  -0.02127   1.87590
   R17        2.29351  -0.00247  -0.00050  -0.00015  -0.00065   2.29286
   R18        2.26280   0.00447   0.00301  -0.00411  -0.00110   2.26169
    A1        1.89963  -0.00025  -0.00286   0.00196  -0.00091   1.89872
    A2        1.97703  -0.01106  -0.01190   0.01433   0.00245   1.97948
    A3        1.87928   0.00462   0.00565  -0.01039  -0.00456   1.87471
    A4        1.92381   0.00373   0.00401   0.00156   0.00550   1.92931
    A5        1.93316   0.00199  -0.00334   0.00417   0.00085   1.93401
    A6        1.84765   0.00141   0.00657  -0.01429  -0.00780   1.83986
    A7        1.90226  -0.00049  -0.00089   0.00478   0.00391   1.90617
    A8        1.95909   0.00286   0.00500  -0.00474   0.00011   1.95919
    A9        1.86928  -0.00045   0.00009   0.00745   0.00761   1.87689
   A10        1.95407  -0.00724  -0.01566  -0.01389  -0.02951   1.92456
   A11        1.93464   0.00028   0.00420   0.01077   0.01498   1.94962
   A12        1.87887   0.00378   0.00625   0.00298   0.00909   1.88796
   A13        1.86630   0.00059  -0.00060  -0.00233  -0.00281   1.86350
   A14        1.91103   0.00343   0.00508   0.00328   0.00837   1.91939
   A15        1.92648  -0.00144  -0.00112  -0.00586  -0.00700   1.91948
   A16        1.86901  -0.00044   0.00162  -0.00357  -0.00197   1.86705
   A17        1.99187  -0.00125  -0.00399   0.00240  -0.00158   1.99029
   A18        1.87951  -0.00069  -0.00095   0.00360   0.00269   1.88220
   A19        1.88118   0.00038  -0.00046  -0.00007  -0.00053   1.88065
   A20        1.96012  -0.00292  -0.00537  -0.00514  -0.01051   1.94961
   A21        1.94662  -0.00567  -0.00630   0.01613   0.00895   1.95557
   A22        1.87521  -0.00024  -0.00353   0.01390   0.00944   1.88464
   A23        1.86941   0.00007   0.00902  -0.04391  -0.03540   1.83401
   A24        1.92050   0.00610  -0.00019   0.05620   0.05553   1.97603
   A25        1.89583  -0.00044   0.00764  -0.05409  -0.04679   1.84904
   A26        1.95631  -0.00014  -0.00692   0.01054   0.00401   1.96032
   A27        2.01825  -0.00474  -0.01826   0.02226   0.00401   2.02226
   A28        2.06569  -0.01336  -0.01045   0.00988  -0.02565   2.04004
   A29        2.02024   0.00681   0.00620   0.00719  -0.01176   2.00848
   A30        2.19585   0.00681   0.00444   0.00295  -0.01961   2.17623
    D1       -1.16092   0.00233  -0.00715   0.08547   0.07835  -1.08256
    D2        2.97857   0.00375   0.00082   0.07821   0.07894   3.05751
    D3        0.90552  -0.00051  -0.00397   0.07775   0.07384   0.97936
    D4       -3.06690  -0.00017  -0.00894   0.03147   0.02267  -3.04423
    D5       -0.93970   0.00164  -0.00039   0.04696   0.04668  -0.89301
    D6        1.10077  -0.00190  -0.00918   0.04104   0.03182   1.13259
    D7       -0.95330  -0.00050  -0.01204   0.03112   0.01909  -0.93421
    D8        1.17390   0.00131  -0.00349   0.04661   0.04311   1.21701
    D9       -3.06882  -0.00223  -0.01228   0.04070   0.02825  -3.04057
   D10        1.10625   0.00077  -0.01109   0.03070   0.01967   1.12592
   D11       -3.04973   0.00258  -0.00254   0.04619   0.04369  -3.00605
   D12       -1.00927  -0.00096  -0.01133   0.04028   0.02882  -0.98045
   D13       -1.13767   0.00182   0.00137   0.01585   0.01725  -1.12042
   D14        2.93864   0.00198   0.00364   0.01459   0.01826   2.95690
   D15        0.89542   0.00255   0.00386   0.01986   0.02372   0.91914
   D16        3.05602   0.00028  -0.00528   0.00214  -0.00308   3.05294
   D17        0.84915   0.00043  -0.00301   0.00088  -0.00207   0.84708
   D18       -1.19407   0.00101  -0.00278   0.00614   0.00339  -1.19069
   D19        1.02048  -0.00279  -0.01079  -0.00270  -0.01354   1.00694
   D20       -1.18639  -0.00264  -0.00852  -0.00396  -0.01253  -1.19892
   D21        3.05357  -0.00207  -0.00830   0.00130  -0.00707   3.04650
   D22        0.86635  -0.00179   0.00502   0.04779   0.05273   0.91909
   D23       -1.23968  -0.00575   0.01103  -0.04001  -0.02906  -1.26874
   D24        2.93855  -0.00550   0.01629  -0.03598  -0.01960   2.91895
   D25        3.00882   0.00161   0.01398   0.05338   0.06735   3.07617
   D26        0.90278  -0.00235   0.01998  -0.03442  -0.01444   0.88834
   D27       -1.20217  -0.00210   0.02525  -0.03039  -0.00498  -1.20715
   D28       -1.23110   0.00663   0.02349   0.06137   0.08478  -1.14632
   D29        2.94605   0.00267   0.02950  -0.02643   0.00298   2.94904
   D30        0.84110   0.00292   0.03476  -0.02240   0.01245   0.85355
   D31       -0.29726  -0.00030  -0.01702  -0.14536  -0.15941  -0.45667
   D32        2.79069   0.00497   0.00403   0.23613   0.23718   3.02788
   D33       -2.45846  -0.00182  -0.01728  -0.13240  -0.14673  -2.60519
   D34        0.62950   0.00345   0.00376   0.24910   0.24986   0.87936
[...]
 68,-0.01908478,0.00942413,0.00630099,0.02259103,-0.08906408,-0.0112579
 3,0.03922173,0.61159574,-0.00114775,0.00433012,-0.00281190,0.02413936,
 -0.00397126,-0.01178984,0.03428241,-0.00941142,-0.08432052,-0.01140391
 ,-0.00206368,0.58134992,-0.00022847,0.00087159,-0.00019992,-0.00075458
 ,0.00046963,-0.00121373,-0.04164325,0.01039693,-0.04297824,-0.15329734
 ,0.01687061,-0.10658441,0.67842822,-0.00077813,0.00118762,-0.00010181,
 0.00032855,-0.00088033,-0.00069930,0.00929963,-0.00054482,0.01068673,0
 .01140763,-0.06991482,0.02311616,-0.06329474,0.05869885,0.00037806,0.0
 0007955,0.00018973,0.00112405,0.00106435,0.00072182,-0.00880551,0.0032
 2958,0.00053400,-0.05646005,0.02107423,-0.23681088,0.03506835,-0.02975
 803,0.35331409,0.02236214,-0.01318588,0.01697057,-0.03421539,0.0009641
 9,-0.00091730,-0.08429970,0.01711914,-0.04968947,-0.01896143,0.0031601
 9,-0.01776190,-0.00316710,0.00077862,0.00274388,0.43652588,0.00239541,
 0.00452194,-0.00011325,0.00470955,-0.00316539,0.03188762,0.00381491,-0
 .07833313,-0.00165516,0.00525867,-0.00024309,0.00645423,0.00151520,-0.
 00018093,-0.00140601,0.04213902,0.63714998,-0.00877654,0.00238801,-0.0
 0314561,0.00147261,0.01392317,-0.03634940,-0.04138418,-0.00680486,-0.1
 2592547,-0.00153196,0.00349399,0.01281358,0.00583465,-0.00123655,0.000
 43342,-0.02633645,0.03755715,0.53659884,-0.00644322,-0.00137953,0.0004
 1137,0.00587401,-0.00143338,-0.00191623,-0.06149462,0.01076970,0.00451
 789,0.00111766,-0.00315099,-0.00460514,-0.00465566,0.00095108,-0.00116
 288,-0.19766594,0.06120874,0.07769208,0.60039250,-0.00037190,-0.014371
 76,0.01193362,0.01146946,0.00021841,-0.00338038,0.00141633,-0.00208386
 ,0.00364709,-0.00003523,0.00062989,-0.00091571,0.00039724,0.00021830,0
 .00054374,0.01595293,-0.09158260,-0.03805740,0.12268481,0.23398164,0.0
 1244253,0.00296671,-0.01391032,-0.03534996,-0.00004413,-0.00079042,-0.
 00305682,0.01561834,0.01412631,-0.00182467,-0.00191644,-0.00227431,-0.
 00162941,0.00078697,0.00035648,0.02739532,-0.04930836,-0.11259880,0.04
 722714,0.14079856,0.21751119,0.00167637,0.01045139,0.00133578,-0.00373
 573,-0.01674558,-0.00594666,-0.09870968,0.01011332,-0.00975815,0.01002
 117,0.03495798,0.01851130,0.00068545,-0.00474675,-0.00099533,-0.001836
 49,-0.03069873,-0.01856142,0.00256764,0.00150015,0.00073392,0.60490178
 ,-0.00153959,-0.00543734,-0.00493506,-0.00414001,-0.03011901,-0.002594
 44,0.00068465,-0.08592875,0.00208651,0.01737510,-0.01751952,-0.0152242
 3,-0.00627050,-0.00196562,-0.00225959,-0.00974193,0.00521794,-0.011194
 15,0.00333528,-0.00075426,0.00171501,0.22287630,0.71716525,-0.00227429
 ,-0.02224721,-0.00262705,0.00230925,0.02717333,0.00979948,-0.01237798,
 -0.00749627,-0.08229926,0.00747115,-0.01659763,-0.00692706,-0.00182826
 ,0.00326500,-0.00218516,-0.00957923,-0.02352748,-0.02466327,0.00080155
 ,-0.00345111,0.00262608,-0.37443590,-0.05781335,0.77482190,-0.00898161
 ,-0.03072384,-0.00642636,-0.00200992,0.00237442,0.00186871,0.01101345,
 -0.00002509,0.01696442,-0.00067899,-0.00048778,0.00033784,0.00021101,0
 .00085883,-0.00018489,-0.00252635,0.00792114,0.00129933,-0.00184917,-0
 .00280257,-0.00048554,-0.21125087,0.02634794,0.21116094,0.24033392,-0.
 01084911,-0.01944597,-0.00218716,-0.00203091,0.00002985,-0.00074828,0.
 01605882,-0.00208132,-0.03340442,-0.00393018,-0.00481158,-0.00338870,0
 .00123396,0.00109534,0.00112620,0.00220512,-0.00306258,-0.00187960,-0.
 00159711,0.00031638,0.00001028,0.03450645,-0.15173442,-0.09453107,0.00
 067600,0.16048522,0.00008378,0.01141730,0.00727373,-0.00001724,-0.0007
 9649,-0.00148403,0.02883128,-0.01298598,-0.02433727,-0.00570042,-0.004
 30209,-0.00534703,-0.00005946,-0.00034615,0.00259598,0.00173763,-0.003
 80540,0.00140564,-0.00074135,0.00173369,-0.00153828,0.22201106,-0.0889
 6383,-0.44179170,-0.30233295,0.08353164,0.52358383,0.00005171,-0.00499
 433,-0.00140930,0.00060376,-0.00224102,-0.00145529,0.00346483,-0.02510
 490,0.01022149,-0.00412207,-0.00004520,0.00131677,0.00108307,0.0029782
 4,0.00055305,0.00090534,0.00305391,0.00244396,-0.00075118,-0.00050567,
 -0.00028531,-0.28208780,-0.24724393,0.15874732,-0.03661352,-0.03954804
 ,0.06627438,0.31026829,0.00097778,-0.00181501,0.00024445,-0.00146076,-
 0.00946782,-0.00619004,-0.03362807,-0.04153555,0.01479390,-0.00442285,
 -0.00210273,0.00049953,0.00244238,0.00122508,0.00094169,0.00157092,-0.
 00361611,0.00288314,-0.00181745,0.00024432,-0.00092674,-0.24974613,-0.
 43695800,0.16326443,-0.02036340,0.03017436,0.03309192,0.30513691,0.463
 48246,0.00085430,0.00888877,0.00198500,0.00015942,-0.00360798,-0.00105
 358,0.00422215,0.00044125,0.01487838,0.00099561,-0.00284932,-0.0029414
 3,0.00010686,-0.00046140,0.00128891,-0.00072794,-0.00073335,-0.0000673
 3,0.00044792,0.00105641,-0.00048682,0.15539463,0.16078326,-0.21514572,
 0.08200443,0.05955299,-0.05619879,-0.23468459,-0.20665170,0.25422196,-
 0.04666074,-0.04605295,-0.01795616,-0.00228692,0.04194181,0.01727720,0
 .00249839,0.00164635,0.00340000,-0.00060160,-0.00027302,-0.00058485,0.
 00003139,-0.00052879,-0.00003554,0.00019620,-0.00157163,0.00074875,-0.
 00201655,-0.00014129,-0.00087400,-0.01292121,0.00045636,0.01913343,0.0
 0957180,0.00264037,-0.01121556,0.00520471,0.00268336,-0.00733722,0.053
 36070,-0.01442859,-0.30052596,-0.12711927,0.00257162,-0.01360273,-0.00
 353682,0.00617465,0.00634329,0.00175683,-0.00017682,-0.00157575,-0.000
 81971,-0.00114767,-0.00041734,-0.00049653,-0.00388865,-0.00919414,0.00
 458781,0.00588495,0.00487855,-0.00132541,-0.01434973,0.00730572,0.0298
 3234,0.01840650,-0.01019458,-0.01831247,0.00690574,0.00381533,-0.01297
 954,-0.00278355,0.30861257,0.00098987,-0.11738677,-0.06880504,-0.00075
 208,-0.00739473,-0.01359392,-0.00015727,-0.00188280,0.00496561,0.00025
 699,-0.00052272,0.00018951,-0.00080195,0.00010584,-0.00022846,0.000365
 72,0.00078273,-0.00332626,-0.00106419,-0.00279378,-0.00280650,0.003483
 83,0.00675907,-0.00087491,-0.00149211,-0.00454915,-0.00746432,0.001547
 40,-0.00073342,-0.00113121,-0.00367099,0.12903675,0.08626901,-0.007823
 97,0.04249507,0.01975258,-0.05031982,-0.03089050,-0.01110312,-0.000195
 97,-0.00773061,-0.00872058,0.00023387,-0.00152346,-0.00035714,-0.00006
 431,0.00053632,0.00014627,0.00075443,0.00114203,-0.00048537,-0.0003921
 8,-0.00036285,0.00043372,0.00092015,-0.00056592,0.00181713,0.00052656,
 -0.00069374,0.00016229,-0.00090461,-0.00165161,-0.00010331,-0.00670667
 ,-0.00003123,0.00178476,0.06266491,0.00547263,-0.00527731,-0.00098331,
 -0.01719754,-0.29068325,-0.10398580,-0.00177652,-0.01577582,-0.0058203
 6,0.00061632,0.00026135,-0.00062132,-0.00017208,0.00003088,0.00010470,
 -0.00063462,0.00035006,-0.00098111,0.00024316,0.00013135,-0.00037076,-
 0.00100378,0.00053822,0.00294569,0.00024598,0.00035797,-0.00026252,-0.
 00040907,-0.00119686,-0.00019032,0.00050258,0.00162891,-0.00190726,0.0
 1375744,0.30619408,0.00056957,-0.00915147,-0.00753493,-0.00656844,-0.1
 0271385,-0.09285826,0.00093275,0.02060867,0.00713702,-0.00036506,0.000
 16429,0.00149374,-0.00028503,0.00026898,-0.00044612,0.00084725,-0.0001
 5450,0.00147799,0.00002584,0.00020032,0.00017237,0.00263700,0.00124900
 ,-0.00519818,-0.00082203,-0.00068167,0.00115328,0.00050062,0.00212111,
 0.00088759,0.00256524,-0.00005610,0.00404282,0.00049752,0.10878515,0.0
 9662837,-0.04417459,0.00941028,-0.01887716,-0.10523249,-0.00039881,-0.
 12282756,0.00324413,-0.00343906,0.00823816,0.00305811,0.00086666,0.000
 73194,-0.00350775,-0.00025505,-0.00002261,0.00636757,-0.00111487,-0.00
 047085,-0.00244415,-0.00253609,0.00679196,0.00236176,-0.00035271,-0.00
 213197,-0.00119082,-0.00079047,0.00147663,-0.00090381,-0.00033930,0.00
 091212,0.00054907,0.00137659,0.00048185,0.00135794,0.00024158,-0.00020
 048,0.14370128,0.00224959,0.00166654,0.00879227,0.00571981,-0.04204129
 ,-0.01518150,0.00518988,-0.00487190,0.02214942,0.00044745,0.00079677,-
 0.00064178,0.00011295,-0.00067045,0.00010918,0.00356125,-0.00205718,-0
 .00018497,-0.00033224,-0.00095453,0.00390547,0.00047517,-0.00065766,0.
 00029565,-0.00018028,-0.00089715,-0.00086075,0.00063618,0.00100200,0.0
 0017704,0.00119115,0.00121329,-0.00018037,-0.01510798,0.00266423,-0.02
 056259,-0.00214687,0.04537729,0.00374753,0.00480248,0.00510444,-0.1199
 5892,-0.01107840,-0.20726617,-0.00949338,0.00509192,-0.02129653,-0.000
 19749,-0.00030675,-0.00050035,-0.00071244,0.00003561,-0.00031426,0.002
 30059,-0.00002426,-0.00042347,0.00308990,0.00034313,0.00097988,0.00067
 829,-0.00057446,0.00076096,0.00019635,-0.00131959,0.00006891,-0.000117
 95,-0.00037499,-0.00023561,-0.00049566,-0.00181094,0.00350807,-0.00430
 325,0.00209169,-0.00620426,0.12795165,0.00249003,0.22511436,-0.0012095
 0,-0.00079726,0.00150857,-0.00341489,0.00285239,0.00049157,-0.01344871
 ,-0.02197155,0.01745460,-0.09870870,-0.07686090,0.06430534,0.00804983,
 0.01739329,-0.02253557,0.00027111,-0.00034575,0.00076370,-0.00034318,0
 .00026048,-0.00030885,-0.00111657,-0.00270211,0.00112360,0.00096706,0.
 00018853,-0.00095701,0.00153967,0.00069188,-0.00171056,-0.00005124,-0.
 00020885,-0.00011691,-0.00008098,0.00024789,-0.00019466,-0.00021010,0.
 00019699,-0.00003560,0.10330176,0.00004153,0.00073430,-0.00048955,0.00
 198972,-0.00115269,-0.00090990,0.00423949,0.00809632,-0.00634595,-0.07
 800677,-0.18596221,0.10765188,0.00433261,0.00282244,0.00416067,0.00018
 444,0.00011779,0.00019377,0.00033825,-0.00017104,0.00041877,-0.0006474
 9,-0.00012341,-0.00045597,-0.00065749,0.00008995,0.00075127,0.00140503
 ,-0.00292311,-0.00173860,0.00007001,0.00046835,0.00008611,0.00021913,0
 .00012766,-0.00006147,-0.00018590,-0.00019612,0.00006714,0.07952243,0.
 19288760,-0.00000794,0.00009011,-0.00016151,0.00048217,-0.00089725,0.0
 0067134,0.00671617,0.00475737,-0.00592507,0.05723049,0.10222448,-0.135
 43904,0.00200022,0.02195522,-0.02790638,-0.00027041,-0.00003028,-0.000
 45195,-0.00012401,-0.00010763,0.00003481,0.00231791,0.00308799,-0.0021
 6500,-0.00098307,-0.00041378,0.00144985,-0.00191678,-0.00072247,0.0013
 9706,0.00018634,0.00040495,0.00007098,0.00007647,0.00015760,-0.0001003
 8,-0.00063614,0.00001347,0.00011087,-0.06000414,-0.11861789,0.15500644
 ,-0.00005771,-0.00030660,-0.00064376,0.00077995,0.00060864,0.00016015,
 0.00204464,0.02720824,0.01375567,-0.05523304,-0.01622030,-0.00367260,-
 0.00398087,-0.01519445,-0.02207523,0.00067118,0.00074121,0.00054928,0.
 00030812,-0.00039834,0.00010092,-0.00779536,-0.00126183,0.00084298,0.0
 0007630,0.00196172,0.00226623,0.00140972,0.00014661,-0.00011905,0.0004
 9478,0.00065087,0.00007386,-0.00035724,-0.00034476,0.00031542,-0.00046
 416,-0.00003514,0.00007899,0.00213262,-0.01247525,-0.00654755,0.059928
 13,0.00004941,0.00055841,0.00026423,-0.00045011,0.00022849,0.00059373,
 -0.00233583,-0.00827704,-0.00261645,-0.01366521,-0.24475297,-0.1049460
 5,-0.00200099,0.01506493,0.00211682,-0.00004747,-0.00042547,-0.0006771
 0,-0.00003137,0.00044671,0.00035805,-0.00038126,-0.00042392,0.00134496
 ,0.00075821,-0.00006204,-0.00108235,0.00118979,0.00004935,-0.00116211,
 -0.00038229,-0.00043039,-0.00005888,0.00010955,0.00041116,-0.00024178,
 -0.00005511,-0.00005753,0.00008067,0.00046296,-0.01592347,-0.01099872,
 0.01611276,0.25308819,-0.00014339,0.00042712,0.00041242,-0.00001582,-0
 .00106798,-0.00031996,0.00241968,-0.01016158,-0.00533933,-0.00714417,-
 0.10212574,-0.10955614,-0.01350597,-0.02070480,-0.02667325,-0.00044082
 ,0.00004435,-0.00025537,-0.00021597,0.00039789,0.00008561,0.00216173,0
 .00193136,-0.00005783,-0.00036557,-0.00037686,-0.00001867,-0.00094256,
 0.00022023,0.00073036,-0.00018907,-0.00013007,-0.00003045,0.00051678,0
 .00031958,-0.00031811,-0.00035277,-0.00010511,0.00003771,0.00084146,0.
 01432789,0.01195409,0.01595523,0.11725439,0.12922426,-0.00030037,0.000
 29919,-0.00043844,0.00085015,0.00004836,0.00007428,-0.00111917,-0.0002
 8524,-0.00292501,-0.01871829,0.00185291,0.00586679,-0.47716166,0.04015
 374,0.07157435,0.00008277,-0.00002639,0.00054044,0.00033516,-0.0001521
 9,0.00037287,-0.00017724,0.00037634,0.00058710,0.00007344,-0.00033661,
 -0.00042106,0.00025763,-0.00027300,-0.00027533,-0.00010981,0.00008265,
 0.00021227,-0.00009805,-0.00008300,0.00004920,-0.00064215,-0.00009772,
 0.00004425,0.00255120,-0.00015661,0.00164490,0.00093193,0.00005469,0.0
 0141092,0.49368501,0.00035665,-0.00058888,-0.00007173,-0.00045418,0.00
 030443,0.00028053,0.00211411,-0.00060556,0.00188324,0.00567481,-0.0035
 8916,-0.00095096,0.03359132,-0.00576722,-0.00074143,0.00047365,0.00033
 339,-0.00053308,-0.00000824,0.00006706,0.00006666,0.00136137,0.0019185
 3,-0.00045214,-0.00061678,-0.00042171,0.00056096,-0.00103839,-0.000687
 44,0.00007798,0.00019908,0.00038323,-0.00005094,0.00000087,0.00002159,
 0.00000467,0.00015187,0.00011444,-0.00012069,0.00078821,0.00088632,-0.
 00064247,-0.00125715,0.00034460,-0.00049783,-0.04153337,0.00727213,-0.
 00022522,0.00033593,-0.00012443,0.00082691,-0.00008007,-0.00011999,-0.
 00280303,0.00038313,-0.00534718,-0.04300931,0.00439155,0.00234872,0.12
 573542,-0.00657785,-0.06519837,-0.00073831,0.00014555,0.00082833,-0.00
 007203,0.00002262,-0.00012957,0.00016626,0.00028808,0.00004283,-0.0000
 7166,-0.00009680,-0.00009733,0.00006502,0.00002727,-0.00025963,-0.0000
 6688,-0.00007971,0.00017938,0.00002001,0.00000337,0.00005700,-0.000657
 99,-0.00043809,0.00055187,-0.00019697,0.00086110,0.00074143,-0.0006343
 2,-0.00049527,-0.00039183,-0.07801304,0.00127034,0.06668802,-0.0008946
 9,0.00153964,-0.00061554,0.00169161,0.00071922,0.00142992,-0.00091989,
 -0.02087007,-0.00813456,0.00051551,-0.00085155,-0.00096703,-0.00002230
 ,0.00041534,0.00043036,-0.05573626,-0.02852901,-0.01802290,-0.00974559
 ,0.03285605,0.02604014,-0.00432503,0.00313048,-0.00225286,0.00184066,-
 0.00095336,-0.00116816,0.00062645,-0.00043749,-0.00034173,-0.00087929,
 -0.00155204,-0.00050743,0.00037405,0.00027621,-0.00027486,-0.00038753,
 -0.00045938,-0.00023885,-0.00000293,-0.00003257,0.00001596,-0.00068732
 ,0.00059394,-0.00018004,-0.00005940,-0.00002540,-0.00006091,0.06489113
 ,0.00025307,-0.00021229,0.00029683,0.00005336,0.00030840,-0.00020358,0
 .00047331,0.00441018,0.00443193,-0.00001262,0.00001287,-0.00000241,0.0
 0012935,0.00004646,0.00016321,-0.02078453,-0.25083022,-0.12267133,0.00
 363439,-0.00050905,-0.00248333,0.00118192,-0.00079825,0.00119573,-0.00
 059163,0.00041050,-0.00002369,0.00001147,0.00072893,-0.00045723,0.0001
 6234,0.00046230,0.00006317,0.00010255,0.00010250,0.00024458,0.00002508
 ,0.00016310,0.00019356,-0.00002038,0.00000815,-0.00010376,0.00006102,0
 .00020618,0.00018764,-0.00002416,-0.00000570,0.00000051,0.01726862,0.2
 5877786,0.00104180,-0.00040978,0.00055812,-0.00097778,-0.00133692,0.00
 077759,-0.00389950,-0.01839271,-0.01315471,0.00054712,-0.00048571,0.00
 004368,0.00050359,0.00028335,0.00024428,-0.01013229,-0.11817258,-0.125
 56254,0.00572591,-0.01157983,-0.00677002,-0.00289351,0.00351338,-0.001
 92584,0.00088726,-0.00068433,-0.00026921,0.00017244,-0.00114190,0.0006
 3293,-0.00020297,-0.00059373,-0.00005425,0.00000337,0.00060773,-0.0005
 2432,-0.00001786,0.00017707,0.00034286,0.00000302,0.00014865,0.0000301
 0,-0.00035530,0.00037128,0.00047601,-0.00004541,0.00004500,0.00007179,
 0.00906356,0.13224388,0.13288744,-0.00536320,0.00296475,-0.00251061,0.
 00416081,0.00050713,-0.00279120,0.00293784,0.01451299,-0.01430995,0.00
 071327,0.00063895,-0.00035793,-0.00007469,-0.00024166,0.00010486,-0.04
 961102,-0.05322224,0.03617997,-0.02751433,-0.01767494,0.02789860,0.001
 96674,0.00042226,-0.00046207,-0.00074983,0.00019106,0.00044798,-0.0005
 6223,-0.00050155,0.00068851,0.00011610,0.00008423,0.00012674,-0.000123
 14,-0.00016294,0.00006069,-0.00057147,-0.00041595,-0.00115694,-0.00058
 291,0.00006745,-0.00019566,-0.00007238,-0.00001577,0.00004466,-0.00009
 335,0.00002393,0.00000685,0.00092530,-0.00231872,0.00128441,0.07685262
 ,0.00042479,-0.00154025,-0.00083609,0.00273494,-0.00068405,-0.00194314
 ,-0.00188860,-0.00209561,0.00151457,-0.00072764,-0.00050894,0.00077345
 ,0.00009754,0.00010014,-0.00006378,-0.05281991,-0.20886911,0.11530721,
 0.00021763,0.01137685,-0.00483785,0.00097415,0.00049044,-0.00292456,-0
 .00149461,-0.00061032,0.00109213,-0.00051641,-0.00079944,0.00012819,0.
 00056780,0.00358802,-0.00004349,-0.00019002,0.00032252,0.00007629,-0.0
 0045346,0.00008266,0.00149046,0.00006180,0.00034115,-0.00003555,0.0000
 9298,0.00005597,0.00008199,0.00010913,-0.00010594,0.00013962,-0.004956
 57,-0.01432226,0.01489028,0.05615687,0.21255881,-0.00121539,-0.0005663
 8,-0.00009916,-0.00001667,-0.00079705,-0.00184958,0.00019604,0.0185002
 8,-0.01832086,0.00066142,-0.00008086,-0.00003895,0.00022041,-0.0004224
 2,0.00020714,0.04210145,0.11189282,-0.13091012,0.01082752,0.00651774,-
 0.00577785,0.00287756,0.00257037,-0.00150897,-0.00124707,-0.00028744,0
 .00087020,-0.00108557,-0.00155732,0.00133679,0.00045517,0.00136557,0.0
 0005699,-0.00011869,0.00007531,0.00006168,-0.00000229,0.00020412,-0.00
 043571,-0.00034370,-0.00003193,0.00053055,-0.00002707,-0.00008598,0.00
 000506,-0.00014668,-0.00006190,0.00007302,-0.00520097,-0.01292603,0.01
 229394,-0.04786994,-0.12490440,0.14581124,-0.00412959,0.00469772,-0.00
 218772,0.00422102,0.00179491,0.00202930,-0.00571156,-0.00182028,0.0038
 6073,0.00056925,0.00082866,-0.00204910,0.00006900,-0.00006172,0.000154
 37,-0.02011693,-0.01839117,-0.01195511,-0.29527932,-0.16155637,-0.1056
 2256,-0.00114507,-0.00118620,0.00134810,0.00123688,0.00106750,-0.00067
 805,0.00053002,0.00099177,-0.00048622,0.00021089,-0.00357066,-0.000760
 37,0.00023505,0.00018052,-0.00029056,-0.00091083,-0.00100486,-0.001377
 06,0.00035647,-0.00024802,0.00001508,-0.00012929,0.00003409,0.00014569
 ,-0.00028777,0.00019763,-0.00027078,0.00279552,0.00039557,-0.00070789,
 -0.00235417,0.00160958,-0.00006552,0.31984042,-0.00118459,0.00447231,-
 0.00210264,0.00262501,0.00189119,0.00129683,0.00669602,-0.00388788,0.0
 0321593,0.00027038,0.00099670,0.00013185,0.00042468,-0.00014850,0.0000
 1145,0.01299353,0.00386887,0.00388592,-0.19951769,-0.14208236,-0.10543
 181,-0.00007876,-0.00021595,0.00017967,0.00035446,0.00036211,-0.000437
 20,0.00032969,0.00038024,-0.00027435,-0.00032769,-0.00275867,0.0006706
 4,0.00038496,-0.00020925,-0.00009962,-0.00000437,-0.00067650,-0.001076
 61,0.00023997,-0.00012798,-0.00012141,-0.00009026,-0.00010116,-0.00002
 245,-0.00000872,0.00012589,-0.00010129,0.00186792,0.00104034,0.0005168
 8,-0.00101586,0.00061938,0.00059551,0.17604133,0.13645121,-0.00036303,
 -0.00315925,0.00062709,0.00012536,-0.00003552,0.00069779,-0.00270623,0
 .00087322,-0.00528611,0.00039248,-0.00000935,0.00051828,0.00032932,-0.
 00019555,-0.00012299,0.02213172,0.01016619,0.01012180,-0.14086532,-0.1
 0690898,-0.08880984,0.00028168,-0.00042494,-0.00068133,-0.00030804,0.0
 0032773,0.00014520,0.00005490,0.00021094,0.00016115,-0.00113724,0.0002
 7605,-0.00096702,-0.00001944,0.00003195,0.00007270,-0.00038666,-0.0001
 5856,0.00009642,-0.00008790,-0.00001599,0.00015182,-0.00002385,-0.0000
 1943,0.00003544,-0.00011241,-0.00006621,0.00008593,0.00098592,-0.00014
 969,-0.00009783,0.00281107,0.00009468,-0.00230541,0.11889767,0.0991627
 0,0.08555693\\0.00000089,-0.00000299,-0.00000004,0.00000252,-0.0000018
 0,-0.00000171,-0.00000166,-0.00000056,-0.00000061,0.00000145,0.0000022
 9,-0.00000036,0.00000003,0.00000275,-0.00000178,0.00000110,-0.00000158
 ,0.00000065,-0.00000188,-0.00000193,0.00000177,-0.00000068,0.00000070,
 0.00000130,-0.00000223,-0.00000169,0.00000258,-0.00000427,0.00000068,0
 .00000356,-0.00000032,-0.00000550,0.00000075,0.00000288,-0.00000133,-0
 .00000226,0.00000193,-0.00000181,-0.00000130,-0.00000092,0.00000455,0.
 00000008,0.00000168,0.00000338,-0.00000192,0.00000076,0.00000423,-0.00
 000206,0.00000040,0.00000144,-0.00000087,-0.00000166,0.00000190,0.0000
 0137,-0.00000001,-0.00000275,0.00000085\\\@


 ALL SCIENCE IS EITHER PHYSICS, OR STAMP COLLECTING.
   --ERNEST RUTHERFORD, 1871-1937.
 Job cpu time:       0 days  0 hours 14 minutes  8.3 seconds.
 Elapsed time:       0 days  0 hours  3 minutes 33.5 seconds.
 File lengths (MBytes):  RWF=    125 Int=      0 D2E=      0 Chk=      4 Scr=      1
 Normal termination of Gaussian 16 at Mon Jul 10 20:24:59 2023.
real 3980.72
user 14638.53
sys 39.65
