 Entering Gaussian System, Link 0=g16
 Input=gaussian_test.inp
 Output=gaussian_test.log
 Initial command:
 /sw/restricted/lms/sw/Gaussian/g16_B01/g16/l1.exe "/scratch/user/peterchao1/peterchao1/6113328_1660079103000000872597283/Gau-200222.inp" -scrdir="/scratch/user/peterchao1/peterchao1/6113328_1660079103000000872597283/"
 Entering Link 1 = /sw/restricted/lms/sw/Gaussian/g16_B01/g16/l1.exe PID=    200224.
  
 Copyright (c) 1988-2017, Gaussian, Inc.  All Rights Reserved.
  
 This is part of the Gaussian(R) 16 program.  It is based on
 the Gaussian(R) 09 system (copyright 2009, Gaussian, Inc.),
 the Gaussian(R) 03 system (copyright 2003, Gaussian, Inc.),
 the Gaussian(R) 98 system (copyright 1998, Gaussian, Inc.),
 the Gaussian(R) 94 system (copyright 1995, Gaussian, Inc.),
 the Gaussian 92(TM) system (copyright 1992, Gaussian, Inc.),
 the Gaussian 90(TM) system (copyright 1990, Gaussian, Inc.),
 the Gaussian 88(TM) system (copyright 1988, Gaussian, Inc.),
 the Gaussian 86(TM) system (copyright 1986, Carnegie Mellon
 University), and the Gaussian 82(TM) system (copyright 1983,
 Carnegie Mellon University). Gaussian is a federally registered
 trademark of Gaussian, Inc.
  
 This software contains proprietary and confidential information,
 including trade secrets, belonging to Gaussian, Inc.
  
 This software is provided under written license and may be
 used, copied, transmitted, or stored only in accord with that
 written license.
  
 The following legend is applicable only to US Government
 contracts under FAR:
  
                    RESTRICTED RIGHTS LEGEND
  
 Use, reproduction and disclosure by the US Government is
 subject to restrictions as set forth in subparagraphs (a)
 and (c) of the Commercial Computer Software - Restricted
 Rights clause in FAR 52.227-19.
  
 Gaussian, Inc.
 340 Quinnipiac St., Bldg. 40, Wallingford CT 06492
  
  
 ---------------------------------------------------------------
 Warning -- This program may not be used in any manner that
 competes with the business of Gaussian, Inc. or will provide
 assistance to any competitor of Gaussian, Inc.  The licensee
 of this program is prohibited from giving any competitor of
 Gaussian, Inc. access to this program.  By using this program,
 the user acknowledges that Gaussian, Inc. is engaged in the
 business of creating and licensing software in the field of
 computational chemistry and represents and warrants to the
 licensee that it is not a competitor of Gaussian, Inc. and that
 it will not use this program in any manner prohibited above.
 ---------------------------------------------------------------
  

 Cite this work as:
 Gaussian 16, Revision B.01,
 M. J. Frisch, G. W. Trucks, H. B. Schlegel, G. E. Scuseria, 
 M. A. Robb, J. R. Cheeseman, G. Scalmani, V. Barone, 
 G. A. Petersson, H. Nakatsuji, X. Li, M. Caricato, A. V. Marenich, 
 J. Bloino, B. G. Janesko, R. Gomperts, B. Mennucci, H. P. Hratchian, 
 J. V. Ortiz, A. F. Izmaylov, J. L. Sonnenberg, D. Williams-Young, 
 F. Ding, F. Lipparini, F. Egidi, J. Goings, B. Peng, A. Petrone, 
 T. Henderson, D. Ranasinghe, V. G. Zakrzewski, J. Gao, N. Rega, 
 G. Zheng, W. Liang, M. Hada, M. Ehara, K. Toyota, R. Fukuda, 
 J. Hasegawa, M. Ishida, T. Nakajima, Y. Honda, O. Kitao, H. Nakai, 
 T. Vreven, K. Throssell, J. A. Montgomery, Jr., J. E. Peralta, 
 F. Ogliaro, M. J. Bearpark, J. J. Heyd, E. N. Brothers, K. N. Kudin, 
 V. N. Staroverov, T. A. Keith, R. Kobayashi, J. Normand, 
 K. Raghavachari, A. P. Rendell, J. C. Burant, S. S. Iyengar, 
 J. Tomasi, M. Cossi, J. M. Millam, M. Klene, C. Adamo, R. Cammi, 
 J. W. Ochterski, R. L. Martin, K. Morokuma, O. Farkas, 
 J. B. Foresman, and D. J. Fox, Gaussian, Inc., Wallingford CT, 2016.
 
 ******************************************
 Gaussian 16:  ES64L-G16RevB.01 20-Dec-2017
                 9-Aug-2022 
 ******************************************
 %nprocshared=4
 Will use up to    4 processors via shared memory.
 %mem=8000mb
 ----------------------------------------------------------------------
 #T wB97XD/def2svpp opt=tight freq int(grid=ultrafine) scf=(verytight,q
 c)
 ----------------------------------------------------------------------
 -----
 dimer
 -----
 Symbolic Z-matrix:
 Charge =  0 Multiplicity = 1
 O                     3.98347  -0.9414    1.46959 
 C                     3.48283   0.32444   1.12438 
 C                     2.65526   0.33185  -0.17462 
 C                     2.23775   1.78296  -0.54395 
 O                     1.8416    2.53265   0.55586 
 C                     3.43086  -0.30623  -1.35702 
 O                     3.71319  -1.65333  -1.15556 
 N                     1.44039  -0.47962   0.00045 
 O                     0.6464   -0.49846  -0.91988 
 O                     1.28645  -1.09775   1.02713 
 H                     3.24627  -1.47487   1.80106 
 H                     4.35021   0.9715    0.9741 
 H                     2.87768   0.74799   1.93377 
 H                     1.45914   1.73404  -1.31672 
 H                     3.1127    2.2863   -0.9636 
 H                     0.9354    2.28515   0.81426 
 H                     4.34673   0.28163  -1.50802 
 H                     2.819    -0.24699  -2.26222 
 H                     4.23176  -1.73795  -0.33694 
 O                    -3.26305  -1.73187   1.29449 
 C                    -2.30798  -0.7071    1.24031 
 C                    -2.50268   0.16586  -0.01789 
 C                    -2.55085  -0.70295  -1.30579 
 O                    -1.82325  -1.88726  -1.1891 
 C                    -3.82872   0.97281   0.09206 
 O                    -4.93857   0.1403    0.07306 
 N                    -1.42192   1.14703  -0.12005 
 O                    -1.33952   1.80173  -1.13016 
 O                    -0.67307   1.27938   0.83332 
 H                    -3.05064  -2.36385   0.59201 
 H                    -1.28996  -1.11294   1.26059 
 H                    -2.44529  -0.09924   2.13889 
 H                    -2.21202  -0.08844  -2.14835 
 H                    -3.59246  -0.99074  -1.47707 
 H                    -0.87556  -1.679    -1.22846 
 H                    -3.91746   1.64324  -0.76858 
 H                    -3.79356   1.57489   1.01365 
 H                    -4.81478  -0.55327   0.74411 
 
 Add virtual bond connecting atoms O29        and H16        Dist= 3.59D+00.
 Add virtual bond connecting atoms H35        and O9         Dist= 3.69D+00.

 GradGradGradGradGradGradGradGradGradGradGradGradGradGradGradGradGradGrad
 Initialization pass.
                           ----------------------------
                           !    Initial Parameters    !
                           ! (Angstroms and Degrees)  !
 --------------------------                            --------------------------
 ! Name  Definition              Value          Derivative Info.                !
 --------------------------------------------------------------------------------
 ! R1    R(1,2)                  1.4043         estimate D2E/DX2                !
 ! R2    R(1,11)                 0.9685         estimate D2E/DX2                !
 ! R3    R(2,3)                  1.5402         estimate D2E/DX2                !
 ! R4    R(2,12)                 1.0925         estimate D2E/DX2                !
 ! R5    R(2,13)                 1.0958         estimate D2E/DX2                !
 ! R6    R(3,4)                  1.5545         estimate D2E/DX2                !
 ! R7    R(3,6)                  1.5514         estimate D2E/DX2                !
 ! R8    R(3,8)                  1.4714         estimate D2E/DX2                !
 ! R9    R(4,5)                  1.3887         estimate D2E/DX2                !
 ! R10   R(4,14)                 1.0981         estimate D2E/DX2                !
 ! R11   R(4,15)                 1.0932         estimate D2E/DX2                !
 ! R12   R(5,16)                 0.9743         estimate D2E/DX2                !
 ! R13   R(6,7)                  1.391          estimate D2E/DX2                !
 ! R14   R(6,17)                 1.0987         estimate D2E/DX2                !
 ! R15   R(6,18)                 1.0942         estimate D2E/DX2                !
 ! R16   R(7,19)                 0.9727         estimate D2E/DX2                !
 ! R17   R(8,9)                  1.2156         estimate D2E/DX2                !
 ! R18   R(8,10)                 1.2082         estimate D2E/DX2                !
 ! R19   R(9,35)                 1.9507         estimate D2E/DX2                !
 ! R20   R(16,29)                1.8971         estimate D2E/DX2                !
 ! R21   R(20,21)                1.4019         estimate D2E/DX2                !
 ! R22   R(20,30)                0.9685         estimate D2E/DX2                !
 ! R23   R(21,22)                1.5437         estimate D2E/DX2                !
 ! R24   R(21,31)                1.0961         estimate D2E/DX2                !
 ! R25   R(21,32)                1.0935         estimate D2E/DX2                !
 ! R26   R(22,23)                1.5543         estimate D2E/DX2                !
 ! R27   R(22,25)                1.5562         estimate D2E/DX2                !
 ! R28   R(22,27)                1.4633         estimate D2E/DX2                !
 ! R29   R(23,24)                1.3948         estimate D2E/DX2                !
 ! R30   R(23,33)                1.0965         estimate D2E/DX2                !
 ! R31   R(23,34)                1.0941         estimate D2E/DX2                !
 ! R32   R(24,35)                0.9711         estimate D2E/DX2                !
 ! R33   R(25,26)                1.3875         estimate D2E/DX2                !
 ! R34   R(25,36)                1.0945         estimate D2E/DX2                !
 ! R35   R(25,37)                1.1014         estimate D2E/DX2                !
 ! R36   R(26,38)                0.973          estimate D2E/DX2                !
 ! R37   R(27,28)                1.2065         estimate D2E/DX2                !
 ! R38   R(27,29)                1.2195         estimate D2E/DX2                !
 ! A1    A(2,1,11)             108.0157         estimate D2E/DX2                !
 ! A2    A(1,2,3)              113.7789         estimate D2E/DX2                !
 ! A3    A(1,2,12)             106.5369         estimate D2E/DX2                !
 ! A4    A(1,2,13)             111.3286         estimate D2E/DX2                !
 ! A5    A(3,2,12)             107.9215         estimate D2E/DX2                !
 ! A6    A(3,2,13)             108.9275         estimate D2E/DX2                !
 ! A7    A(12,2,13)            108.1266         estimate D2E/DX2                !
 ! A8    A(2,3,4)              110.4373         estimate D2E/DX2                !
 ! A9    A(2,3,6)              111.8505         estimate D2E/DX2                !
 ! A10   A(2,3,8)              109.9145         estimate D2E/DX2                !
 ! A11   A(4,3,6)              109.7029         estimate D2E/DX2                !
 ! A12   A(4,3,8)              108.7438         estimate D2E/DX2                !
 ! A13   A(6,3,8)              106.0591         estimate D2E/DX2                !
 ! A14   A(3,4,5)              113.1034         estimate D2E/DX2                !
 ! A15   A(3,4,14)             108.4242         estimate D2E/DX2                !
 ! A16   A(3,4,15)             107.822          estimate D2E/DX2                !
 ! A17   A(5,4,14)             112.279          estimate D2E/DX2                !
 ! A18   A(5,4,15)             106.4856         estimate D2E/DX2                !
 ! A19   A(14,4,15)            108.5351         estimate D2E/DX2                !
 ! A20   A(4,5,16)             109.7694         estimate D2E/DX2                !
 ! A21   A(3,6,7)              112.9172         estimate D2E/DX2                !
 ! A22   A(3,6,17)             107.5431         estimate D2E/DX2                !
 ! A23   A(3,6,18)             109.189          estimate D2E/DX2                !
 ! A24   A(7,6,17)             111.6453         estimate D2E/DX2                !
 ! A25   A(7,6,18)             106.6029         estimate D2E/DX2                !
 ! A26   A(17,6,18)            108.8723         estimate D2E/DX2                !
 ! A27   A(6,7,19)             108.3204         estimate D2E/DX2                !
 ! A28   A(3,8,9)              117.241          estimate D2E/DX2                !
 ! A29   A(3,8,10)             119.2384         estimate D2E/DX2                !
 ! A30   A(9,8,10)             123.5154         estimate D2E/DX2                !
 ! A31   A(8,9,35)             129.697          estimate D2E/DX2                !
 ! A32   A(5,16,29)            157.8099         estimate D2E/DX2                !
 ! A33   A(21,20,30)           107.4307         estimate D2E/DX2                !
 ! A34   A(20,21,22)           111.0357         estimate D2E/DX2                !
 ! A35   A(20,21,31)           111.1842         estimate D2E/DX2                !
 ! A36   A(20,21,32)           106.8006         estimate D2E/DX2                !
 ! A37   A(22,21,31)           109.974          estimate D2E/DX2                !
 ! A38   A(22,21,32)           109.8505         estimate D2E/DX2                !
 ! A39   A(31,21,32)           107.8925         estimate D2E/DX2                !
 ! A40   A(21,22,23)           111.2946         estimate D2E/DX2                !
 ! A41   A(21,22,25)           110.0677         estimate D2E/DX2                !
 ! A42   A(21,22,27)           110.0555         estimate D2E/DX2                !
 ! A43   A(23,22,25)           108.7835         estimate D2E/DX2                !
 ! A44   A(23,22,27)           109.8675         estimate D2E/DX2                !
 ! A45   A(25,22,27)           106.6544         estimate D2E/DX2                !
 ! A46   A(22,23,24)           112.8997         estimate D2E/DX2                !
 ! A47   A(22,23,33)           108.2918         estimate D2E/DX2                !
 ! A48   A(22,23,34)           107.8327         estimate D2E/DX2                !
 ! A49   A(24,23,33)           112.2677         estimate D2E/DX2                !
 ! A50   A(24,23,34)           106.6405         estimate D2E/DX2                !
 ! A51   A(33,23,34)           108.7412         estimate D2E/DX2                !
 ! A52   A(23,24,35)           108.8799         estimate D2E/DX2                !
 ! A53   A(22,25,26)           111.6846         estimate D2E/DX2                !
 ! A54   A(22,25,36)           109.3387         estimate D2E/DX2                !
 ! A55   A(22,25,37)           108.3838         estimate D2E/DX2                !
 ! A56   A(26,25,36)           106.9712         estimate D2E/DX2                !
 ! A57   A(26,25,37)           111.4066         estimate D2E/DX2                !
 ! A58   A(36,25,37)           109.0076         estimate D2E/DX2                !
 ! A59   A(25,26,38)           108.4504         estimate D2E/DX2                !
 ! A60   A(22,27,28)           118.2121         estimate D2E/DX2                !
 ! A61   A(22,27,29)           118.1465         estimate D2E/DX2                !
 ! A62   A(28,27,29)           123.6186         estimate D2E/DX2                !
 ! A63   A(16,29,27)           124.7718         estimate D2E/DX2                !
 ! A64   A(9,35,24)            152.2237         estimate D2E/DX2                !
 ! D1    D(11,1,2,3)           -73.8273         estimate D2E/DX2                !
 ! D2    D(11,1,2,12)          167.3832         estimate D2E/DX2                !
 ! D3    D(11,1,2,13)           49.7159         estimate D2E/DX2                !
 ! D4    D(1,2,3,4)           -175.44           estimate D2E/DX2                !
 ! D5    D(1,2,3,6)            -52.9559         estimate D2E/DX2                !
 ! D6    D(1,2,3,8)             64.5778         estimate D2E/DX2                !
 ! D7    D(12,2,3,4)           -57.4449         estimate D2E/DX2                !
 ! D8    D(12,2,3,6)            65.0392         estimate D2E/DX2                !
 ! D9    D(12,2,3,8)          -177.4272         estimate D2E/DX2                !
 ! D10   D(13,2,3,4)            59.7213         estimate D2E/DX2                !
 ! D11   D(13,2,3,6)          -177.7946         estimate D2E/DX2                !
 ! D12   D(13,2,3,8)           -60.2609         estimate D2E/DX2                !
 ! D13   D(2,3,4,5)            -41.1436         estimate D2E/DX2                !
 ! D14   D(2,3,4,14)          -166.3523         estimate D2E/DX2                !
 ! D15   D(2,3,4,15)            76.3222         estimate D2E/DX2                !
 ! D16   D(6,3,4,5)           -164.8772         estimate D2E/DX2                !
 ! D17   D(6,3,4,14)            69.914          estimate D2E/DX2                !
 ! D18   D(6,3,4,15)           -47.4114         estimate D2E/DX2                !
 ! D19   D(8,3,4,5)             79.5405         estimate D2E/DX2                !
 ! D20   D(8,3,4,14)           -45.6682         estimate D2E/DX2                !
 ! D21   D(8,3,4,15)          -162.9937         estimate D2E/DX2                !
 ! D22   D(2,3,6,7)             63.5496         estimate D2E/DX2                !
 ! D23   D(2,3,6,17)           -60.0682         estimate D2E/DX2                !
 ! D24   D(2,3,6,18)          -178.0515         estimate D2E/DX2                !
 ! D25   D(4,3,6,7)           -173.5482         estimate D2E/DX2                !
 ! D26   D(4,3,6,17)            62.8339         estimate D2E/DX2                !
 ! D27   D(4,3,6,18)           -55.1494         estimate D2E/DX2                !
 ! D28   D(8,3,6,7)            -56.2729         estimate D2E/DX2                !
 ! D29   D(8,3,6,17)          -179.8908         estimate D2E/DX2                !
 ! D30   D(8,3,6,18)            62.1259         estimate D2E/DX2                !
 ! D31   D(2,3,8,9)            175.5895         estimate D2E/DX2                !
 ! D32   D(2,3,8,10)            -5.216          estimate D2E/DX2                !
 ! D33   D(4,3,8,9)             54.5837         estimate D2E/DX2                !
 ! D34   D(4,3,8,10)          -126.2218         estimate D2E/DX2                !
 ! D35   D(6,3,8,9)            -63.3315         estimate D2E/DX2                !
 ! D36   D(6,3,8,10)           115.863          estimate D2E/DX2                !
 ! D37   D(3,4,5,16)           -77.7907         estimate D2E/DX2                !
 ! D38   D(14,4,5,16)           45.3099         estimate D2E/DX2                !
 ! D39   D(15,4,5,16)          163.9629         estimate D2E/DX2                !
 ! D40   D(4,5,16,29)           10.4101         estimate D2E/DX2                !
 ! D41   D(3,6,7,19)           -58.1431         estimate D2E/DX2                !
 ! D42   D(17,6,7,19)           63.1794         estimate D2E/DX2                !
 ! D43   D(18,6,7,19)         -178.0395         estimate D2E/DX2                !
 ! D44   D(3,8,9,35)           167.0699         estimate D2E/DX2                !
 ! D45   D(10,8,9,35)          -12.0871         estimate D2E/DX2                !
 ! D46   D(8,9,35,24)           97.1947         estimate D2E/DX2                !
 ! D47   D(5,16,29,27)         -63.8585         estimate D2E/DX2                !
 ! D48   D(30,20,21,22)         70.1728         estimate D2E/DX2                !
 ! D49   D(30,20,21,31)        -52.6167         estimate D2E/DX2                !
 ! D50   D(30,20,21,32)       -170.0816         estimate D2E/DX2                !
 ! D51   D(20,21,22,23)        -52.6111         estimate D2E/DX2                !
 ! D52   D(20,21,22,25)         68.0737         estimate D2E/DX2                !
 ! D53   D(20,21,22,27)       -174.6564         estimate D2E/DX2                !
 ! D54   D(31,21,22,23)         70.8745         estimate D2E/DX2                !
 ! D55   D(31,21,22,25)       -168.4407         estimate D2E/DX2                !
 ! D56   D(31,21,22,27)        -51.1708         estimate D2E/DX2                !
 ! D57   D(32,21,22,23)       -170.5209         estimate D2E/DX2                !
 ! D58   D(32,21,22,25)        -49.8362         estimate D2E/DX2                !
 ! D59   D(32,21,22,27)         67.4337         estimate D2E/DX2                !
 ! D60   D(21,22,23,24)        -28.339          estimate D2E/DX2                !
 ! D61   D(21,22,23,33)       -153.2902         estimate D2E/DX2                !
 ! D62   D(21,22,23,34)         89.2058         estimate D2E/DX2                !
 ! D63   D(25,22,23,24)       -149.7757         estimate D2E/DX2                !
 ! D64   D(25,22,23,33)         85.2731         estimate D2E/DX2                !
 ! D65   D(25,22,23,34)        -32.2308         estimate D2E/DX2                !
 ! D66   D(27,22,23,24)         93.8152         estimate D2E/DX2                !
 ! D67   D(27,22,23,33)        -31.136          estimate D2E/DX2                !
 ! D68   D(27,22,23,34)       -148.64           estimate D2E/DX2                !
 ! D69   D(21,22,25,26)        -66.0696         estimate D2E/DX2                !
 ! D70   D(21,22,25,36)        175.7366         estimate D2E/DX2                !
 ! D71   D(21,22,25,37)         57.0272         estimate D2E/DX2                !
 ! D72   D(23,22,25,26)         56.1138         estimate D2E/DX2                !
 ! D73   D(23,22,25,36)        -62.08           estimate D2E/DX2                !
 ! D74   D(23,22,25,37)        179.2106         estimate D2E/DX2                !
 ! D75   D(27,22,25,26)        174.566          estimate D2E/DX2                !
 ! D76   D(27,22,25,36)         56.3722         estimate D2E/DX2                !
 ! D77   D(27,22,25,37)        -62.3373         estimate D2E/DX2                !
 ! D78   D(21,22,27,28)        171.4076         estimate D2E/DX2                !
 ! D79   D(21,22,27,29)        -10.263          estimate D2E/DX2                !
 ! D80   D(23,22,27,28)         48.52           estimate D2E/DX2                !
 ! D81   D(23,22,27,29)       -133.1505         estimate D2E/DX2                !
 ! D82   D(25,22,27,28)        -69.22           estimate D2E/DX2                !
 ! D83   D(25,22,27,29)        109.1094         estimate D2E/DX2                !
 ! D84   D(22,23,24,35)        -73.8501         estimate D2E/DX2                !
 ! D85   D(33,23,24,35)         48.9105         estimate D2E/DX2                !
 ! D86   D(34,23,24,35)        167.9064         estimate D2E/DX2                !
 ! D87   D(23,24,35,9)          30.5034         estimate D2E/DX2                !
 ! D88   D(22,25,26,38)         51.7036         estimate D2E/DX2                !
 ! D89   D(36,25,26,38)        171.304          estimate D2E/DX2                !
 ! D90   D(37,25,26,38)        -69.6578         estimate D2E/DX2                !
 ! D91   D(22,27,29,16)        170.0341         estimate D2E/DX2                !
 ! D92   D(28,27,29,16)        -11.7337         estimate D2E/DX2                !
 --------------------------------------------------------------------------------
 Number of steps in this run=    204 maximum allowed number of steps=    228.
 GradGradGradGradGradGradGradGradGradGradGradGradGradGradGradGradGradGrad

                    Distance matrix (angstroms):
                    1          2          3          4          5
     1  O    0.000000
     2  C    1.404336   0.000000
     3  C    2.467545   1.540237   0.000000
     4  C    3.811043   2.541818   1.554486   0.000000
     5  O    4.182287   2.809453   2.457463   1.388721   0.000000
     6  C    2.949332   2.560815   1.551378   2.539548   3.774130
     7  O    2.733372   3.027001   2.454059   3.789335   4.894299
     8  N    2.973022   2.466020   1.471406   2.459966   3.089209
     9  O    4.128172   3.591860   2.297896   2.806885   3.576862
    10  O    2.737546   2.618426   2.315517   3.416399   3.702714
    11  H    0.968466   1.936841   2.741691   4.138798   4.425359
    12  H    2.009777   1.092533   2.145128   2.724963   2.984158
    13  H    2.071783   1.095775   2.160549   2.760398   2.481351
    14  H    4.614515   3.470049   2.168224   1.098088   2.071377
    15  H    4.134815   2.888865   2.156754   1.093155   1.996277
    16  H    4.486740   3.229545   2.784090   1.947575   0.974285
    17  H    3.239436   2.770864   2.154428   2.762466   3.949979
    18  H    3.970469   3.498033   2.172541   2.722314   4.077162
    19  H    1.989897   2.636246   2.606879   4.051639   4.974734
    20  O    7.291610   7.054372   6.437669   6.781790   6.692468
    21  C    6.299985   5.883103   5.264516   5.481569   5.308804
    22  C    6.746021   6.095587   5.162984   5.036208   4.980321
    23  C    7.103303   6.585320   5.427141   5.448926   5.764410
    24  O    6.456109   6.196631   5.100064   5.511664   6.000964
    25  C    8.160400   7.412473   6.521031   6.153279   5.899210
    26  O    9.095234   8.488766   7.600281   7.387735   7.206052
    27  N    6.008890   5.126577   4.158226   3.738618   3.609341
    28  O    6.528221   5.524520   4.362544   3.625027   3.673746
    29  O    5.198083   4.274118   3.604368   3.259341   2.823334
    30  H    7.229956   7.084947   6.357025   6.815677   6.921774
    31  H    5.280364   4.986393   4.439821   4.907885   4.857325
    32  H    6.518142   6.029202   5.617270   5.715867   5.273538
    33  H    7.225037   6.581221   5.269024   5.086910   5.533051
    34  H    8.128962   7.652249   6.517637   6.523456   6.787936
    35  H    5.606583   5.342768   4.197715   4.706003   5.320223
    36  H    8.608975   7.751562   6.728526   6.160887   5.975946
    37  H    8.186685   7.383878   6.674154   6.232661   5.734271
    38  H    8.836638   8.352556   7.578186   7.540238   7.339323
                    6          7          8          9         10
     6  C    0.000000
     7  O    1.391031   0.000000
     8  N    2.415520   2.807050   0.000000
     9  O    2.825105   3.285483   1.215643   0.000000
    10  O    3.302904   3.310870   1.208245   2.135338   0.000000
    11  H    3.372426   2.998577   2.737499   3.887956   2.140581
    12  H    2.812815   3.439620   3.394226   4.412043   3.697465
    13  H    3.499530   4.001048   2.703803   3.830872   2.600149
    14  H    2.837602   4.071970   2.575960   2.408749   3.680011
    15  H    2.641442   3.989749   3.372879   3.720137   4.330126
    16  H    4.202025   5.206524   2.925964   3.292304   3.407723
    17  H    1.098730   2.066321   3.361814   3.827123   4.206546
    18  H    1.094197   2.000513   2.659765   2.566178   3.727242
    19  H    1.931799   0.972742   3.080416   3.838092   3.308385
    20  O    7.339709   7.394374   5.036371   4.659245   4.601251
    21  C    6.311976   6.549043   3.954653   3.665835   3.621872
    22  C    6.101065   6.575769   3.995599   3.342403   4.128715
    23  C    5.995063   6.337497   4.205488   3.226941   4.508127
    24  O    5.489400   5.541480   3.748046   2.846125   3.899389
    25  C    7.512469   8.082912   5.466397   4.818237   5.597012
    26  O    8.502462   8.920735   6.409430   5.708408   6.418249
    27  N    5.214547   5.939999   3.294444   2.761405   3.700045
    28  O    5.220289   6.121099   3.769714   3.046143   4.467279
    29  O    4.914663   5.638759   2.873058   2.824081   3.086749
    30  H    7.074058   7.021978   4.906080   4.408356   4.539016
    31  H    5.457913   5.582233   3.073092   2.980196   2.587013
    32  H    6.840564   7.155097   4.451533   4.367384   4.019815
    33  H    5.702253   6.208266   4.255642   3.138127   4.831322
    34  H    7.057619   7.342676   5.270099   4.303578   5.485092
    35  H    4.521759   4.589401   2.883122   1.950713   3.178023
    36  H    7.625247   8.321286   5.814164   5.043671   6.149654
    37  H    7.832680   8.454472   5.713306   5.267888   5.740182
    38  H    8.512712   8.805966   6.299652   5.709325   6.132008
                   11         12         13         14         15
    11  H    0.000000
    12  H    2.808428   0.000000
    13  H    2.257116   1.771800   0.000000
    14  H    4.817827   3.766642   3.681065   0.000000
    15  H    4.669856   2.648545   3.288828   1.778750   0.000000
    16  H    4.522349   3.662259   2.718202   2.262541   2.810945
    17  H    3.904655   2.576210   3.771148   3.237941   2.416179
    18  H    4.266203   3.781943   4.312747   2.582180   2.861858
    19  H    2.368848   3.012308   3.628992   4.549959   4.223696
    20  O    6.534058   8.085329   6.653338   6.413264   7.867324
    21  C    5.635032   6.871679   5.430393   5.166108   6.572772
    22  C    6.249081   6.971021   5.752919   4.454448   6.076434
    23  C    6.622306   7.458299   6.486052   4.692440   6.413146
    24  O    5.900101   7.138875   6.228611   4.889184   6.467845
    25  C    7.679018   8.226348   6.958318   5.524989   7.143030
    26  O    8.519767   9.369323   8.057625   6.738113   8.396602
    27  N    5.688323   5.877534   4.781626   3.174441   4.751026
    28  O    6.352762   6.122919   5.318155   2.805683   4.481604
    29  O    4.887087   5.034668   3.755152   3.061969   4.309849
    30  H    6.473268   8.126690   6.828529   6.385448   7.875943
    31  H    4.582635   6.019841   4.613615   4.722851   5.990428
    32  H    5.865182   6.977247   5.393869   5.526902   6.797603
    33  H    6.878442   7.344112   6.577868   4.182154   5.949422
    34  H    7.599262   8.540762   7.517959   5.741844   7.480762
    35  H    5.119490   6.259803   5.475109   4.136117   5.630276
    36  H    8.224636   8.475991   7.367363   5.405225   7.062197
    37  H    7.712344   8.166182   6.784966   5.748630   7.218861
    38  H    8.182115   9.293802   7.891921   6.988618   8.592105
                   16         17         18         19         20
    16  H    0.000000
    17  H    4.587401   0.000000
    18  H    4.407311   1.783878   0.000000
    19  H    5.326971   2.337388   2.815242   0.000000
    20  O    5.830438   8.355657   7.200441   7.670319   0.000000
    21  C    4.433341   7.267465   6.226179   6.805775   1.401879
    22  C    4.123613   7.010585   5.790313   7.005642   2.429383
    23  C    5.057395   6.970427   5.473379   6.929190   2.885717
    24  O    5.388185   6.547861   5.039103   6.116510   2.874955
    25  C    4.994053   8.359182   7.157000   8.514907   3.013496
    26  O    6.297085   9.420012   8.110698   9.369684   2.793617
    27  N    2.779420   5.996056   4.951521   6.350928   3.698481
    28  O    3.031450   5.898040   4.772007   6.648135   4.697362
    29  O    1.897127   5.628118   4.909852   5.876319   3.998539
    30  H    6.127888   8.132022   6.861513   7.368045   0.968498
    31  H    4.086368   6.432912   5.481207   5.782060   2.068162
    32  H    4.343841   7.718584   6.863258   7.307403   2.011777
    33  H    4.931245   6.600316   5.034803   6.893798   3.957105
    34  H    6.040125   8.040564   6.502035   7.942086   2.887787
    35  H    4.813187   5.585214   4.095013   5.184889   3.473922
    36  H    5.144668   8.408182   7.154281   8.833376   4.009473
    37  H    4.786148   8.619492   7.601085   8.786627   3.360806
    38  H    6.412957   9.471134   8.210138   9.187603   2.024817
                   21         22         23         24         25
    21  C    0.000000
    22  C    1.543709   0.000000
    23  C    2.557663   1.554304   0.000000
    24  O    2.744043   2.459403   1.394840   0.000000
    25  C    2.540324   1.556160   2.528860   3.720652   0.000000
    26  O    3.000099   2.437725   2.883320   3.925458   1.387526
    27  N    2.464441   1.463272   2.470405   3.242041   2.422399
    28  O    3.584862   2.294806   2.787756   3.721030   2.894308
    29  O    2.604737   2.304763   3.468640   3.929460   3.256006
    30  H    1.927866   2.659260   2.570989   2.214939   3.462463
    31  H    1.096114   2.177272   2.888636   2.623919   3.487275
    32  H    1.093522   2.173766   3.498777   3.828766   2.693082
    33  H    3.446008   2.165183   1.096512   2.075343   2.959626
    34  H    3.019024   2.157445   1.094131   2.004188   2.524581
    35  H    3.015167   2.741628   1.940418   0.971098   4.182943
    36  H    3.485706   2.178936   2.767821   4.126367   1.094548
    37  H    2.732362   2.171591   3.480337   4.551999   1.101398
    38  H    2.560064   2.538424   3.057760   3.803426   1.930394
                   26         27         28         29         30
    26  O    0.000000
    27  N    3.663012   0.000000
    28  O    4.142617   1.206539   0.000000
    29  O    4.479960   1.219508   2.138279   0.000000
    30  H    3.178729   3.935226   4.821388   4.357081   0.000000
    31  H    4.036480   2.651607   3.770065   2.507246   2.260921
    32  H    3.246768   2.775476   3.939932   2.597281   2.808514
    33  H    3.524352   2.502926   2.317475   3.623481   3.659278
    34  H    2.343958   3.335089   3.604715   4.360524   2.541663
    35  H    4.638085   3.084403   3.512891   3.611639   2.917885
    36  H    2.002464   2.625742   2.607993   3.636555   4.319638
    37  H    2.062487   2.663271   3.266449   3.139635   4.030307
    38  H    0.972971   3.892207   4.597425   4.529935   2.532489
                   31         32         33         34         35
    31  H    0.000000
    32  H    1.770246   0.000000
    33  H    3.677044   4.293593   0.000000
    34  H    3.579273   3.896913   1.780559   0.000000
    35  H    2.586024   4.037168   2.272051   2.813725   0.000000
    36  H    4.314827   3.695521   2.794811   2.746890   4.527900
    37  H    3.681491   2.426251   3.907197   3.581425   4.912188
    38  H    3.606145   2.786759   3.918768   2.572756   4.547055
                   36         37         38
    36  H    0.000000
    37  H    1.787842   0.000000
    38  H    2.813904   2.375841   0.000000
 Framework group  C1[X(C8H18N2O10)]
 Deg. of freedom   108
                         Standard orientation:                         
 ---------------------------------------------------------------------
 Center     Atomic      Atomic             Coordinates (Angstroms)
 Number     Number       Type             X           Y           Z
 ---------------------------------------------------------------------
      1          8           0       -3.970572   -0.978109   -1.473477
      2          6           0       -3.477769    0.293033   -1.136572
      3          6           0       -2.653146    0.314706    0.164142
      4          6           0       -2.244569    1.770823    0.523605
      5          8           0       -1.850165    2.514548   -0.580870
      6          6           0       -3.427803   -0.318935    1.349544
      7          8           0       -3.702158   -1.669047    1.157469
      8          7           0       -1.433386   -0.491232   -0.002252
      9          8           0       -0.641355   -0.498810    0.919929
     10          8           0       -1.273708   -1.116079   -1.023978
     11          1           0       -3.229668   -1.509883   -1.799367
     12          1           0       -4.349080    0.936329   -0.992995
     13          1           0       -2.873194    0.713960   -1.947764
     14          1           0       -1.467418    1.731983    1.298412
     15          1           0       -3.123245    2.272350    0.937592
     16          1           0       -0.942021    2.270219   -0.835446
     17          1           0       -4.347277    0.264895    1.494179
     18          1           0       -2.818300   -0.249565    2.255614
     19          1           0       -4.218432   -1.762635    0.338366
     20          8           0        3.279842   -1.726678   -1.276687
     21          6           0        2.318946   -0.706893   -1.232201
     22          6           0        2.505971    0.176441    0.019909
     23          6           0        2.556120   -0.682531    1.314325
     24          8           0        1.835412   -1.871720    1.204835
     25          6           0        3.827725    0.989966   -0.093122
     26          8           0        4.942166    0.163838   -0.065522
     27          7           0        1.419526    1.152270    0.112427
     28          8           0        1.331223    1.813958    1.117469
     29          8           0        0.672071    1.273357   -0.843526
     30          1           0        3.069403   -2.354609   -0.570001
     31          1           0        1.303263   -1.118563   -1.251692
     32          1           0        2.454862   -0.104945   -2.134962
     33          1           0        2.211995   -0.063697    2.151559
     34          1           0        3.598944   -0.963204    1.490007
     35          1           0        0.886490   -1.668492    1.240577
     36          1           0        3.910805    1.667231    0.762709
     37          1           0        3.791256    1.584996   -1.019236
     38          1           0        4.823738   -0.535360   -0.731682
 ---------------------------------------------------------------------
 Rotational constants (GHZ):           0.6481883           0.1968741           0.1824995
   316 basis functions,   572 primitive gaussians,   336 cartesian basis functions
    80 alpha electrons       80 beta electrons
       nuclear repulsion energy      1923.2419939642 Hartrees.
 NAtoms=   38 NActive=   38 NUniq=   38 SFac= 1.00D+00 NAtFMM=   60 NAOKFM=F Big=F
 Nuclear repulsion after empirical dispersion term =     1923.2088556990 Hartrees.
   1 Symmetry operations used in ECPInt.
 ECPInt:  NShTT=   12246 NPrTT=   49142 LenC2=   11287 LenP2D=   30931.
 LDataN:  DoStor=T MaxTD1= 4 Len=   56
 ExpMin= 1.22D-01 ExpMax= 2.27D+03 ExpMxC= 3.41D+02 IAcc=3 IRadAn=         5 AccDes= 0.00D+00
 Harris functional with IExCor= 4639 and IRadAn=       5 diagonalized for initial guess.
 HarFok:  IExCor= 4639 AccDes= 0.00D+00 IRadAn=         5 IDoV= 1 UseB2=F ITyADJ=14
 ICtDFT=  3500011 ScaDFX=  1.000000  1.000000  1.000000  1.000000
 FoFCou: FMM=F IPFlag=           0 FMFlag=      100000 FMFlg1=           0
         NFxFlg=           0 DoJE=T BraDBF=F KetDBF=T FulRan=T
         wScrn=  0.000000 ICntrl=       500 IOpCl=  0 I1Cent=   200000004 NGrid=           0
         NMat0=    1 NMatS0=      1 NMatT0=    0 NMatD0=    1 NMtDS0=    0 NMtDT0=    0
 Petite list used in FoFCou.
     Minimum is close to point  3 DX=  4.52D-02 DF= -3.03D-03 DXR=  8.28D-02 DFR=  6.92D-03 which will be used.
     Accept linear search using points  2 and  3.
     Accept linear search using points  1 and  2.
     Accept linear search using points  1 and  2.
     Accept linear search using points  1 and  2.
     Minimum is close to point  2 DX= -6.17D-05 DF=  0.00D+00 DXR=  6.17D-05 DFR=  0.00D+00 which will be used.
 SCF Done:  E(RwB97XD) =  -1175.92119501     a.u. after    9 cycles
            Convg  =    0.1856D-09                    48 Fock formations.
              S**2 =  0.0000                  -V/T =  2.0072

 **********************************************************************

            Population analysis using the SCF Density.

 **********************************************************************

 Orbital symmetries:
       Occupied  (A) (A) (A) (A) (A) (A) (A) (A) (A) (A) (A) (A)
                 (A) (A) (A) (A) (A) (A) (A) (A) (A) (A) (A) (A)
                 (A) (A) (A) (A) (A) (A) (A) (A) (A) (A) (A) (A)
                 (A) (A) (A) (A) (A) (A) (A) (A) (A) (A) (A) (A)
                 (A) (A) (A) (A) (A) (A) (A) (A) (A) (A) (A) (A)
                 (A) (A) (A) (A) (A) (A) (A) (A) (A) (A) (A) (A)
                 (A) (A) (A) (A) (A) (A) (A) (A)
       Virtual   (A) (A) (A) (A) (A) (A) (A) (A) (A) (A) (A) (A)
                 (A) (A) (A) (A) (A) (A) (A) (A) (A) (A) (A) (A)
                 (A) (A) (A) (A) (A) (A) (A) (A) (A) (A) (A) (A)
                 (A) (A) (A) (A) (A) (A) (A) (A) (A) (A) (A) (A)
                 (A) (A) (A) (A) (A) (A) (A) (A) (A) (A) (A) (A)
                 (A) (A) (A) (A) (A) (A) (A) (A) (A) (A) (A) (A)
                 (A) (A) (A) (A) (A) (A) (A) (A) (A) (A) (A) (A)
                 (A) (A) (A) (A) (A) (A) (A) (A) (A) (A) (A) (A)
                 (A) (A) (A) (A) (A) (A) (A) (A) (A) (A) (A) (A)
                 (A) (A) (A) (A) (A) (A) (A) (A) (A) (A) (A) (A)
                 (A) (A) (A) (A) (A) (A) (A) (A) (A) (A) (A) (A)
                 (A) (A) (A) (A) (A) (A) (A) (A) (A) (A) (A) (A)
                 (A) (A) (A) (A) (A) (A) (A) (A) (A) (A) (A) (A)
                 (A) (A) (A) (A) (A) (A) (A) (A) (A) (A) (A) (A)
                 (A) (A) (A) (A) (A) (A) (A) (A) (A) (A) (A) (A)
                 (A) (A) (A) (A) (A) (A) (A) (A) (A) (A) (A) (A)
                 (A) (A) (A) (A) (A) (A) (A) (A) (A) (A) (A) (A)
                 (A) (A) (A) (A) (A) (A) (A) (A) (A) (A) (A) (A)
                 (A) (A) (A) (A) (A) (A) (A) (A) (A) (A) (A) (A)
                 (A) (A) (A) (A) (A) (A) (A) (A)
 The electronic state is 1-A.
 Alpha  occ. eigenvalues --  -19.33267 -19.32851 -19.32348 -19.32259 -19.28131
 Alpha  occ. eigenvalues --  -19.27785 -19.26902 -19.26422 -19.26116 -19.26025
 Alpha  occ. eigenvalues --  -14.71655 -14.71160 -10.37688 -10.37426 -10.36984
 Alpha  occ. eigenvalues --  -10.36879 -10.36799 -10.36769 -10.36160 -10.36033
 Alpha  occ. eigenvalues --   -1.37930  -1.37182  -1.19811  -1.19028  -1.15416
 Alpha  occ. eigenvalues --   -1.15189  -1.13406  -1.13168  -1.12853  -1.12799
 Alpha  occ. eigenvalues --   -0.96839  -0.96723  -0.82268  -0.80458  -0.80138
 Alpha  occ. eigenvalues --   -0.79864  -0.79231  -0.78543  -0.71128  -0.69682
 Alpha  occ. eigenvalues --   -0.68771  -0.67449  -0.66349  -0.65985  -0.65571
 Alpha  occ. eigenvalues --   -0.64918  -0.63760  -0.62908  -0.61981  -0.61123
 Alpha  occ. eigenvalues --   -0.59220  -0.58386  -0.56806  -0.56542  -0.56058
 Alpha  occ. eigenvalues --   -0.54829  -0.54253  -0.52911  -0.52635  -0.51142
 Alpha  occ. eigenvalues --   -0.50963  -0.50163  -0.47129  -0.46534  -0.45930
 Alpha  occ. eigenvalues --   -0.45239  -0.44700  -0.44478  -0.43886  -0.42927
 Alpha  occ. eigenvalues --   -0.42412  -0.41758  -0.41400  -0.40808  -0.39473
 Alpha  occ. eigenvalues --   -0.39044  -0.37379  -0.37020  -0.36776  -0.36615
 Alpha virt. eigenvalues --   -0.03452  -0.02203   0.12298   0.12613   0.13841
 Alpha virt. eigenvalues --    0.14517   0.15550   0.16809   0.17606   0.18239
 Alpha virt. eigenvalues --    0.18554   0.18804   0.19701   0.19996   0.20851
 Alpha virt. eigenvalues --    0.21436   0.21697   0.22549   0.23131   0.24549
 Alpha virt. eigenvalues --    0.25087   0.25342   0.26112   0.26439   0.27287
 Alpha virt. eigenvalues --    0.28308   0.29418   0.29695   0.30150   0.30787
 Alpha virt. eigenvalues --    0.31222   0.33148   0.34824   0.36342   0.38068
 Alpha virt. eigenvalues --    0.39378   0.44522   0.46328   0.50044   0.50957
 Alpha virt. eigenvalues --    0.51979   0.53268   0.54885   0.55366   0.55686
 Alpha virt. eigenvalues --    0.57582   0.58230   0.58953   0.59727   0.60153
 Alpha virt. eigenvalues --    0.60467   0.61652   0.62843   0.63549   0.64109
 Alpha virt. eigenvalues --    0.66574   0.66734   0.67634   0.67696   0.68950
 Alpha virt. eigenvalues --    0.69315   0.69909   0.70631   0.71432   0.72089
 Alpha virt. eigenvalues --    0.73100   0.73962   0.74920   0.75236   0.75796
 Alpha virt. eigenvalues --    0.76210   0.76681   0.77358   0.77904   0.78044
 Alpha virt. eigenvalues --    0.79037   0.79577   0.80627   0.80934   0.82140
 Alpha virt. eigenvalues --    0.82949   0.84187   0.85990   0.86841   0.89322
 Alpha virt. eigenvalues --    0.91684   0.93976   0.94729   0.99115   0.99817
 Alpha virt. eigenvalues --    1.01441   1.01731   1.02639   1.04445   1.05228
 Alpha virt. eigenvalues --    1.06455   1.06697   1.08276   1.09882   1.10120
 Alpha virt. eigenvalues --    1.11739   1.12718   1.15677   1.16293   1.17267
 Alpha virt. eigenvalues --    1.18747   1.19504   1.20885   1.21303   1.22431
 Alpha virt. eigenvalues --    1.23286   1.24000   1.24891   1.26222   1.27734
 Alpha virt. eigenvalues --    1.29194   1.31663   1.33020   1.35805   1.36264
 Alpha virt. eigenvalues --    1.37829   1.39218   1.40296   1.41534   1.44172
 Alpha virt. eigenvalues --    1.45079   1.47796   1.50996   1.52335   1.53858
 Alpha virt. eigenvalues --    1.55844   1.59384   1.60555   1.61226   1.65094
 Alpha virt. eigenvalues --    1.67523   1.70759   1.72262   1.74043   1.74729
 Alpha virt. eigenvalues --    1.78420   1.79153   1.79401   1.81137   1.83297
 Alpha virt. eigenvalues --    1.84040   1.86787   1.87026   1.88667   1.89936
 Alpha virt. eigenvalues --    1.90984   1.92052   1.97292   1.97984   2.03669
 Alpha virt. eigenvalues --    2.04483   2.04649   2.09515   2.11315   2.12819
 Alpha virt. eigenvalues --    2.14013   2.14327   2.15953   2.16327   2.19298
 Alpha virt. eigenvalues --    2.19844   2.19949   2.25215   2.26751   2.27775
 Alpha virt. eigenvalues --    2.29801   2.30195   2.33635   2.35535   2.46499
 Alpha virt. eigenvalues --    2.48333   2.48716   2.51199   2.53552   2.54067
 Alpha virt. eigenvalues --    2.56966   2.61356   2.63297   2.63691   2.65511
 Alpha virt. eigenvalues --    2.66627   2.67143   2.68433   2.69123   2.70149
 Alpha virt. eigenvalues --    2.70962   2.71891   2.72447   2.72589   2.72783
 Alpha virt. eigenvalues --    2.74546   2.75770   2.77459   2.85134   2.86860
 Alpha virt. eigenvalues --    2.89925   2.90454   2.91062   2.91991   2.92744
 Alpha virt. eigenvalues --    2.93457   3.00268   3.01454   3.04989   3.05951
 Alpha virt. eigenvalues --    3.07581   3.08189   3.09033   3.09935   3.10764
 Alpha virt. eigenvalues --    3.11587   3.11627   3.13077   3.13931   3.16892
 Alpha virt. eigenvalues --    3.23092   3.23934   3.34805   3.35438   3.45101
 Alpha virt. eigenvalues --    3.45430   3.46439   3.47117   3.47722   3.49275
 Alpha virt. eigenvalues --    3.52518   3.53693   3.81789   3.82209   3.84942
 Alpha virt. eigenvalues --    3.85511
          Condensed to atoms (all electrons):
 Mulliken charges:
               1
     1  O   -0.505083
     2  C    0.099650
     3  C   -0.340839
     4  C    0.081059
     5  O   -0.487997
     6  C    0.107968
     7  O   -0.493919
     8  N    0.301038
     9  O   -0.281319
    10  O   -0.232657
    11  H    0.341147
    12  H    0.124083
    13  H    0.129556
    14  H    0.138556
    15  H    0.117102
    16  H    0.332331
    17  H    0.111908
    18  H    0.131143
    19  H    0.330048
    20  O   -0.503936
    21  C    0.099393
    22  C   -0.346548
    23  C    0.055096
    24  O   -0.499690
    25  C    0.111608
    26  O   -0.481556
    27  N    0.282129
    28  O   -0.215639
    29  O   -0.285476
    30  H    0.347727
    31  H    0.120425
    32  H    0.120065
    33  H    0.139780
    34  H    0.140214
    35  H    0.337549
    36  H    0.130116
    37  H    0.108825
    38  H    0.336142
 Sum of Mulliken charges =   0.00000
 Mulliken charges with hydrogens summed into heavy atoms:
               1
     1  O   -0.163937
     2  C    0.353289
     3  C   -0.340839
     4  C    0.336717
     5  O   -0.155666
     6  C    0.351019
     7  O   -0.163871
     8  N    0.301038
     9  O   -0.281319
    10  O   -0.232657
    20  O   -0.156209
    21  C    0.339884
    22  C   -0.346548
    23  C    0.335090
    24  O   -0.162141
    25  C    0.350549
    26  O   -0.145414
    27  N    0.282129
    28  O   -0.215639
    29  O   -0.285476
 Electronic spatial extent (au):  <R**2>=           6187.9653
 Charge=              0.0000 electrons
 Dipole moment (field-independent basis, Debye):
    X=             -1.3610    Y=              0.7612    Z=             -0.2743  Tot=              1.5834
   1 Symmetry operations used in ECPInt.
 ECPInt:  NShTT=   12246 NPrTT=   49142 LenC2=   11287 LenP2D=   30931.
 LDataN:  DoStor=T MaxTD1= 5 Len=  102
 Calling FoFJK, ICntrl=      2127 FMM=F ISym2X=0 I1Cent= 0 IOpClX= 0 NMat=1 NMatS=1 NMatT=0.

 GradGradGradGradGradGradGradGradGradGradGradGradGradGradGradGradGradGrad
 FormGI is forming the generalized inverse of G from B-inverse, IUseBI=4.
 Internal  Forces:  Max     0.020720476 RMS     0.002884085
 Step number   1 out of a maximum of  204
 All quantities printed in internal units (Hartrees-Bohrs-Radians)
 Mixed Optimization -- RFO/linear search
 Second derivative matrix not updated -- first step.
 ITU=  0
     Eigenvalues ---    0.00230   0.00230   0.00230   0.00234   0.00343
     Eigenvalues ---    0.00519   0.00579   0.00719   0.00991   0.01228
     Eigenvalues ---    0.01634   0.01667   0.01716   0.01810   0.01857
     Eigenvalues ---    0.01995   0.02189   0.03741   0.04182   0.04374
     Eigenvalues ---    0.04541   0.04595   0.04665   0.04840   0.04921
     Eigenvalues ---    0.04934   0.04967   0.05086   0.05167   0.05726
     Eigenvalues ---    0.05762   0.05808   0.05887   0.05915   0.05923
     Eigenvalues ---    0.05933   0.05997   0.07125   0.07658   0.11208
     Eigenvalues ---    0.11588   0.11603   0.11664   0.11684   0.11741
     Eigenvalues ---    0.11756   0.12640   0.13896   0.13933   0.14009
     Eigenvalues ---    0.14071   0.14290   0.14532   0.14649   0.15261
     Eigenvalues ---    0.15641   0.16000   0.16000   0.16000   0.16000
     Eigenvalues ---    0.17233   0.18714   0.20549   0.22029   0.22054
     Eigenvalues ---    0.22098   0.22106   0.22116   0.22288   0.24494
     Eigenvalues ---    0.24994   0.24999   0.26778   0.27134   0.27145
     Eigenvalues ---    0.27534   0.28193   0.28498   0.33528   0.33823
     Eigenvalues ---    0.33894   0.34071   0.34116   0.34154   0.34292
     Eigenvalues ---    0.34332   0.34340   0.34409   0.34451   0.34522
     Eigenvalues ---    0.34544   0.36183   0.44909   0.45311   0.46066
     Eigenvalues ---    0.46983   0.47140   0.47752   0.51201   0.52775
     Eigenvalues ---    0.52821   0.52850   0.53685   0.53692   0.92189
     Eigenvalues ---    0.96665   1.00787   1.01605
 Linear search not attempted -- first point.
 Iteration  1 RMS(Cart)=  0.06621472 RMS(Int)=  0.00179339
 Iteration  2 RMS(Cart)=  0.00270313 RMS(Int)=  0.00014852
 Iteration  3 RMS(Cart)=  0.00000205 RMS(Int)=  0.00014852
 Iteration  4 RMS(Cart)=  0.00000000 RMS(Int)=  0.00014852
 Variable       Old X    -DE/DX   Delta X   Delta X   Delta X     New X
                                 (Linear)    (Quad)   (Total)
    R1        2.65381   0.00269   0.00000   0.00588   0.00588   2.65969
    R2        1.83013   0.00048   0.00000   0.00087   0.00087   1.83101
    R3        2.91063  -0.00178   0.00000  -0.00607  -0.00607   2.90456
    R4        2.06459   0.00565   0.00000   0.01601   0.01601   2.08060
    R5        2.07072   0.00392   0.00000   0.01122   0.01122   2.08193
    R6        2.93755  -0.00042   0.00000  -0.00143  -0.00137   2.93618
    R7        2.93168  -0.00265   0.00000  -0.00935  -0.00935   2.92233
    R8        2.78055   0.02072   0.00000   0.05704   0.05701   2.83757
    R9        2.62430   0.00262   0.00000   0.00536   0.00526   2.62956
   R10        2.07509   0.00493   0.00000   0.01422   0.01422   2.08931
   R11        2.06576   0.00610   0.00000   0.01732   0.01732   2.08309
   R12        1.84113   0.00048   0.00000   0.00087   0.00088   1.84201
   R13        2.62867   0.00023   0.00000   0.00049   0.00049   2.62916
   R14        2.07630   0.00651   0.00000   0.01881   0.01881   2.09511
   R15        2.06773   0.00481   0.00000   0.01369   0.01369   2.08142
   R16        1.83822   0.00017   0.00000   0.00032   0.00032   1.83854
   R17        2.29723   0.00275   0.00000   0.00277   0.00261   2.29985
   R18        2.28325   0.00480   0.00000   0.00472   0.00472   2.28798
   R19        3.68631  -0.00052   0.00000  -0.00955  -0.00961   3.67670
   R20        3.58505  -0.00013   0.00000  -0.00233  -0.00229   3.58276
   R21        2.64917   0.00189   0.00000   0.00410   0.00410   2.65327
   R22        1.83020   0.00400   0.00000   0.00734   0.00734   1.83754
   R23        2.91719  -0.00130   0.00000  -0.00448  -0.00448   2.91271
   R24        2.07135   0.00425   0.00000   0.01219   0.01219   2.08354
   R25        2.06646   0.00460   0.00000   0.01307   0.01307   2.07953
   R26        2.93721  -0.00042   0.00000  -0.00138  -0.00125   2.93596
   R27        2.94072   0.00136   0.00000   0.00488   0.00488   2.94559
   R28        2.76518   0.02002   0.00000   0.05359   0.05362   2.81880
   R29        2.63587   0.00488   0.00000   0.01030   0.01025   2.64611
   R30        2.07211   0.00467   0.00000   0.01340   0.01340   2.08550
   R31        2.06761   0.00285   0.00000   0.00813   0.00813   2.07574
   R32        1.83511   0.00166   0.00000   0.00309   0.00304   1.83815
   R33        2.62204   0.00259   0.00000   0.00533   0.00533   2.62737
   R34        2.06840   0.00505   0.00000   0.01439   0.01439   2.08278
   R35        2.08134   0.00545   0.00000   0.01588   0.01588   2.09722
   R36        1.83865   0.00166   0.00000   0.00310   0.00310   1.84175
   R37        2.28003   0.00212   0.00000   0.00207   0.00207   2.28210
   R38        2.30454   0.00434   0.00000   0.00453   0.00470   2.30923
    A1        1.88523  -0.00192   0.00000  -0.01147  -0.01147   1.87376
    A2        1.98582   0.00171   0.00000   0.01078   0.01053   1.99635
    A3        1.85942  -0.00016   0.00000  -0.00746  -0.00740   1.85202
    A4        1.94305   0.00073   0.00000   0.02140   0.02106   1.96411
    A5        1.88359  -0.00240   0.00000  -0.02498  -0.02497   1.85861
    A6        1.90114   0.00027   0.00000   0.00930   0.00894   1.91008
    A7        1.88717  -0.00038   0.00000  -0.01243  -0.01240   1.87477
    A8        1.92750  -0.00102   0.00000  -0.00803  -0.00807   1.91943
    A9        1.95216  -0.00054   0.00000  -0.00849  -0.00850   1.94366
   A10        1.91837   0.00106   0.00000   0.01002   0.00993   1.92830
   A11        1.91468   0.00080   0.00000   0.00037   0.00023   1.91491
   A12        1.89794   0.00034   0.00000   0.00986   0.00993   1.90786
   A13        1.85108  -0.00058   0.00000  -0.00286  -0.00277   1.84831
   A14        1.97403   0.00488   0.00000   0.02717   0.02694   2.00097
   A15        1.89236  -0.00067   0.00000   0.00137   0.00112   1.89348
   A16        1.88185  -0.00400   0.00000  -0.03209  -0.03217   1.84968
   A17        1.95964  -0.00115   0.00000   0.00660   0.00625   1.96589
   A18        1.85852   0.00025   0.00000   0.00293   0.00336   1.86188
   A19        1.89429   0.00041   0.00000  -0.00923  -0.00944   1.88485
   A20        1.91584   0.00003   0.00000   0.00489   0.00449   1.92033
   A21        1.97078  -0.00247   0.00000  -0.00865  -0.00861   1.96217
   A22        1.87698  -0.00228   0.00000  -0.01893  -0.01892   1.85806
   A23        1.90571   0.00059   0.00000  -0.00118  -0.00120   1.90451
   A24        1.94858   0.00362   0.00000   0.02863   0.02858   1.97716
   A25        1.86057   0.00109   0.00000   0.00882   0.00878   1.86935
   A26        1.90018  -0.00049   0.00000  -0.00896  -0.00919   1.89099
   A27        1.89055  -0.00291   0.00000  -0.01733  -0.01733   1.87322
   A28        2.04624  -0.00024   0.00000  -0.00105  -0.00113   2.04511
   A29        2.08110   0.00184   0.00000   0.00737   0.00716   2.08826
   A30        2.15575  -0.00159   0.00000  -0.00589  -0.00610   2.14965
   A31        2.26364  -0.00100   0.00000  -0.00506  -0.00500   2.25864
   A32        2.75430   0.00106   0.00000   0.00776   0.00763   2.76193
   A33        1.87502  -0.00187   0.00000  -0.01112  -0.01112   1.86390
   A34        1.93794  -0.00530   0.00000  -0.02370  -0.02370   1.91424
   A35        1.94053   0.00243   0.00000   0.01262   0.01255   1.95308
   A36        1.86402   0.00220   0.00000   0.01129   0.01123   1.87525
   A37        1.91941   0.00074   0.00000   0.00048   0.00052   1.91993
   A38        1.91725   0.00063   0.00000   0.00019   0.00022   1.91747
   A39        1.88308  -0.00054   0.00000  -0.00001  -0.00008   1.88300
   A40        1.94246  -0.00270   0.00000  -0.02316  -0.02307   1.91939
   A41        1.92104   0.00154   0.00000   0.00594   0.00606   1.92710
   A42        1.92083  -0.00081   0.00000  -0.01413  -0.01413   1.90671
   A43        1.89863   0.00095   0.00000   0.01287   0.01268   1.91131
   A44        1.91755   0.00227   0.00000   0.02169   0.02162   1.93917
   A45        1.86147  -0.00114   0.00000  -0.00181  -0.00200   1.85947
   A46        1.97047   0.00178   0.00000   0.00975   0.00952   1.97999
   A47        1.89005   0.00050   0.00000   0.01150   0.01135   1.90140
   A48        1.88203  -0.00303   0.00000  -0.02965  -0.02977   1.85226
   A49        1.95944   0.00017   0.00000   0.01701   0.01663   1.97607
   A50        1.86123   0.00048   0.00000  -0.00248  -0.00237   1.85886
   A51        1.89789  -0.00013   0.00000  -0.00934  -0.00931   1.88859
   A52        1.90031   0.00063   0.00000   0.00893   0.00855   1.90886
   A53        1.94926  -0.00198   0.00000  -0.00604  -0.00603   1.94323
   A54        1.90832   0.00059   0.00000   0.00211   0.00209   1.91041
   A55        1.89165  -0.00150   0.00000  -0.01550  -0.01551   1.87614
   A56        1.86700   0.00145   0.00000   0.01552   0.01550   1.88250
   A57        1.94441   0.00229   0.00000   0.01604   0.01598   1.96039
   A58        1.90254  -0.00082   0.00000  -0.01212  -0.01226   1.89028
   A59        1.89282   0.00062   0.00000   0.00370   0.00370   1.89651
   A60        2.06319   0.00306   0.00000   0.01240   0.01238   2.07557
   A61        2.06205  -0.00226   0.00000  -0.00946  -0.00962   2.05242
   A62        2.15755  -0.00077   0.00000  -0.00237  -0.00239   2.15516
   A63        2.17768  -0.00343   0.00000  -0.01869  -0.01856   2.15912
   A64        2.65681  -0.00124   0.00000  -0.00075  -0.00089   2.65591
    D1       -1.28853  -0.00128   0.00000  -0.01595  -0.01611  -1.30464
    D2        2.92139   0.00080   0.00000   0.01367   0.01362   2.93501
    D3        0.86771   0.00095   0.00000   0.02149   0.02170   0.88940
    D4       -3.06201   0.00187   0.00000   0.09147   0.09152  -2.97049
    D5       -0.92425   0.00179   0.00000   0.08029   0.08036  -0.84389
    D6        1.12709   0.00142   0.00000   0.07791   0.07798   1.20507
    D7       -1.00260   0.00109   0.00000   0.07189   0.07186  -0.93074
    D8        1.13515   0.00101   0.00000   0.06071   0.06071   1.19585
    D9       -3.09669   0.00064   0.00000   0.05833   0.05832  -3.03837
   D10        1.04233  -0.00054   0.00000   0.04838   0.04832   1.09065
   D11       -3.10310  -0.00061   0.00000   0.03721   0.03716  -3.06594
   D12       -1.05175  -0.00099   0.00000   0.03483   0.03478  -1.01698
   D13       -0.71809  -0.00034   0.00000  -0.00176  -0.00170  -0.71979
   D14       -2.90340  -0.00180   0.00000  -0.03062  -0.03062  -2.93402
   D15        1.33207   0.00024   0.00000  -0.00307  -0.00326   1.32882
   D16       -2.87765   0.00048   0.00000   0.01419   0.01424  -2.86341
   D17        1.22023  -0.00098   0.00000  -0.01466  -0.01467   1.20556
   D18       -0.82749   0.00106   0.00000   0.01288   0.01269  -0.81480
   D19        1.38824   0.00055   0.00000   0.01189   0.01185   1.40009
   D20       -0.79706  -0.00091   0.00000  -0.01696  -0.01707  -0.81413
   D21       -2.84478   0.00112   0.00000   0.01058   0.01029  -2.83448
   D22        1.10915   0.00167   0.00000   0.08222   0.08221   1.19136
   D23       -1.04839   0.00033   0.00000   0.06513   0.06514  -0.98324
   D24       -3.10759   0.00188   0.00000   0.08708   0.08703  -3.02056
   D25       -3.02899   0.00056   0.00000   0.06639   0.06638  -2.96261
   D26        1.09666  -0.00077   0.00000   0.04931   0.04931   1.14597
   D27       -0.96254   0.00077   0.00000   0.07125   0.07119  -0.89135
   D28       -0.98215   0.00105   0.00000   0.07661   0.07666  -0.90549
   D29       -3.13969  -0.00029   0.00000   0.05953   0.05959  -3.08010
   D30        1.08430   0.00126   0.00000   0.08147   0.08147   1.16578
   D31        3.06461   0.00010   0.00000   0.01728   0.01718   3.08179
   D32       -0.09104   0.00104   0.00000   0.05015   0.05020  -0.04084
   D33        0.95266   0.00049   0.00000   0.01482   0.01461   0.96728
   D34       -2.20299   0.00143   0.00000   0.04769   0.04764  -2.15535
   D35       -1.10534  -0.00030   0.00000   0.01094   0.01080  -1.09454
   D36        2.02219   0.00064   0.00000   0.04381   0.04383   2.06602
   D37       -1.35770  -0.00194   0.00000  -0.04706  -0.04736  -1.40506
   D38        0.79081   0.00003   0.00000  -0.01927  -0.01934   0.77147
   D39        2.86169   0.00004   0.00000  -0.02497  -0.02522   2.83647
   D40        0.18169   0.00036   0.00000   0.03214   0.03154   0.21323
   D41       -1.01479   0.00168   0.00000   0.04109   0.04113  -0.97366
   D42        1.10269  -0.00041   0.00000   0.03124   0.03108   1.13377
   D43       -3.10737   0.00169   0.00000   0.04181   0.04193  -3.06545
   D44        2.91592   0.00372   0.00000   0.07431   0.07421   2.99012
   D45       -0.21096   0.00270   0.00000   0.03979   0.03980  -0.17116
   D46        1.69637   0.00115   0.00000   0.03948   0.03913   1.73550
   D47       -1.11454  -0.00052   0.00000  -0.00374  -0.00421  -1.11875
   D48        1.22475   0.00068   0.00000   0.03000   0.03000   1.25474
   D49       -0.91834   0.00176   0.00000   0.03725   0.03737  -0.88097
   D50       -2.96848  -0.00021   0.00000   0.02373   0.02362  -2.94486
   D51       -0.91824   0.00006   0.00000   0.00597   0.00615  -0.91209
   D52        1.18811   0.00052   0.00000   0.01094   0.01094   1.19905
   D53       -3.04833  -0.00045   0.00000   0.00382   0.00364  -3.04469
   D54        1.23699   0.00002   0.00000   0.00604   0.00623   1.24323
   D55       -2.93985   0.00047   0.00000   0.01101   0.01102  -2.92882
   D56       -0.89310  -0.00049   0.00000   0.00389   0.00373  -0.88937
   D57       -2.97615   0.00019   0.00000   0.00643   0.00659  -2.96956
   D58       -0.86981   0.00065   0.00000   0.01140   0.01138  -0.85843
   D59        1.17694  -0.00032   0.00000   0.00428   0.00409   1.18103
   D60       -0.49461   0.00164   0.00000   0.05200   0.05204  -0.44256
   D61       -2.67542  -0.00020   0.00000   0.01465   0.01457  -2.66085
   D62        1.55694   0.00132   0.00000   0.03554   0.03553   1.59246
   D63       -2.61408   0.00081   0.00000   0.05079   0.05092  -2.56316
   D64        1.48830  -0.00103   0.00000   0.01343   0.01345   1.50174
   D65       -0.56253   0.00049   0.00000   0.03432   0.03440  -0.52813
   D66        1.63738   0.00037   0.00000   0.03347   0.03328   1.67067
   D67       -0.54343  -0.00147   0.00000  -0.00389  -0.00419  -0.54762
   D68       -2.59426   0.00004   0.00000   0.01700   0.01677  -2.57749
   D69       -1.15313   0.00070   0.00000   0.02887   0.02882  -1.12431
   D70        3.06718  -0.00026   0.00000   0.01200   0.01199   3.07917
   D71        0.99531   0.00125   0.00000   0.03441   0.03436   1.02968
   D72        0.97937  -0.00105   0.00000   0.01226   0.01226   0.99163
   D73       -1.08350  -0.00201   0.00000  -0.00461  -0.00457  -1.08807
   D74        3.12782  -0.00050   0.00000   0.01779   0.01780  -3.13757
   D75        3.04675   0.00150   0.00000   0.04360   0.04360   3.09035
   D76        0.98388   0.00054   0.00000   0.02673   0.02677   1.01065
   D77       -1.08799   0.00205   0.00000   0.04913   0.04915  -1.03884
   D78        2.99163  -0.00136   0.00000  -0.01302  -0.01316   2.97846
   D79       -0.17912  -0.00066   0.00000   0.00804   0.00786  -0.17126
   D80        0.84683   0.00104   0.00000   0.01099   0.01096   0.85780
   D81       -2.32392   0.00175   0.00000   0.03205   0.03199  -2.29193
   D82       -1.20812  -0.00064   0.00000  -0.01472  -0.01476  -1.22288
   D83        1.90432   0.00006   0.00000   0.00634   0.00627   1.91059
   D84       -1.28893  -0.00143   0.00000  -0.03091  -0.03134  -1.32026
   D85        0.85365   0.00072   0.00000   0.00475   0.00468   0.85833
   D86        2.93052   0.00096   0.00000   0.00146   0.00125   2.93177
   D87        0.53239  -0.00001   0.00000  -0.03986  -0.04046   0.49193
   D88        0.90240  -0.00170   0.00000  -0.04392  -0.04396   0.85844
   D89        2.98982  -0.00120   0.00000  -0.03504  -0.03510   2.95472
   D90       -1.21576   0.00000   0.00000  -0.03107  -0.03097  -1.24673
   D91        2.96766  -0.00294   0.00000  -0.05581  -0.05580   2.91186
   D92       -0.20479  -0.00213   0.00000  -0.03327  -0.03347  -0.23826
         Item               Value     Threshold  Converged?
 Maximum Force            0.020720     0.000015     NO 
 RMS     Force            0.002884     0.000010     NO 
 Maximum Displacement     0.427198     0.000060     NO 
 RMS     Displacement     0.065874     0.000040     NO 
 GradGradGradGradGradGradGradGradGradGradGradGradGradGradGradGradGradGrad

                    Distance matrix (angstroms):
                    1          2          3          4          5
     1  O    0.000000
     2  C    1.407449   0.000000
     3  C    2.475775   1.537026   0.000000
     4  C    3.805437   2.531456   1.553759   0.000000
     5  O    4.223397   2.830135   2.480672   1.391503   0.000000
     6  C    2.907486   2.546692   1.546431   2.535120   3.783204
     7  O    2.746616   3.048498   2.443065   3.776571   4.906578
     8  N    3.052917   2.496486   1.501576   2.492409   3.149461
     9  O    4.196146   3.618430   2.324906   2.851633   3.645332
    10  O    2.888946   2.667153   2.349318   3.434391   3.744353
    11  H    0.968928   1.932218   2.750964   4.159523   4.508325
    12  H    2.013267   1.101005   2.129646   2.659230   2.924493
    13  H    2.093614   1.101711   2.168721   2.781527   2.540964
    14  H    4.628914   3.471701   2.173951   1.105614   2.083975
    15  H    4.069166   2.855061   2.138287   1.102323   2.007941
    16  H    4.596619   3.289529   2.835266   1.953310   0.974752
    17  H    3.105622   2.711234   2.142932   2.770353   3.951044
    18  H    3.965370   3.489434   2.172662   2.687212   4.056928
    19  H    1.956681   2.634503   2.563253   4.027214   4.972680
    20  O    7.472948   7.091865   6.436701   6.736275   6.663674
    21  C    6.493704   5.936972   5.286227   5.449838   5.284427
    22  C    6.925814   6.163051   5.206349   5.032730   4.985890
    23  C    7.218898   6.605773   5.432235   5.429833   5.757771
    24  O    6.581542   6.226210   5.124779   5.518799   6.010754
    25  C    8.357054   7.501473   6.582707   6.175235   5.934605
    26  O    9.275065   8.555186   7.643349   7.399299   7.228902
    27  N    6.175006   5.194356   4.213540   3.733444   3.598528
    28  O    6.643532   5.564289   4.398770   3.611501   3.654295
    29  O    5.394468   4.369966   3.687743   3.274974   2.824452
    30  H    7.350469   7.069910   6.309447   6.734402   6.860202
    31  H    5.455980   5.010975   4.434188   4.844293   4.796115
    32  H    6.750418   6.118318   5.669840   5.709343   5.271244
    33  H    7.316015   6.600667   5.274699   5.080559   5.546342
    34  H    8.258550   7.679110   6.527902   6.505531   6.778912
    35  H    5.710945   5.368903   4.226294   4.730220   5.348824
    36  H    8.800502   7.852301   6.804668   6.205885   6.037628
    37  H    8.386573   7.467606   6.725021   6.232417   5.744963
    38  H    8.995776   8.387905   7.586705   7.516110   7.329036
                    6          7          8          9         10
     6  C    0.000000
     7  O    1.391290   0.000000
     8  N    2.432800   2.763926   0.000000
     9  O    2.839637   3.212727   1.217026   0.000000
    10  O    3.343348   3.318554   1.210744   2.135243   0.000000
    11  H    3.316745   2.940063   2.818012   3.963570   2.309519
    12  H    2.810177   3.518397   3.418777   4.425863   3.747671
    13  H    3.496213   4.005446   2.724241   3.859668   2.606713
    14  H    2.830926   4.038295   2.613829   2.463137   3.706617
    15  H    2.604783   3.962283   3.396250   3.756736   4.345854
    16  H    4.236461   5.239298   3.017746   3.385048   3.483595
    17  H    1.108685   2.093868   3.382722   3.864275   4.233001
    18  H    1.101442   2.012550   2.712928   2.622944   3.807341
    19  H    1.920558   0.972913   2.974426   3.716813   3.234147
    20  O    7.349079   7.372899   5.024140   4.625450   4.608518
    21  C    6.345834   6.560204   3.981155   3.680349   3.666023
    22  C    6.145192   6.583734   4.057028   3.402009   4.200661
    23  C    6.006581   6.290629   4.209502   3.228974   4.519577
    24  O    5.541309   5.527322   3.746463   2.842348   3.893557
    25  C    7.565133   8.096394   5.545871   4.894269   5.682454
    26  O    8.544644   8.915133   6.457568   5.754868   6.467050
    27  N    5.268781   5.970694   3.396614   2.882643   3.803010
    28  O    5.250388   6.123475   3.859985   3.169537   4.554548
    29  O    4.995361   5.707042   3.004310   2.959244   3.212238
    30  H    7.040300   6.948155   4.839527   4.322277   4.490957
    31  H    5.478143   5.590682   3.067598   2.964913   2.606178
    32  H    6.900469   7.201403   4.514739   4.417274   4.098015
    33  H    5.699978   6.138915   4.267049   3.149630   4.850985
    34  H    7.076666   7.304892   5.278546   4.308446   5.501256
    35  H    4.576629   4.565429   2.876316   1.945625   3.159918
    36  H    7.684118   8.334646   5.911101   5.139419   6.249985
    37  H    7.873312   8.470845   5.791212   5.340907   5.828598
    38  H    8.524116   8.773029   6.307310   5.711853   6.142777
                   11         12         13         14         15
    11  H    0.000000
    12  H    2.810210   0.000000
    13  H    2.279119   1.775417   0.000000
    14  H    4.863215   3.712949   3.714597   0.000000
    15  H    4.633286   2.553198   3.304554   1.786191   0.000000
    16  H    4.684065   3.639673   2.809838   2.272945   2.822578
    17  H    3.773944   2.521857   3.736304   3.257683   2.389153
    18  H    4.269772   3.749057   4.318802   2.541007   2.777279
    19  H    2.201514   3.120489   3.593532   4.505555   4.205338
    20  O    6.769150   8.091970   6.669364   6.362583   7.828909
    21  C    5.890750   6.883654   5.463959   5.132413   6.549508
    22  C    6.488816   6.984079   5.818795   4.444827   6.078143
    23  C    6.779800   7.440599   6.502786   4.671735   6.398272
    24  O    6.045346   7.153654   6.232742   4.902767   6.481718
    25  C    7.940918   8.252757   7.056885   5.539703   7.170590
    26  O    8.758305   9.383599   8.123608   6.748583   8.416322
    27  N    5.919010   5.874189   4.855292   3.166897   4.748473
    28  O    6.531103   6.084191   5.377472   2.791128   4.465214
    29  O    5.148486   5.057166   3.851707   3.080153   4.330239
    30  H    6.637286   8.089420   6.790833   6.303023   7.799504
    31  H    4.818483   6.012086   4.602918   4.662258   5.936268
    32  H    6.166447   7.017025   5.465847   5.517981   6.800748
    33  H    7.009813   7.320502   6.609178   4.170693   5.943199
    34  H    7.772600   8.528334   7.538469   5.721568   7.467367
    35  H    5.232478   6.278759   5.477318   4.171620   5.659659
    36  H    8.480164   8.509123   7.488548   5.440525   7.110780
    37  H    7.986881   8.178724   6.881360   5.740621   7.224302
    38  H    8.398534   9.284126   7.919913   6.964830   8.576644
                   16         17         18         19         20
    16  H    0.000000
    17  H    4.611395   0.000000
    18  H    4.418269   1.791945   0.000000
    19  H    5.336261   2.364414   2.817933   0.000000
    20  O    5.813606   8.364556   7.240478   7.586491   0.000000
    21  C    4.417489   7.296177   6.284669   6.756570   1.404048
    22  C    4.133681   7.059340   5.848589   6.964269   2.409255
    23  C    5.058231   6.999519   5.515865   6.829925   2.827153
    24  O    5.406314   6.616137   5.148505   6.032488   2.777999
    25  C    5.029359   8.419448   7.213633   8.485266   3.003549
    26  O    6.320087   9.472278   8.171192   9.311395   2.758821
    27  N    2.767534   6.048392   5.007930   6.339452   3.703557
    28  O    3.010048   5.933198   4.795462   6.618330   4.707599
    29  O    1.895915   5.697431   4.989105   5.900899   3.996355
    30  H    6.083323   8.101708   6.869859   7.227338   0.972382
    31  H    4.037402   6.442377   5.534500   5.723272   2.083741
    32  H    4.346569   7.768306   6.938207   7.298003   2.026979
    33  H    4.952418   6.624531   5.050231   6.786174   3.911116
    34  H    6.035496   8.077102   6.552527   7.850564   2.827801
    35  H    4.853481   5.658236   4.215388   5.089362   3.389869
    36  H    5.203551   8.481185   7.207466   8.812392   3.998609
    37  H    4.795185   8.659439   7.638740   8.762654   3.384609
    38  H    6.407093   9.488662   8.246821   9.096210   1.979061
                   21         22         23         24         25
    21  C    0.000000
    22  C    1.541339   0.000000
    23  C    2.534849   1.553641   0.000000
    24  O    2.709340   2.470963   1.400263   0.000000
    25  C    2.545877   1.558741   2.541862   3.727441   0.000000
    26  O    2.986679   2.437204   2.901791   3.912768   1.390346
    27  N    2.473147   1.491647   2.511542   3.309787   2.445097
    28  O    3.598069   2.329314   2.856176   3.816752   2.936068
    29  O    2.601504   2.325292   3.492265   3.975301   3.277426
    30  H    1.925047   2.643999   2.509949   2.090072   3.469655
    31  H    1.102563   2.180379   2.868905   2.602572   3.496953
    32  H    1.100439   2.176993   3.487662   3.804829   2.697252
    33  H    3.437332   2.178277   1.103602   2.096956   2.992239
    34  H    2.994589   2.137384   1.098433   2.010277   2.501020
    35  H    2.991151   2.775892   1.952017   0.972706   4.217723
    36  H    3.497448   2.188389   2.790803   4.151556   1.102161
    37  H    2.745332   2.168279   3.489861   4.557383   1.109803
    38  H    2.529576   2.521567   3.044403   3.747723   1.936523
                   26         27         28         29         30
    26  O    0.000000
    27  N    3.690148   0.000000
    28  O    4.202328   1.207635   0.000000
    29  O    4.490729   1.221993   2.140064   0.000000
    30  H    3.184428   3.937166   4.829840   4.344259   0.000000
    31  H    4.033824   2.650955   3.768024   2.489995   2.257310
    32  H    3.221559   2.782096   3.951638   2.593677   2.818750
    33  H    3.565069   2.558015   2.407886   3.668416   3.600912
    34  H    2.335895   3.357385   3.656533   4.369430   2.506708
    35  H    4.647194   3.180192   3.634541   3.687044   2.793880
    36  H    2.021812   2.659069   2.664550   3.676711   4.321534
    37  H    2.082510   2.645418   3.259179   3.124822   4.062644
    38  H    0.974610   3.900479   4.634045   4.518395   2.530859
                   31         32         33         34         35
    31  H    0.000000
    32  H    1.781001   0.000000
    33  H    3.661710   4.302153   0.000000
    34  H    3.570898   3.872333   1.783832   0.000000
    35  H    2.556975   4.031392   2.304523   2.825365   0.000000
    36  H    4.329550   3.710911   2.837778   2.726601   4.585203
    37  H    3.688885   2.435947   3.932298   3.567300   4.941570
    38  H    3.584609   2.749428   3.926595   2.546566   4.508070
                   36         37         38
    36  H    0.000000
    37  H    1.792978   0.000000
    38  H    2.831819   2.411038   0.000000
 Framework group  C1[X(C8H18N2O10)]
 Deg. of freedom   108
                         Standard orientation:                         
 ---------------------------------------------------------------------
 Center     Atomic      Atomic             Coordinates (Angstroms)
 Number     Number       Type             X           Y           Z
 ---------------------------------------------------------------------
      1          8           0       -4.147343   -0.883886   -1.419901
      2          6           0       -3.514281    0.335707   -1.115372
      3          6           0       -2.665044    0.307328    0.165425
      4          6           0       -2.219730    1.748254    0.539052
      5          8           0       -1.823941    2.531656   -0.540723
      6          6           0       -3.444620   -0.320028    1.344465
      7          8           0       -3.673129   -1.680700    1.165463
      8          7           0       -1.450008   -0.553327   -0.028709
      9          8           0       -0.656312   -0.610319    0.892134
     10          8           0       -1.289694   -1.135193   -1.078297
     11          1           0       -3.468141   -1.484905   -1.760902
     12          1           0       -4.321546    1.063335   -0.939042
     13          1           0       -2.904902    0.715322   -1.951025
     14          1           0       -1.444233    1.683017    1.324374
     15          1           0       -3.106427    2.236258    0.975785
     16          1           0       -0.907209    2.315462   -0.791731
     17          1           0       -4.376722    0.270164    1.454198
     18          1           0       -2.853590   -0.209420    2.267301
     19          1           0       -4.134221   -1.787731    0.315465
     20          8           0        3.281152   -1.686260   -1.283530
     21          6           0        2.339627   -0.645391   -1.245175
     22          6           0        2.538326    0.187215    0.036626
     23          6           0        2.546530   -0.745334    1.279238
     24          8           0        1.847363   -1.942420    1.082037
     25          6           0        3.880596    0.976819   -0.030540
     26          8           0        4.972628    0.116754   -0.059135
     27          7           0        1.451787    1.204393    0.135583
     28          8           0        1.337446    1.839385    1.156414
     29          8           0        0.726214    1.353983   -0.836237
     30          1           0        3.013101   -2.332585   -0.608297
     31          1           0        1.305330   -1.024425   -1.292171
     32          1           0        2.509010   -0.014561   -2.130798
     33          1           0        2.195322   -0.175819    2.156873
     34          1           0        3.596485   -1.021149    1.446791
     35          1           0        0.891240   -1.767471    1.119163
     36          1           0        3.976263    1.614995    0.862957
     37          1           0        3.837303    1.632987   -0.924538
     38          1           0        4.816987   -0.562351   -0.740646
 ---------------------------------------------------------------------
 Rotational constants (GHZ):           0.6448085           0.1942658           0.1791484
   316 basis functions,   572 primitive gaussians,   336 cartesian basis functions
    80 alpha electrons       80 beta electrons
       nuclear repulsion energy      1911.9581178625 Hartrees.
 NAtoms=   38 NActive=   38 NUniq=   38 SFac= 1.00D+00 NAtFMM=   60 NAOKFM=F Big=F
 Nuclear repulsion after empirical dispersion term =     1911.9249996650 Hartrees.
   1 Symmetry operations used in ECPInt.
 ECPInt:  NShTT=   12246 NPrTT=   49142 LenC2=   11271 LenP2D=   30834.
 LDataN:  DoStor=T MaxTD1= 4 Len=   56
 Initial guess from the checkpoint file:  "/scratch/user/peterchao1/peterchao1/6113328_1660079103000000872597283/Gau-200224.chk"
 B after Tr=    -0.000000   -0.000000    0.000000
         Rot=    0.999910   -0.013103   -0.001599    0.002438 Ang=  -1.54 deg.
 ExpMin= 1.22D-01 ExpMax= 2.27D+03 ExpMxC= 3.41D+02 IAcc=3 IRadAn=         5 AccDes= 0.00D+00
 Harris functional with IExCor= 4639 and IRadAn=       5 diagonalized for initial guess.
 HarFok:  IExCor= 4639 AccDes= 0.00D+00 IRadAn=         5 IDoV= 1 UseB2=F ITyADJ=14
 ICtDFT=  3500011 ScaDFX=  1.000000  1.000000  1.000000  1.000000
 FoFCou: FMM=F IPFlag=           0 FMFlag=      100000 FMFlg1=           0
         NFxFlg=           0 DoJE=T BraDBF=F KetDBF=T FulRan=T
         wScrn=  0.000000 ICntrl=       500 IOpCl=  0 I1Cent=   200000004 NGrid=           0
         NMat0=    1 NMatS0=      1 NMatT0=    0 NMatD0=    1 NMtDS0=    0 NMtDT0=    0
 Petite list used in FoFCou.
     Minimum is close to point  4 DX=  6.88D-02 DF= -3.25D-05 DXR=  5.42D-02 DFR=  2.95D-03 which will be used.
     Accept linear search using points  2 and  3.
     Accept linear search using points  1 and  2.
     Minimum is close to point  2 DX= -6.54D-02 DF= -4.81D-06 DXR=  6.33D-02 DFR=  4.70D-03 which will be used.
     Accept linear search using points  1 and  2.
     Accept linear search using points  1 and  2.
[...]
 0448221,-0.00272369,-0.00051583,0.00114525,0.00060949,-0.00213691,0.00
 227676,0.00185078,-0.00004777,0.00053334,0.00108498,0.00005021,0.00009
 910,-0.00051443,0.00046158,-0.00004352,-0.00003415,-0.00053668,0.00044
 443,-0.00027002,0.00006110,0.00002227,0.00005332,0.00006758,0.00002371
 ,0.00003989,-0.00622685,-0.00248351,-0.00240545,0.32109702,-0.00001177
 ,0.00004545,-0.00000197,0.00003828,-0.00001593,-0.00000266,0.00003419,
 -0.00004664,0.00000283,0.00010750,-0.00013458,-0.00006189,-0.00023527,
 0.00000563,0.00009043,0.00002766,-0.00002569,-0.00000155,0.00000623,0.
 00005293,-0.00000041,-0.00014472,-0.00012235,-0.00023534,0.00043407,0.
 00086382,0.00012306,0.00003564,0.00009384,0.00010292,-0.00000858,-0.00
 001170,-0.00000921,0.00000750,0.00000106,0.00000945,0.00000413,-0.0000
 0484,0.00001070,0.00002420,0.00000516,-0.00001502,-0.00002612,0.000016
 82,0.00000306,0.00028308,0.00014416,-0.00001461,0.00000825,0.00000323,
 -0.00000471,-0.00000254,-0.00000553,0.00000129,-0.00000388,-0.00000820
 ,-0.00000493,0.00036080,-0.00000435,0.00053209,-0.00016044,-0.00073599
 ,-0.00006524,-0.01323414,-0.00523471,-0.00368737,-0.08053082,-0.070170
 97,-0.01324295,0.04329282,0.00078432,0.00638069,-0.00284931,-0.0019802
 6,-0.00207542,0.00067085,0.00050395,0.00120990,0.00047572,-0.00148830,
 -0.00228685,-0.00026638,-0.00020211,-0.00073085,-0.00162789,-0.0006399
 5,-0.00041462,0.00050247,0.00010505,0.00048248,0.00001142,-0.00007051,
 -0.00005924,-0.00007663,0.00008158,-0.00009744,-0.01380652,-0.00179341
 ,-0.00487443,0.06382350,0.08518069,-0.00000294,0.00002673,-0.00000396,
 0.00001816,-0.00001201,-0.00000153,-0.00001230,0.00000910,0.00000472,0
 .00007716,-0.00011754,-0.00010400,-0.00022251,-0.00001029,0.00010142,0
 .00000074,-0.00000027,-0.00000509,0.00000465,0.00001391,-0.00000111,-0
 .00007878,-0.00005024,-0.00025021,0.00012407,-0.00004853,0.00012332,0.
 00001827,-0.00003238,0.00015229,-0.00001148,-0.00000605,-0.00000206,0.
 00000529,0.00000119,0.00000397,0.00000366,-0.00000554,0.00000787,0.000
 01084,0.00000003,-0.00000999,-0.00001285,0.00001452,0.00001169,0.00023
 155,0.00015949,-0.00001865,0.00000730,-0.00000003,0.00000039,-0.000005
 41,-0.00000186,0.00000388,-0.00000404,-0.00000272,0.00000081,0.0011086
 4,0.00108949,0.00042301,-0.00068511,-0.00185516,0.00004531,-0.02467991
 ,-0.01188270,-0.00714872,-0.04902893,-0.01027867,-0.06099618,-0.004880
 50,0.00011789,0.00149539,-0.00275113,-0.00208039,0.00123301,0.00116420
 ,0.00169607,0.00072818,0.00297322,-0.00022575,-0.00647702,-0.00043391,
 0.00005890,0.00148434,-0.00232279,-0.00071975,0.00009446,-0.00057104,0
 .00074238,-0.00090539,0.00013022,0.00002220,0.00006131,0.00006751,0.00
 011595,-0.00018216,0.02323349,0.00546793,0.00777675,0.05539934,0.01647
 781,0.06336012,0.00051377,-0.00003618,0.00046172,0.00027952,0.00048628
 ,-0.00061333,-0.00006978,-0.00118420,0.00021469,0.00104299,-0.00149031
 ,-0.00041608,-0.00111818,0.00084818,0.00075864,-0.00011333,0.00062679,
 0.00067765,0.00070922,-0.00020390,-0.00022439,-0.00687542,0.00125829,-
 0.01375168,0.00143920,0.00305451,0.00793370,-0.00015456,-0.00168889,0.
 00601172,-0.00053809,0.00013800,-0.00054429,0.00024890,-0.00001869,0.0
 0021985,-0.00001898,-0.00012191,-0.00001685,0.00006479,-0.00019416,0.0
 0009939,-0.00003791,0.00030285,0.00002647,0.00112761,0.00004640,-0.000
 15816,0.00031733,-0.00005680,-0.00020091,-0.00012081,-0.00006184,0.000
 12199,-0.00039698,0.00016902,0.00000003,0.00025993,-0.00059437,-0.0017
 3168,0.00038330,0.00005992,0.00091679,0.00072080,-0.00199944,-0.000270
 08,-0.02458329,0.00369228,-0.00076747,-0.44257390,-0.06871503,-0.01393
 723,-0.00050924,-0.00020677,-0.00040554,0.00047360,-0.00028492,-0.0003
 4223,0.00431423,0.00133070,0.00118015,-0.00131688,-0.00078183,-0.00025
 923,-0.00302941,-0.00040792,-0.00097841,-0.00145574,-0.00057670,0.0023
 3317,0.00059588,0.00005889,0.00038443,0.00019416,-0.00003758,-0.000324
 93,0.00203614,-0.00261648,0.00023139,0.00108612,0.00249298,-0.00007247
 ,0.46714095,0.00034029,-0.00034042,0.00018728,0.00014652,0.00063001,-0
 .00042634,-0.00027656,-0.00005402,0.00096137,0.00045875,-0.00047431,-0
 .00015342,-0.00018706,0.00033042,0.00024611,-0.00033326,0.00078678,0.0
 0048739,0.00018422,-0.00070467,-0.00013881,-0.00294134,0.00435336,-0.0
 0954257,0.00462802,-0.00363157,0.00525180,0.00020037,-0.00325484,0.003
 88721,-0.00029651,0.00019873,-0.00022194,0.00015617,-0.00002738,0.0001
 6819,-0.00001345,-0.00007133,-0.00004521,-0.00002809,-0.00014465,0.000
 09292,0.00002542,0.00017194,0.00000041,0.00013548,-0.00015978,-0.00008
 386,0.00013220,-0.00011569,-0.00010751,-0.00004683,0.00000801,0.000057
 62,-0.00014752,0.00019251,0.00008472,-0.00037243,-0.00042572,0.0002303
 9,0.00031972,0.00027721,-0.00014409,0.00089960,-0.00036976,-0.00043711
 ,0.04357830,0.00497397,0.00207284,-0.11671806,-0.07064053,0.00277906,0
 .00063314,-0.00000362,0.00000646,-0.00036849,-0.00051312,-0.00035189,0
 .00140163,-0.00046925,-0.00033088,-0.00032210,-0.00011577,0.00031826,-
 0.00092446,0.00000571,-0.00036153,-0.00028208,0.00007952,-0.00088795,0
 .00014734,0.00038188,-0.00058602,-0.00004179,-0.00000972,0.00000543,0.
 00008606,0.00012436,0.00105795,0.00314438,-0.00553511,0.00086570,0.066
 72391,0.07442074,0.00015810,-0.00003407,-0.00003341,-0.00005861,0.0000
 3950,-0.00004048,-0.00024807,0.00028880,-0.00020049,0.00017535,-0.0000
 3023,0.00009369,0.00008388,0.00007986,-0.00008532,-0.00009824,0.000231
 61,0.00032269,0.00006620,-0.00017010,-0.00022930,-0.00357943,-0.003681
 78,0.00247690,0.00186066,0.00208087,-0.00520900,0.00167890,0.00153340,
 -0.00110080,-0.00015200,0.00002619,-0.00003331,0.00004044,-0.00000051,
 0.00001798,-0.00001647,-0.00003009,-0.00004228,-0.00002697,-0.00005779
 ,0.00005234,0.00002119,0.00007012,-0.00001268,-0.00012036,-0.00013613,
 0.00002990,0.00002786,-0.00003231,-0.00006906,0.00001605,0.00004752,-0
 .00000611,-0.00009110,0.00002424,0.00011469,-0.00023848,-0.00085702,-0
 .00214293,0.00249425,0.00048727,0.00048644,0.00142110,-0.00001099,0.00
 082151,-0.00711251,-0.00115685,-0.00059906,-0.00608890,0.00563669,-0.0
 1354859,0.00044427,-0.00001631,-0.00035315,-0.00025427,-0.00012627,0.0
 0000751,-0.00001502,-0.00120292,0.00215039,0.00029166,0.00043805,-0.00
 109939,-0.00027274,0.00040194,-0.00079562,0.00030440,-0.00037385,0.002
 30315,-0.00047838,-0.00032454,-0.00221606,-0.00074285,0.00015788,0.000
 01820,-0.00119383,-0.00070864,0.00023275,-0.00157893,0.00220554,0.0005
 7452,0.01331104,-0.00495178,0.01814404,0.00000036,-0.00002195,0.000012
 70,-0.00000858,0.00000682,-0.00000947,0.00002327,-0.00001066,0.0000155
 5,-0.00005680,0.00006074,0.00000382,0.00006958,-0.00004828,-0.00000965
 ,-0.00000441,0.00000653,-0.00000781,-0.00000037,-0.00001799,0.00000887
 ,0.00002795,0.00015646,-0.00027459,0.00006578,-0.00004467,0.00013552,-
 0.00014747,-0.00008826,0.00017428,0.00001243,0.00000391,-0.00000427,-0
 .00000555,-0.00000023,-0.00000102,0.00000169,0.00000611,-0.00000134,-0
 .00001235,0.00000495,0.00001515,0.00001067,-0.00001009,0.00000175,-0.0
 0008591,0.00000879,-0.00002990,-0.00000473,-0.00000044,0.00000263,-0.0
 0000014,0.00000280,0.00000188,0.00000332,0.00000230,-0.00000490,0.0016
 7034,-0.00030099,0.00060357,-0.00643295,0.00109394,0.00125503,-0.00417
 591,0.01569930,-0.02310070,0.00104711,-0.00075133,-0.00046663,0.000211
 67,-0.00036220,0.00015158,-0.05231816,0.02152301,-0.02686971,-0.001705
 36,-0.02907845,0.02569230,0.00172410,0.00293252,-0.00366991,-0.0004472
 0,-0.00151883,0.00186634,0.00001372,-0.00036620,0.00075243,-0.00000967
 ,-0.00007319,-0.00007665,0.00004339,0.00121552,-0.00133248,0.00002653,
 -0.00010770,0.00026711,-0.00017561,0.00022013,0.00033312,-0.00000315,0
 .00007939,0.00050223,-0.00000369,-0.00007507,-0.00018228,0.06363067,0.
 00000466,0.00000220,-0.00000560,-0.00000114,-0.00000031,0.00000219,-0.
 00001522,0.00001109,-0.00001078,0.00000999,-0.00000317,0.00001476,0.00
 000644,-0.00000023,-0.00000902,-0.00000244,0.00000353,0.00001314,0.000
 00358,-0.00000155,-0.00001059,-0.00000717,-0.00008245,0.00021195,-0.00
 006064,-0.00001864,-0.00012175,0.00007842,0.00005280,-0.00012688,-0.00
 000737,-0.00000070,0.00000301,0.00000206,0.00000025,-0.00000027,-0.000
 00155,-0.00000258,-0.00000228,0.00000166,0.00000069,-0.00000173,-0.000
 00132,0.00000362,-0.00000248,-0.00000808,-0.00000155,0.00000795,0.0000
 0156,-0.00000041,-0.00000214,0.00000053,0.00000015,-0.00000103,-0.0000
 0391,0.00000092,0.00000579,0.00009279,-0.00024565,-0.00030042,0.003108
 81,-0.00024292,-0.00129745,0.00441033,-0.00986909,0.01431528,-0.000233
 44,0.00038547,0.00091332,-0.00039943,0.00053337,-0.00036346,0.01611292
 ,-0.13324627,0.11580258,-0.00554281,-0.02022712,0.01823234,-0.00073457
 ,-0.00165959,0.00104721,-0.00133920,0.00057530,-0.00105976,-0.00016668
 ,0.00044135,-0.00016629,-0.00005781,0.00017656,0.00018895,0.00003782,-
 0.00033538,0.00094546,0.00002366,0.00003232,0.00020030,0.00036508,-0.0
 0010663,-0.00029897,-0.00018271,-0.00033923,-0.00006178,0.00004736,0.0
 0012315,0.00011837,-0.00922722,0.15122017,0.00000486,-0.00002126,0.000
 01026,-0.00000934,0.00001020,-0.00000821,0.00000372,-0.00000639,0.0000
 0180,-0.00004113,0.00005497,0.00002974,0.00007141,-0.00003837,-0.00002
 209,-0.00000471,0.00001294,0.00000155,0.00000060,-0.00002148,0.0000030
 0,0.00001146,0.00006060,-0.00003908,-0.00000436,-0.00005704,0.00000922
 ,-0.00003890,-0.00003240,0.00002866,0.00000494,0.00000587,-0.00000509,
 -0.00000339,-0.00000044,-0.00000084,-0.00000032,0.00000346,-0.00000420
 ,-0.00000474,0.00000225,0.00000604,0.00000600,-0.00000529,-0.00000236,
 -0.00008872,-0.00001155,-0.00001084,-0.00000356,-0.00000163,-0.0000000
 4,0.00000124,0.00000236,0.00000058,0.00000121,0.00000415,-0.00000189,-
 0.00014060,0.00038360,-0.00014940,0.00038773,-0.00011002,0.00014552,0.
 00092436,-0.00266582,0.00292312,-0.00002170,-0.00058816,0.00076052,-0.
 00024043,0.00010860,0.00001166,-0.02273604,0.12293063,-0.23696246,0.00
 315820,0.00154562,0.00703362,-0.00110379,0.00150736,-0.00186497,0.0009
 0651,-0.00129630,0.00092603,0.00028292,-0.00004337,0.00104900,0.000027
 68,0.00001991,-0.00006364,0.00008537,0.00006227,0.00034891,0.00014887,
 -0.00006486,0.00050087,0.00013555,0.00018760,0.00020876,-0.00030192,0.
 00018053,-0.00004013,0.00007712,0.00003357,-0.00002372,0.02206185,-0.1
 3397274,0.24251461,-0.00000984,-0.00000472,-0.00001400,-0.00000559,-0.
 00000530,0.00001542,0.00000646,0.00000496,-0.00000973,-0.00003154,0.00
 004589,0.00003392,0.00004696,-0.00002741,-0.00003955,0.00000454,-0.000
 00822,-0.00000868,-0.00001587,-0.00000045,0.00000069,0.00015833,-0.000
 03450,0.00029237,-0.00027445,-0.00006900,-0.00013595,-0.00001165,0.000
 05047,-0.00015140,0.00001211,-0.00000099,0.00001495,-0.00000510,0.0000
 0012,-0.00000484,-0.00000069,0.00000270,-0.00000151,0.00000252,0.00000
 310,-0.00000424,0.00000342,-0.00000821,-0.00000265,-0.00006504,-0.0000
 0294,0.00002080,-0.00000734,0.00000011,0.00000250,0.00000372,0.0000020
 1,-0.00000366,0.00000893,-0.00000225,0.00000290,0.00100733,-0.00002517
 ,0.00010281,0.00066226,-0.00142007,0.00157998,-0.00411260,0.01807736,0
 .02338960,-0.00417958,0.00109603,-0.00241226,-0.00057906,0.00223545,0.
 00129276,-0.04855561,0.00047937,-0.00118264,-0.01137236,-0.02954796,-0
 .02302351,0.00283369,0.00249245,0.00189275,-0.00013467,-0.00065491,-0.
 00008050,-0.00021288,-0.00042105,-0.00102412,-0.00026979,0.00000948,0.
 00020543,0.00008238,-0.00019043,0.00000342,0.00006133,0.00010842,-0.00
 078977,0.00019446,-0.00003381,0.00034197,-0.00017781,0.00025390,0.0000
 5522,0.00036616,0.00000114,0.00000030,0.00231437,-0.00169676,-0.003690
 40,0.06289139,0.00001444,0.00000098,0.00002662,0.00000011,0.00000397,-
 0.00002363,-0.00001072,-0.00000554,0.00000532,0.00000749,-0.00002412,-
 0.00002681,0.00000886,0.00003529,0.00003268,-0.00000605,0.00000951,0.0
 0001046,0.00001865,-0.00000308,0.00000175,-0.00016465,0.00004891,-0.00
 028121,0.00022451,0.00005153,0.00014506,0.00000288,-0.00005124,0.00015
 287,-0.00001193,0.00000019,-0.00002265,0.00000492,-0.00000062,0.000003
 29,-0.00000164,-0.00000172,-0.00000210,-0.00000658,-0.00000561,0.00001
 441,0.00000440,0.00000431,0.00000201,-0.00002872,-0.00004962,-0.000028
 08,0.00000737,0.00000005,-0.00000296,-0.00000366,-0.00000119,0.0000046
 9,-0.00001007,0.00000150,-0.00000660,0.00059853,-0.00006525,0.00077139
 ,-0.00118516,0.00024220,-0.00209910,0.00583527,-0.01017562,-0.01571922
 ,0.00242873,0.00030743,0.00130510,0.00032205,-0.00107165,-0.00060792,-
 0.00011720,-0.12826416,-0.10674463,-0.01441703,-0.01778981,-0.01521624
 ,-0.00168102,-0.00180188,-0.00095563,0.00034358,0.00060696,-0.00042514
 ,0.00059785,0.00047958,0.00114578,-0.00000215,0.00015257,-0.00018380,-
 0.00003019,0.00037272,0.00022782,0.00031947,-0.00044581,0.00110880,0.0
 0007391,-0.00009996,-0.00027504,-0.00045918,0.00005835,0.00058640,-0.0
 0024495,0.00000961,0.00000851,0.00023396,0.01257100,0.01398347,0.00782
 183,0.14438919,0.00000512,0.00002562,0.00001489,0.00000908,-0.00001187
 ,-0.00001164,-0.00001483,0.00000268,0.00000294,0.00004711,-0.00008342,
 -0.00006334,-0.00006610,0.00009102,0.00006956,0.00000173,-0.00000597,-
 0.00000193,0.00001179,0.00001994,0.00000485,-0.00011246,-0.00002541,-0
 .00013209,0.00013726,0.00010037,0.00009713,0.00004406,0.00000263,0.000
 07007,-0.00001356,-0.00000667,-0.00001410,0.00000741,-0.00000049,0.000
 00201,-0.00000210,-0.00000581,0.00000254,-0.00000062,-0.00000214,0.000
 00623,-0.00000491,0.00000804,0.00000351,0.00005094,-0.00007097,-0.0000
 3153,0.00000860,0.00000177,-0.00000193,-0.00000357,-0.00000279,0.00000
 341,-0.00000754,-0.00000413,-0.00000680,0.00025374,0.00009457,0.000233
 56,-0.00061164,0.00110047,0.00094574,-0.00145049,-0.00007252,-0.002118
 83,-0.00020416,0.00011187,0.00064624,0.00041330,-0.00015151,0.00018929
 ,0.00060712,-0.11027535,-0.22268826,-0.00550547,-0.00202882,0.01202778
 ,-0.00022247,-0.00080916,-0.00080596,0.00067591,0.00035814,0.00021835,
 0.00081632,0.00055228,0.00075634,-0.00000374,0.00015298,-0.00014938,0.
 00004447,0.00011409,0.00015230,0.00001917,-0.00031230,0.00047291,-0.00
 006117,0.00010602,0.00013854,-0.00007095,0.00037013,0.00030313,-0.0001
 8313,-0.00012983,-0.00005200,0.00118200,-0.01500753,-0.01825430,0.0049
 4314,0.12500378,0.22793108,0.00010424,-0.00003569,0.00005075,-0.000045
 26,0.00005253,-0.00005318,-0.00008718,0.00000878,-0.00004458,0.0000268
 0,-0.00005414,0.00001927,0.00013703,0.00012324,-0.00001556,-0.00007122
 ,0.00007820,0.00009612,0.00011647,-0.00006063,-0.00005245,-0.00045376,
 -0.00022101,0.00011605,0.00039795,0.00013548,-0.00003665,0.00038685,0.
 00008959,-0.00011548,-0.00009023,0.00001641,-0.00004576,0.00002870,-0.
 00000145,0.00000479,-0.00001710,-0.00002046,-0.00001911,-0.00002635,-0
 .00002595,0.00003154,0.00002834,0.00002465,-0.00000762,-0.00022746,-0.
 00017908,0.00000760,0.00003765,-0.00000151,-0.00001682,-0.00001308,-0.
 00000638,0.00001084,-0.00007203,0.00002705,0.00001789,0.00362775,-0.00
 311657,0.00082805,-0.00901346,-0.00467085,-0.00183943,-0.00003946,-0.0
 0168589,0.00240403,-0.00026921,0.00003826,0.00053618,0.00045145,0.0003
 0307,-0.00101424,0.00313350,-0.03312497,0.02575804,-0.06346885,0.08228
 299,-0.08201191,-0.00021002,-0.00136091,0.00079375,0.00018690,0.001459
 50,-0.00106330,0.00042511,0.00078632,-0.00034427,0.00048931,0.00171932
 ,0.00195987,0.00071980,0.00050400,-0.00026391,0.00005980,0.00034235,-0
 .00011056,0.00028873,-0.00008304,-0.00024521,0.00006300,0.00001043,0.0
 0064034,-0.00039839,0.00003243,0.00015380,-0.00529893,-0.00461820,0.00
 013247,-0.00063889,-0.00048790,-0.00073937,0.06973150,0.00000770,-0.00
 008300,0.00002020,-0.00003208,0.00004590,-0.00001400,0.00003681,-0.000
 02355,0.00002114,-0.00012485,0.00016618,0.00007378,0.00019904,-0.00011
 506,-0.00008940,-0.00001589,0.00004664,-0.00001336,-0.00000919,-0.0000
 7850,0.00002043,0.00004791,0.00025747,-0.00033658,0.00001402,-0.000182
 62,0.00014193,-0.00019792,-0.00017519,0.00020319,0.00002687,0.00003090
 ,-0.00000688,-0.00001323,-0.00000258,-0.00000180,0.00000266,0.00001335
 ,-0.00000731,-0.00001021,0.00000250,0.00000832,0.00001825,-0.00002145,
 -0.00000484,-0.00024114,0.00000055,0.00002203,-0.00001475,-0.00000737,
 0.00000338,0.00000459,0.00000642,0.00000097,0.00001270,0.00001832,-0.0
 0000675,-0.00608991,-0.00573072,-0.00141201,0.00242933,0.00890163,0.00
 032234,0.00096667,0.00261494,-0.00100057,-0.00034157,0.00156227,0.0002
 0660,0.00000839,-0.00135581,0.00077356,-0.00291570,-0.02415223,0.01678
 153,0.04385635,-0.27521325,0.19602761,0.00029166,-0.00202993,-0.000885
 55,-0.00007071,-0.00005020,0.00034681,0.00055232,0.00017178,0.00097572
 ,0.00143467,-0.00179914,-0.00110838,-0.00114989,-0.00154958,0.00040482
 ,-0.00047509,-0.00065325,-0.00049116,-0.00017614,-0.00012561,0.0000305
 5,-0.00025420,0.00062432,-0.00007402,0.00018654,-0.00000664,0.00002583
 ,-0.00115344,0.00024954,-0.00216284,0.00146937,0.00051101,0.00079027,-
 0.03827998,0.29813197,-0.00004803,0.00005456,-0.00006990,0.00003126,-0
 .00004382,0.00005550,0.00000917,0.00002369,-0.00001062,0.00005812,-0.0
 0005188,-0.00001316,-0.00016667,-0.00001033,0.00000695,0.00003223,-0.0
 0005044,-0.00001835,-0.00004699,0.00005693,-0.00001157,0.00027126,-0.0
 0018772,0.00060727,-0.00042504,-0.00000932,-0.00031537,0.00005224,0.00
 016423,-0.00033488,0.00001902,-0.00002144,0.00005218,-0.00000512,0.000
 00307,-0.00000358,0.00000552,-0.00000196,0.00001078,0.00001653,0.00001
 024,-0.00002511,-0.00002171,0.00000300,0.00000413,0.00025082,0.0000992
 6,0.00001623,-0.00000997,0.00000309,0.00000463,0.00000529,0.00000031,-
 0.00001008,0.00002202,-0.00001664,0.00001578,-0.00012239,-0.00000856,-
 0.00720511,-0.00248806,-0.00285253,0.00160165,-0.00285748,0.00062676,0
 .00221067,0.00141508,-0.00138870,0.00041744,-0.00070255,0.00099741,-0.
 00082095,0.00467773,0.00047952,-0.00200258,-0.05707993,0.21192917,-0.1
 7527244,0.00068945,0.00226138,0.00083289,0.00004480,-0.00044057,-0.000
 14665,-0.00085141,-0.00059268,-0.00123522,0.00286336,-0.00043764,0.002
 48093,0.00041504,0.00030022,-0.00049397,-0.00029020,-0.00006501,-0.000
 65745,-0.00054771,0.00006117,-0.00010502,0.00067810,-0.00029622,-0.001
 84368,0.00023809,0.00010607,0.00004605,0.00100158,0.00080035,0.0009397
 9,-0.00161152,-0.00191945,0.00003969,0.05447807,-0.20958555,0.18125314
 \\-0.00000045,-0.00000171,-0.00000050,-0.00000029,-0.00000264,0.000000
 80,0.00000045,0.00000083,0.00000022,0.00000108,-0.00000214,0.00000081,
 0.00000019,0.00000039,0.00000159,-0.00000093,-0.00000022,0.00000040,-0
 .00000047,-0.00000023,-0.00000094,0.00000040,-0.00000061,0.00000120,-0
 .00000062,-0.00000202,-0.00000077,-0.00000044,-0.00000096,-0.00000204,
 -0.00000071,-0.00000223,-0.00000074,0.00000033,-0.00000167,0.00000110,
 0.00000031,-0.00000224,0.00000084,0.00000037,0.00000117,0.00000129,0.0
 0000103,-0.00000018,0.00000209,0.00000093,-0.00000019,0.00000271,0.000
 00059,-0.00000036,0.00000066,0.00000022,0.00000096,0.00000006,-0.00000
 016,-0.00000102,-0.00000079,-0.00000087,0.00000150,0.00000005,-0.00000
 080,-0.00000126,-0.00000123,-0.00000054,0.00000024,-0.00000041,-0.0000
 0005,0.00000204,-0.00000124,-0.00000045,-0.00000060,-0.00000206,0.0000
 0103,0.00000175,-0.00000035,-0.00000003,0.00000091,-0.00000026,-0.0000
 0006,0.00000002,0.00000150,0.00000037,0.00000122,0.00000030,0.00000074
 ,-0.00000095,0.00000105,-0.00000035,-0.00000023,-0.00000324,-0.0000006
 0,-0.00000043,-0.00000078,-0.00000019,-0.00000044,-0.00000002,0.000000
 52,0.00000191,-0.00000044,-0.00000027,0.00000211,-0.00000059,-0.000000
 39,0.00000454,-0.00000113,0.00000030,0.00000166,0.00000097,0.00000033,
 0.00000041,0.00000099,-0.00000051,0.00000065,-0.00000113\\\@


 There are more things in heaven and earth, Horatio,
 than are dreamt of in your philosophy.
                   -- Hamlet, Act I, Scene 5
 Job cpu time:       0 days  1 hours 14 minutes 31.3 seconds.
 Elapsed time:       0 days  0 hours 18 minutes 42.9 seconds.
 File lengths (MBytes):  RWF=    483 Int=      0 D2E=      0 Chk=      9 Scr=      1
 Normal termination of Gaussian 16 at Tue Aug  9 19:09:13 2022.
real 11049.23
user 43873.42
sys 30.60
