 Entering Gaussian System, Link 0=g16
 Input=gaussian_test.inp
 Output=gaussian_test.log
 Initial command:
 /sw/restricted/lms/sw/Gaussian/g16_B01/g16/l1.exe "/scratch/user/peterchao1/peterchao1/6950551_1675450008000000285083673/Gau-184809.inp" -scrdir="/scratch/user/peterchao1/peterchao1/6950551_1675450008000000285083673/"
 Entering Link 1 = /sw/restricted/lms/sw/Gaussian/g16_B01/g16/l1.exe PID=    184810.
  
 Copyright (c) 1988-2017, Gaussian, Inc.  All Rights Reserved.
  
 This is part of the Gaussian(R) 16 program.  It is based on
 the Gaussian(R) 09 system (copyright 2009, Gaussian, Inc.),
 the Gaussian(R) 03 system (copyright 2003, Gaussian, Inc.),
 the Gaussian(R) 98 system (copyright 1998, Gaussian, Inc.),
 the Gaussian(R) 94 system (copyright 1995, Gaussian, Inc.),
 the Gaussian 92(TM) system (copyright 1992, Gaussian, Inc.),
 the Gaussian 90(TM) system (copyright 1990, Gaussian, Inc.),
 the Gaussian 88(TM) system (copyright 1988, Gaussian, Inc.),
 the Gaussian 86(TM) system (copyright 1986, Carnegie Mellon
 University), and the Gaussian 82(TM) system (copyright 1983,
 Carnegie Mellon University). Gaussian is a federally registered
 trademark of Gaussian, Inc.
  
 This software contains proprietary and confidential information,
 including trade secrets, belonging to Gaussian, Inc.
  
 This software is provided under written license and may be
 used, copied, transmitted, or stored only in accord with that
 written license.
  
 The following legend is applicable only to US Government
 contracts under FAR:
  
                    RESTRICTED RIGHTS LEGEND
  
 Use, reproduction and disclosure by the US Government is
 subject to restrictions as set forth in subparagraphs (a)
 and (c) of the Commercial Computer Software - Restricted
 Rights clause in FAR 52.227-19.
  
 Gaussian, Inc.
 340 Quinnipiac St., Bldg. 40, Wallingford CT 06492
  
  
 ---------------------------------------------------------------
 Warning -- This program may not be used in any manner that
 competes with the business of Gaussian, Inc. or will provide
 assistance to any competitor of Gaussian, Inc.  The licensee
 of this program is prohibited from giving any competitor of
 Gaussian, Inc. access to this program.  By using this program,
 the user acknowledges that Gaussian, Inc. is engaged in the
 business of creating and licensing software in the field of
 computational chemistry and represents and warrants to the
 licensee that it is not a competitor of Gaussian, Inc. and that
 it will not use this program in any manner prohibited above.
 ---------------------------------------------------------------
  

 Cite this work as:
 Gaussian 16, Revision B.01,
 M. J. Frisch, G. W. Trucks, H. B. Schlegel, G. E. Scuseria, 
 M. A. Robb, J. R. Cheeseman, G. Scalmani, V. Barone, 
 G. A. Petersson, H. Nakatsuji, X. Li, M. Caricato, A. V. Marenich, 
 J. Bloino, B. G. Janesko, R. Gomperts, B. Mennucci, H. P. Hratchian, 
 J. V. Ortiz, A. F. Izmaylov, J. L. Sonnenberg, D. Williams-Young, 
 F. Ding, F. Lipparini, F. Egidi, J. Goings, B. Peng, A. Petrone, 
 T. Henderson, D. Ranasinghe, V. G. Zakrzewski, J. Gao, N. Rega, 
 G. Zheng, W. Liang, M. Hada, M. Ehara, K. Toyota, R. Fukuda, 
 J. Hasegawa, M. Ishida, T. Nakajima, Y. Honda, O. Kitao, H. Nakai, 
 T. Vreven, K. Throssell, J. A. Montgomery, Jr., J. E. Peralta, 
 F. Ogliaro, M. J. Bearpark, J. J. Heyd, E. N. Brothers, K. N. Kudin, 
 V. N. Staroverov, T. A. Keith, R. Kobayashi, J. Normand, 
 K. Raghavachari, A. P. Rendell, J. C. Burant, S. S. Iyengar, 
 J. Tomasi, M. Cossi, J. M. Millam, M. Klene, C. Adamo, R. Cammi, 
 J. W. Ochterski, R. L. Martin, K. Morokuma, O. Farkas, 
 J. B. Foresman, and D. J. Fox, Gaussian, Inc., Wallingford CT, 2016.
 
 ******************************************
 Gaussian 16:  ES64L-G16RevB.01 20-Dec-2017
                 3-Feb-2023 
 ******************************************
 %chk=12.chk
 %nprocshared=4
 Will use up to    4 processors via shared memory.
 %mem=8000mb
 --------------------------------------------------------------
 #T wB97XD//def2svpp Volume=tight Geom=AllCheckpoint Guess=Read
 --------------------------------------------------------------
 Structure from the checkpoint file:  "12.chk"
 -----
 Dimer
 -----
 Charge =  0 Multiplicity = 1
 Redundant internal coordinates found in file.  (old form).
 C,0,-2.0301898163,0.067281177,-0.0010122682
 C,0,-0.7577560649,-0.7666095077,0.0018510027
 C,0,0.4976858647,0.0721304341,-0.0008664857
 O,0,1.6053654671,-0.6889509903,0.0017374708
 O,0,0.54300455,1.2730481382,-0.0048644186
 H,0,-2.9184937222,-0.58558244,0.0011016863
 H,0,-2.0761534975,0.7151831046,-0.8912679022
 H,0,-2.0762742439,0.7210978119,0.8849023723
 H,0,-0.709591906,-1.4376370751,-0.8743050887
 H,0,-0.7097041457,-1.4317750163,0.8824720183
 H,0,2.3683140117,-0.0848072261,-0.0002276911
 Recover connectivity data from disk.
                           ----------------------------
                           !    Current Parameters    !
                           ! (Angstroms and Degrees)  !
 --------------------------                            --------------------------
 ! Name  Definition              Value                                          !
 --------------------------------------------------------------------------------
 ! R1    R(1,2)                  1.5213                                         !
 ! R2    R(1,6)                  1.1024                                         !
 ! R3    R(1,7)                  1.102                                          !
 ! R4    R(1,8)                  1.102                                          !
 ! R5    R(2,3)                  1.5098                                         !
 ! R6    R(2,9)                  1.1046                                         !
 ! R7    R(2,10)                 1.1046                                         !
 ! R8    R(3,4)                  1.344                                          !
 ! R9    R(3,5)                  1.2018                                         !
 ! R10   R(4,11)                 0.9732                                         !
 ! A1    A(2,1,6)              110.4466                                         !
 ! A2    A(2,1,7)              111.0181                                         !
 ! A3    A(2,1,8)              111.0181                                         !
 ! A4    A(6,1,7)              108.4282                                         !
 ! A5    A(6,1,8)              108.4282                                         !
 ! A6    A(7,1,8)              107.3899                                         !
 ! A7    A(1,2,3)              113.0146                                         !
 ! A8    A(1,2,9)              111.5887                                         !
 ! A9    A(1,2,10)             111.5886                                         !
 ! A10   A(3,2,9)              107.4438                                         !
 ! A11   A(3,2,10)             107.4437                                         !
 ! A12   A(9,2,10)             105.3444                                         !
 ! A13   A(2,3,4)              111.7607                                         !
 ! A14   A(2,3,5)              125.9075                                         !
 ! A15   A(4,3,5)              122.3318                                         !
 ! A16   A(3,4,11)             107.1328                                         !
 ! D1    D(6,1,2,3)            179.9996                                         !
 ! D2    D(6,1,2,9)             58.7781                                         !
 ! D3    D(6,1,2,10)           -58.779                                          !
 ! D4    D(7,1,2,3)             59.6904                                         !
 ! D5    D(7,1,2,9)            -61.5311                                         !
 ! D6    D(7,1,2,10)          -179.0882                                         !
 ! D7    D(8,1,2,3)            -59.6912                                         !
 ! D8    D(8,1,2,9)            179.0873                                         !
 ! D9    D(8,1,2,10)            61.5302                                         !
 ! D10   D(1,2,3,4)           -179.9997                                         !
 ! D11   D(1,2,3,5)              0.0003                                         !
 ! D12   D(9,2,3,4)            -56.4608                                         !
 ! D13   D(9,2,3,5)            123.5392                                         !
 ! D14   D(10,2,3,4)            56.4614                                         !
 ! D15   D(10,2,3,5)          -123.5385                                         !
 ! D16   D(2,3,4,11)          -179.9999                                         !
 ! D17   D(5,3,4,11)             0.0                                            !
 --------------------------------------------------------------------------------
                    Distance matrix (angstroms):
                    1          2          3          4          5
     1  C    0.000000
     2  C    1.521338   0.000000
     3  C    2.527880   1.509843   0.000000
     4  O    3.713375   2.364397   1.343952   0.000000
     5  O    2.841693   2.419138   1.201779   2.231164   0.000000
     6  H    1.102415   2.168308   3.478918   4.525040   3.928933
     7  H    1.102018   2.175211   2.798389   4.040128   2.820800
     8  H    1.102018   2.175211   2.798395   4.040135   2.820808
     9  H    2.184353   1.104648   2.121276   2.585925   3.110103
    10  H    2.184353   1.104648   2.121275   2.585929   3.110099
    11  H    4.401133   3.199558   1.877200   0.973182   2.274983
                    6          7          8          9         10
     6  H    0.000000
     7  H    1.788254   0.000000
     8  H    1.788254   1.776180   0.000000
     9  H    2.524199   2.549983   3.102059   0.000000
    10  H    2.524204   3.102058   2.549977   1.756787   0.000000
    11  H    5.310472   4.602959   4.602967   3.473854   3.473856
                   11
    11  H    0.000000
 Framework group  C1[X(C3H6O2)]
 Deg. of freedom    27
                         Standard orientation:                         
 ---------------------------------------------------------------------
 Center     Atomic      Atomic             Coordinates (Angstroms)
 Number     Number       Type             X           Y           Z
 ---------------------------------------------------------------------
      1          6           0        1.963188    0.098914    0.000002
      2          6           0        0.691512   -0.736137   -0.000002
      3          6           0       -0.564691    0.101466   -0.000000
      4          8           0       -1.671679   -0.660625    0.000002
      5          8           0       -0.611100    1.302349   -0.000001
      6          1           0        2.852085   -0.553146    0.000007
      7          1           0        2.008617    0.749820    0.888091
      8          1           0        2.008625    0.749816   -0.888089
      9          1           0        0.644011   -1.404285    0.878388
     10          1           0        0.644012   -1.404277   -0.878399
     11          1           0       -2.435176   -0.057172    0.000002
 ---------------------------------------------------------------------
 Rotational constants (GHZ):          10.2370282           3.8187609           2.8809840
    82 basis functions,   149 primitive gaussians,    87 cartesian basis functions
    20 alpha electrons       20 beta electrons
       nuclear repulsion energy       178.4927593384 Hartrees.
 NAtoms=   11 NActive=   11 NUniq=   11 SFac= 1.00D+00 NAtFMM=   60 NAOKFM=F Big=F
 Nuclear repulsion after empirical dispersion term =      178.4891208170 Hartrees.
   1 Symmetry operations used in ECPInt.
 ECPInt:  NShTT=     903 NPrTT=    3653 LenC2=     901 LenP2D=    3054.
 LDataN:  DoStor=T MaxTD1= 4 Len=   56
 Initial guess from the checkpoint file:  "12.chk"
 B after Tr=    -0.000000   -0.000000   -0.000000
         Rot=    1.000000   -0.000000   -0.000000   -0.000000 Ang=   0.00 deg.
 Skip diagonalization as Alpha Fock matrix is already diagonal.
 SCF Done:  E(RwB97XD) =  -268.101685382     A.U. after    1 cycles
            NFock=  1  Conv=0.00D+00     -V/T= 2.0084

 **********************************************************************

            Population analysis using the SCF Density.

 **********************************************************************

 Orbital symmetries:
       Occupied  (A) (A) (A) (A) (A) (A) (A) (A) (A) (A) (A) (A)
                 (A) (A) (A) (A) (A) (A) (A) (A)
       Virtual   (A) (A) (A) (A) (A) (A) (A) (A) (A) (A) (A) (A)
                 (A) (A) (A) (A) (A) (A) (A) (A) (A) (A) (A) (A)
                 (A) (A) (A) (A) (A) (A) (A) (A) (A) (A) (A) (A)
                 (A) (A) (A) (A) (A) (A) (A) (A) (A) (A) (A) (A)
                 (A) (A) (A) (A) (A) (A) (A) (A) (A) (A) (A) (A)
                 (A) (A)
 The electronic state is 1-A.
 Alpha  occ. eigenvalues --  -19.30235 -19.24611 -10.43042 -10.31072 -10.28891
 Alpha  occ. eigenvalues --   -1.20475  -1.10805  -0.88248  -0.76759  -0.67788
 Alpha  occ. eigenvalues --   -0.58979  -0.57436  -0.57041  -0.50848  -0.49799
 Alpha  occ. eigenvalues --   -0.46801  -0.45138  -0.43546  -0.40920  -0.36419
 Alpha virt. eigenvalues --    0.08811   0.13766   0.14898   0.19390   0.19878
 Alpha virt. eigenvalues --    0.21582   0.24636   0.29645   0.31140   0.35821
 Alpha virt. eigenvalues --    0.40276   0.50359   0.53972   0.54569   0.58593
 Alpha virt. eigenvalues --    0.61981   0.63909   0.68452   0.72940   0.75152
 Alpha virt. eigenvalues --    0.75926   0.77712   0.77742   0.79879   0.80368
 Alpha virt. eigenvalues --    0.81074   0.81221   0.93173   1.00136   1.04745
 Alpha virt. eigenvalues --    1.05057   1.09462   1.19316   1.32458   1.35575
 Alpha virt. eigenvalues --    1.46498   1.50829   1.57652   1.65180   1.77916
 Alpha virt. eigenvalues --    1.83145   1.90965   1.95739   2.02696   2.09453
 Alpha virt. eigenvalues --    2.11096   2.26551   2.26985   2.34807   2.37804
 Alpha virt. eigenvalues --    2.52671   2.63127   2.64709   2.72462   2.78228
 Alpha virt. eigenvalues --    2.96825   3.00342   3.12208   3.27768   3.36079
 Alpha virt. eigenvalues --    3.66307   3.71909
          Condensed to atoms (all electrons):
 Mulliken charges:
               1
     1  C   -0.316684
     2  C   -0.274616
     3  C    0.189167
     4  O   -0.371444
     5  O   -0.240842
     6  H    0.123683
     7  H    0.132949
     8  H    0.132948
     9  H    0.144338
    10  H    0.144338
    11  H    0.336163
 Sum of Mulliken charges =  -0.00000
 Mulliken charges with hydrogens summed into heavy atoms:
               1
     1  C    0.072895
     2  C    0.014061
     3  C    0.189167
     4  O   -0.035281
     5  O   -0.240842
 Electronic spatial extent (au):  <R**2>=            441.5091
 Charge=              0.0000 electrons
 Dipole moment (field-independent basis, Debye):
    X=             -0.1366    Y=             -1.4874    Z=             -0.0000  Tot=              1.4937
 Evaluate density.
 Using the total density.
 Monte-Carlo method of calculating molar volume:
 based on  0.001 e/bohr**3 density envelope.
 Number of points per bohr**3 =  100 CutOff= 1.00D-04
 Using the SCF density.
 There are      1541 points.  Will hold      1541 in memory.
 LenV=  1048428538 MDV=  1048576000.
 Box volume = 3665.981 fraction occupied=0.178
 Integrated density= 4.1553072719557044D+01 error= 1.5530727195570435D+00
 Molar volume =  651.836 bohr**3/mol ( 58.169 cm**3/mol)
 Recommended a0 for SCRF calculation =  3.63 angstrom (  6.86 bohr)
 1\1\GINC-C580\SP\RwB97XD\def2SVPP\C3H6O2\PETERCHAO1\03-Feb-2023\0\\#T 
 wB97XD//def2svpp Volume=tight Geom=AllCheckpoint Guess=Read\\Dimer\\0,
 1\C,0,-2.0301898163,0.067281177,-0.0010122682\C,0,-0.7577560649,-0.766
 6095077,0.0018510027\C,0,0.4976858647,0.0721304341,-0.0008664857\O,0,1
 .6053654671,-0.6889509903,0.0017374708\O,0,0.54300455,1.2730481382,-0.
 0048644186\H,0,-2.9184937222,-0.58558244,0.0011016863\H,0,-2.076153497
 5,0.7151831046,-0.8912679022\H,0,-2.0762742439,0.7210978119,0.88490237
 23\H,0,-0.709591906,-1.4376370751,-0.8743050887\H,0,-0.7097041457,-1.4
 317750163,0.8824720183\H,0,2.3683140117,-0.0848072261,-0.0002276911\\V
 ersion=ES64L-G16RevB.01\State=1-A\HF=-268.1016854\RMSD=0.000e+00\Dipol
 e=0.0542904,-0.5851537,0.0019536\Quadrupole=3.3380063,-3.6930503,0.355
 044,0.9284775,-0.002909,0.0135421\PG=C01 [X(C3H6O2)]\\@


 PERICLES, SOPHOCLES,
 PELOPONESIAN WAR,
 FRENCH VERBS, LATIN VERBS
 H2SO4.
 File lengths (MBytes):  RWF=      6 Int=      0 D2E=      0 Chk=      2 Scr=      1
 Normal termination of Gaussian 16 at Fri Feb  3 12:53:18 2023.
