 Entering Gaussian System, Link 0=g16
 Input=gaussian_test.inp
 Output=gaussian_test.log
 Initial command:
 /sw/restricted/lms/sw/Gaussian/g16_B01/g16/l1.exe "/scratch/user/peterchao1/peterchao1/6097805_1659647584000000877367958/Gau-7168.inp" -scrdir="/scratch/user/peterchao1/peterchao1/6097805_1659647584000000877367958/"
 Entering Link 1 = /sw/restricted/lms/sw/Gaussian/g16_B01/g16/l1.exe PID=      7176.
  
 Copyright (c) 1988-2017, Gaussian, Inc.  All Rights Reserved.
  
 This is part of the Gaussian(R) 16 program.  It is based on
 the Gaussian(R) 09 system (copyright 2009, Gaussian, Inc.),
 the Gaussian(R) 03 system (copyright 2003, Gaussian, Inc.),
 the Gaussian(R) 98 system (copyright 1998, Gaussian, Inc.),
 the Gaussian(R) 94 system (copyright 1995, Gaussian, Inc.),
 the Gaussian 92(TM) system (copyright 1992, Gaussian, Inc.),
 the Gaussian 90(TM) system (copyright 1990, Gaussian, Inc.),
 the Gaussian 88(TM) system (copyright 1988, Gaussian, Inc.),
 the Gaussian 86(TM) system (copyright 1986, Carnegie Mellon
 University), and the Gaussian 82(TM) system (copyright 1983,
 Carnegie Mellon University). Gaussian is a federally registered
 trademark of Gaussian, Inc.
  
 This software contains proprietary and confidential information,
 including trade secrets, belonging to Gaussian, Inc.
  
 This software is provided under written license and may be
 used, copied, transmitted, or stored only in accord with that
 written license.
  
 The following legend is applicable only to US Government
 contracts under FAR:
  
                    RESTRICTED RIGHTS LEGEND
  
 Use, reproduction and disclosure by the US Government is
 subject to restrictions as set forth in subparagraphs (a)
 and (c) of the Commercial Computer Software - Restricted
 Rights clause in FAR 52.227-19.
  
 Gaussian, Inc.
 340 Quinnipiac St., Bldg. 40, Wallingford CT 06492
  
  
 ---------------------------------------------------------------
 Warning -- This program may not be used in any manner that
 competes with the business of Gaussian, Inc. or will provide
 assistance to any competitor of Gaussian, Inc.  The licensee
 of this program is prohibited from giving any competitor of
 Gaussian, Inc. access to this program.  By using this program,
 the user acknowledges that Gaussian, Inc. is engaged in the
 business of creating and licensing software in the field of
 computational chemistry and represents and warrants to the
 licensee that it is not a competitor of Gaussian, Inc. and that
 it will not use this program in any manner prohibited above.
 ---------------------------------------------------------------
  

 Cite this work as:
 Gaussian 16, Revision B.01,
 M. J. Frisch, G. W. Trucks, H. B. Schlegel, G. E. Scuseria, 
 M. A. Robb, J. R. Cheeseman, G. Scalmani, V. Barone, 
 G. A. Petersson, H. Nakatsuji, X. Li, M. Caricato, A. V. Marenich, 
 J. Bloino, B. G. Janesko, R. Gomperts, B. Mennucci, H. P. Hratchian, 
 J. V. Ortiz, A. F. Izmaylov, J. L. Sonnenberg, D. Williams-Young, 
 F. Ding, F. Lipparini, F. Egidi, J. Goings, B. Peng, A. Petrone, 
 T. Henderson, D. Ranasinghe, V. G. Zakrzewski, J. Gao, N. Rega, 
 G. Zheng, W. Liang, M. Hada, M. Ehara, K. Toyota, R. Fukuda, 
 J. Hasegawa, M. Ishida, T. Nakajima, Y. Honda, O. Kitao, H. Nakai, 
 T. Vreven, K. Throssell, J. A. Montgomery, Jr., J. E. Peralta, 
 F. Ogliaro, M. J. Bearpark, J. J. Heyd, E. N. Brothers, K. N. Kudin, 
 V. N. Staroverov, T. A. Keith, R. Kobayashi, J. Normand, 
 K. Raghavachari, A. P. Rendell, J. C. Burant, S. S. Iyengar, 
 J. Tomasi, M. Cossi, J. M. Millam, M. Klene, C. Adamo, R. Cammi, 
 J. W. Ochterski, R. L. Martin, K. Morokuma, O. Farkas, 
 J. B. Foresman, and D. J. Fox, Gaussian, Inc., Wallingford CT, 2016.
 
 ******************************************
 Gaussian 16:  ES64L-G16RevB.01 20-Dec-2017
                 4-Aug-2022 
 ******************************************
 %nprocshared=4
 Will use up to    4 processors via shared memory.
 %mem=8000mb
 ----------------------------------------------------------------------
 #T wB97XD/def2svpp opt=tight freq int(grid=ultrafine) scf=(verytight,q
 c)
 ----------------------------------------------------------------------
 --------------
 Comment gs min
 --------------
 Symbolic Z-matrix:
 Charge =  0 Multiplicity = 1
 C                     0.92101  -0.04309  -0.00794 
 C                     2.46263  -0.05724   0.01246 
 C                     2.96862   0.59865   1.31818 
 O                     2.52835   1.94329   1.46099 
 C                     2.97968  -1.50987  -0.02167 
 O                     2.5787   -2.18527  -1.20744 
 C                     3.00616   0.70205  -1.21859 
 O                     2.60924   2.07363  -1.20662 
 H                     0.51456  -0.61742   0.83172 
 H                     0.52916  -0.4807   -0.93144 
 H                     0.5177    0.97388   0.06507 
 H                     4.06262   0.59697   1.35945 
 H                     2.60682   0.04453   2.1918 
 H                     2.74537   2.39897   0.61964 
 H                     2.62145  -2.08504   0.84021 
 H                     4.07497  -1.52839   0.00759 
 H                     1.65679  -2.4731   -1.08931 
 H                     2.6671    0.25704  -2.16096 
 H                     4.10173   0.68527  -1.22229 
 H                     1.69671   2.11036  -1.54598 
 

 GradGradGradGradGradGradGradGradGradGradGradGradGradGradGradGradGradGrad
 Initialization pass.
                           ----------------------------
                           !    Initial Parameters    !
                           ! (Angstroms and Degrees)  !
 --------------------------                            --------------------------
 ! Name  Definition              Value          Derivative Info.                !
 --------------------------------------------------------------------------------
 ! R1    R(1,2)                  1.5418         estimate D2E/DX2                !
 ! R2    R(1,9)                  1.0955         estimate D2E/DX2                !
 ! R3    R(1,10)                 1.0945         estimate D2E/DX2                !
 ! R4    R(1,11)                 1.0965         estimate D2E/DX2                !
 ! R5    R(2,3)                  1.5463         estimate D2E/DX2                !
 ! R6    R(2,5)                  1.5423         estimate D2E/DX2                !
 ! R7    R(2,7)                  1.5451         estimate D2E/DX2                !
 ! R8    R(3,4)                  1.4221         estimate D2E/DX2                !
 ! R9    R(3,12)                 1.0948         estimate D2E/DX2                !
 ! R10   R(3,13)                 1.096          estimate D2E/DX2                !
 ! R11   R(4,14)                 0.9811         estimate D2E/DX2                !
 ! R12   R(5,6)                  1.4223         estimate D2E/DX2                !
 ! R13   R(5,15)                 1.0964         estimate D2E/DX2                !
 ! R14   R(5,16)                 1.0958         estimate D2E/DX2                !
 ! R15   R(6,17)                 0.973          estimate D2E/DX2                !
 ! R16   R(7,8)                  1.4279         estimate D2E/DX2                !
 ! R17   R(7,18)                 1.0959         estimate D2E/DX2                !
 ! R18   R(7,19)                 1.0957         estimate D2E/DX2                !
 ! R19   R(8,20)                 0.9743         estimate D2E/DX2                !
 ! A1    A(2,1,9)              110.8561         estimate D2E/DX2                !
 ! A2    A(2,1,10)             111.4365         estimate D2E/DX2                !
 ! A3    A(2,1,11)             112.0499         estimate D2E/DX2                !
 ! A4    A(9,1,10)             107.7147         estimate D2E/DX2                !
 ! A5    A(9,1,11)             107.3827         estimate D2E/DX2                !
 ! A6    A(10,1,11)            107.1779         estimate D2E/DX2                !
 ! A7    A(1,2,3)              109.5396         estimate D2E/DX2                !
 ! A8    A(1,2,5)              110.0938         estimate D2E/DX2                !
 ! A9    A(1,2,7)              109.6743         estimate D2E/DX2                !
 ! A10   A(3,2,5)              107.9682         estimate D2E/DX2                !
 ! A11   A(3,2,7)              110.4394         estimate D2E/DX2                !
 ! A12   A(5,2,7)              109.1038         estimate D2E/DX2                !
 ! A13   A(2,3,4)              112.6162         estimate D2E/DX2                !
 ! A14   A(2,3,12)             110.9878         estimate D2E/DX2                !
 ! A15   A(2,3,13)             110.5248         estimate D2E/DX2                !
 ! A16   A(4,3,12)             107.8811         estimate D2E/DX2                !
 ! A17   A(4,3,13)             107.2063         estimate D2E/DX2                !
 ! A18   A(12,3,13)            107.401          estimate D2E/DX2                !
 ! A19   A(3,4,14)             106.5324         estimate D2E/DX2                !
 ! A20   A(2,5,6)              111.789          estimate D2E/DX2                !
 ! A21   A(2,5,15)             111.5422         estimate D2E/DX2                !
 ! A22   A(2,5,16)             110.5123         estimate D2E/DX2                !
 ! A23   A(6,5,15)             108.3097         estimate D2E/DX2                !
 ! A24   A(6,5,16)             107.2183         estimate D2E/DX2                !
 ! A25   A(15,5,16)            107.2611         estimate D2E/DX2                !
 ! A26   A(5,6,17)             107.8408         estimate D2E/DX2                !
 ! A27   A(2,7,8)              111.5653         estimate D2E/DX2                !
 ! A28   A(2,7,18)             112.1308         estimate D2E/DX2                !
 ! A29   A(2,7,19)             110.2973         estimate D2E/DX2                !
 ! A30   A(8,7,18)             108.1345         estimate D2E/DX2                !
 ! A31   A(8,7,19)             107.0183         estimate D2E/DX2                !
 ! A32   A(18,7,19)            107.4709         estimate D2E/DX2                !
 ! A33   A(7,8,20)             107.0764         estimate D2E/DX2                !
 ! D1    D(9,1,2,3)            -61.3303         estimate D2E/DX2                !
 ! D2    D(9,1,2,5)             57.2497         estimate D2E/DX2                !
 ! D3    D(9,1,2,7)            177.3091         estimate D2E/DX2                !
 ! D4    D(10,1,2,3)           178.7095         estimate D2E/DX2                !
 ! D5    D(10,1,2,5)           -62.7104         estimate D2E/DX2                !
 ! D6    D(10,1,2,7)            57.3489         estimate D2E/DX2                !
 ! D7    D(11,1,2,3)            58.6196         estimate D2E/DX2                !
 ! D8    D(11,1,2,5)           177.1997         estimate D2E/DX2                !
 ! D9    D(11,1,2,7)           -62.7409         estimate D2E/DX2                !
 ! D10   D(1,2,3,4)            -59.1941         estimate D2E/DX2                !
 ! D11   D(1,2,3,12)           179.7371         estimate D2E/DX2                !
 ! D12   D(1,2,3,13)            60.6829         estimate D2E/DX2                !
 ! D13   D(5,2,3,4)           -179.0842         estimate D2E/DX2                !
 ! D14   D(5,2,3,12)            59.847          estimate D2E/DX2                !
 ! D15   D(5,2,3,13)           -59.2073         estimate D2E/DX2                !
 ! D16   D(7,2,3,4)             61.7039         estimate D2E/DX2                !
 ! D17   D(7,2,3,12)           -59.3649         estimate D2E/DX2                !
 ! D18   D(7,2,3,13)          -178.4191         estimate D2E/DX2                !
 ! D19   D(1,2,5,6)             61.5015         estimate D2E/DX2                !
 ! D20   D(1,2,5,15)           -59.9338         estimate D2E/DX2                !
 ! D21   D(1,2,5,16)          -179.1627         estimate D2E/DX2                !
 ! D22   D(3,2,5,6)           -178.9582         estimate D2E/DX2                !
 ! D23   D(3,2,5,15)            59.6064         estimate D2E/DX2                !
 ! D24   D(3,2,5,16)           -59.6224         estimate D2E/DX2                !
 ! D25   D(7,2,5,6)            -58.9024         estimate D2E/DX2                !
 ! D26   D(7,2,5,15)           179.6623         estimate D2E/DX2                !
 ! D27   D(7,2,5,16)            60.4334         estimate D2E/DX2                !
 ! D28   D(1,2,7,8)             62.0541         estimate D2E/DX2                !
 ! D29   D(1,2,7,18)           -59.4142         estimate D2E/DX2                !
 ! D30   D(1,2,7,19)          -179.1481         estimate D2E/DX2                !
 ! D31   D(3,2,7,8)            -58.7636         estimate D2E/DX2                !
 ! D32   D(3,2,7,18)           179.7681         estimate D2E/DX2                !
 ! D33   D(3,2,7,19)            60.0342         estimate D2E/DX2                !
 ! D34   D(5,2,7,8)           -177.2848         estimate D2E/DX2                !
 ! D35   D(5,2,7,18)            61.2469         estimate D2E/DX2                !
 ! D36   D(5,2,7,19)           -58.4869         estimate D2E/DX2                !
 ! D37   D(2,3,4,14)           -50.394          estimate D2E/DX2                !
 ! D38   D(12,3,4,14)           72.4328         estimate D2E/DX2                !
 ! D39   D(13,3,4,14)         -172.1715         estimate D2E/DX2                !
 ! D40   D(2,5,6,17)           -79.8719         estimate D2E/DX2                !
 ! D41   D(15,5,6,17)           43.4131         estimate D2E/DX2                !
 ! D42   D(16,5,6,17)          158.8657         estimate D2E/DX2                !
 ! D43   D(2,7,8,20)           -80.8501         estimate D2E/DX2                !
 ! D44   D(18,7,8,20)           42.9084         estimate D2E/DX2                !
 ! D45   D(19,7,8,20)          158.4158         estimate D2E/DX2                !
 --------------------------------------------------------------------------------
 Number of steps in this run=    107 maximum allowed number of steps=    120.
 GradGradGradGradGradGradGradGradGradGradGradGradGradGradGradGradGradGrad

                    Distance matrix (angstroms):
                    1          2          3          4          5
     1  C    0.000000
     2  C    1.541820   0.000000
     3  C    2.522525   1.546325   0.000000
     4  O    2.947372   2.470765   1.422072   0.000000
     5  C    2.527796   1.542284   2.498235   3.785009   0.000000
     6  O    2.962376   2.455634   3.779022   4.916102   1.422322
     7  C    2.523640   1.545131   2.539154   2.991509   2.515136
     8  O    2.960989   2.459321   2.946071   2.672017   3.792467
     9  H    1.095484   2.186313   2.781705   3.317916   2.757092
    10  H    1.094487   2.192846   3.489520   3.949204   2.809256
    11  H    1.096457   2.201983   2.778145   2.632691   3.498269
    12  H    3.485562   2.191424   1.094779   2.043740   2.742084
    13  H    2.772812   2.186474   1.095975   2.036058   2.730317
    14  H    3.112202   2.545894   1.943952   0.981128   3.968023
    15  H    2.789339   2.195989   2.747940   4.076945   1.096351
    16  H    3.486233   2.182647   2.732390   4.069025   1.095837
    17  H    2.759652   2.774825   4.117348   5.173794   1.953895
    18  H    2.788262   2.205524   3.508850   3.997651   2.792175
    19  H    3.481686   2.182333   2.783061   3.355314   2.742102
    20  H    2.757648   2.777383   3.479430   3.124325   4.132263
                    6          7          8          9         10
     6  O    0.000000
     7  C    2.918812   0.000000
     8  O    4.259010   1.427908   0.000000
     9  H    3.298030   3.486093   3.972942   0.000000
    10  H    2.679991   2.759870   3.305610   1.768513   0.000000
    11  H    3.980858   2.813202   2.683502   1.766352   1.763226
    12  H    4.065932   2.788089   3.298114   3.787080   4.346825
    13  H    4.065419   3.496079   3.958094   2.581772   3.787765
    14  H    4.937738   2.515281   1.860001   3.757672   3.950941
    15  H    2.050547   3.486335   4.635105   2.567677   3.176528
    16  H    2.036323   2.760568   4.073968   3.766374   3.814735
    17  H    0.972995   3.452404   4.646900   2.904926   2.294805
    18  H    2.623336   1.095927   2.052830   3.788699   2.574251
    19  H    3.249591   1.095705   2.038459   4.334022   3.769262
    20  H    4.398290   1.950687   0.974282   3.806799   2.907649
                   11         12         13         14         15
    11  H    0.000000
    12  H    3.792616   0.000000
    13  H    3.122674   1.765602   0.000000
    14  H    2.702026   2.351525   2.834479   0.000000
    15  H    3.792571   3.088650   2.522316   4.491142   0.000000
    16  H    4.349578   2.518895   3.065993   4.191253   1.765173
    17  H    3.809434   4.605407   4.243430   5.276607   2.191850
    18  H    3.176317   3.802146   4.358361   3.510801   3.807157
    19  H    3.819144   2.583546   3.781708   2.858179   3.757626
    20  H    2.297201   4.040966   4.366572   2.423405   4.914308
                   16         17         18         19         20
    16  H    0.000000
    17  H    2.818379   0.000000
    18  H    3.142048   3.102068   0.000000
    19  H    2.532511   3.996338   1.767101   0.000000
    20  H    4.616297   4.606327   2.180516   2.814210   0.000000
 Framework group  C1[X(C5H12O3)]
 Deg. of freedom    54
                         Standard orientation:                         
 ---------------------------------------------------------------------
 Center     Atomic      Atomic             Coordinates (Angstroms)
 Number     Number       Type             X           Y           Z
 ---------------------------------------------------------------------
      1          6           0       -0.214650   -0.165432    1.555561
      2          6           0       -0.196218   -0.205528    0.014372
      3          6           0        0.834659   -1.254405   -0.463404
      4          8           0        2.151344   -0.975781   -0.004057
      5          6           0       -1.581349   -0.621389   -0.521454
      6          8           0       -2.592509    0.306194   -0.147093
      7          6           0        0.160831    1.192567   -0.538146
      8          8           0        1.464028    1.603547   -0.123787
      9          1           0       -0.512528   -1.135857    1.967421
     10          1           0       -0.919298    0.584784    1.927782
     11          1           0        0.769341    0.079371    1.972754
     12          1           0        0.863866   -1.305825   -1.556585
     13          1           0        0.567119   -2.251483   -0.095414
     14          1           0        2.332559   -0.037911   -0.228050
     15          1           0       -1.872453   -1.613743   -0.157478
     16          1           0       -1.571817   -0.666520   -1.616320
     17          1           0       -2.845983    0.115721    0.772793
     18          1           0       -0.555734    1.957937   -0.219085
     19          1           0        0.161982    1.179353   -1.633771
     20          1           0        1.380400    1.947609    0.783877
 ---------------------------------------------------------------------
 Rotational constants (GHZ):           2.8162550           1.4872922           1.2628994
   136 basis functions,   248 primitive gaussians,   144 cartesian basis functions
    33 alpha electrons       33 beta electrons
       nuclear repulsion energy       433.0765703659 Hartrees.
 NAtoms=   20 NActive=   20 NUniq=   20 SFac= 1.00D+00 NAtFMM=   60 NAOKFM=F Big=F
 Nuclear repulsion after empirical dispersion term =      433.0624811223 Hartrees.
   1 Symmetry operations used in ECPInt.
 ECPInt:  NShTT=    2628 NPrTT=   10580 LenC2=    2607 LenP2D=    8430.
 LDataN:  DoStor=T MaxTD1= 4 Len=   56
 ExpMin= 1.22D-01 ExpMax= 2.27D+03 ExpMxC= 3.41D+02 IAcc=3 IRadAn=         5 AccDes= 0.00D+00
 Harris functional with IExCor= 4639 and IRadAn=       5 diagonalized for initial guess.
 HarFok:  IExCor= 4639 AccDes= 0.00D+00 IRadAn=         5 IDoV= 1 UseB2=F ITyADJ=14
 ICtDFT=  3500011 ScaDFX=  1.000000  1.000000  1.000000  1.000000
 FoFCou: FMM=F IPFlag=           0 FMFlag=      100000 FMFlg1=           0
         NFxFlg=           0 DoJE=T BraDBF=F KetDBF=T FulRan=T
         wScrn=  0.000000 ICntrl=       500 IOpCl=  0 I1Cent=   200000004 NGrid=           0
         NMat0=    1 NMatS0=      1 NMatT0=    0 NMatD0=    1 NMtDS0=    0 NMtDT0=    0
 Petite list used in FoFCou.
     Minimum is close to point  3 DX= -7.58D-03 DF= -1.02D-05 DXR=  1.28D-02 DFR=  1.62D-04 which will be used.
     Accept linear search using points  2 and  3.
     Accept linear search using points  1 and  2.
     Accept linear search using points  2 and  3.
     Accept linear search using points  1 and  2.
     Minimum is close to point  2 DX= -6.73D-05 DF=  0.00D+00 DXR=  6.73D-05 DFR=  0.00D+00 which will be used.
 SCF Done:  E(RwB97XD) =  -422.925699012     a.u. after    7 cycles
            Convg  =    0.8192D-06                    26 Fock formations.
              S**2 =  0.0000                  -V/T =  2.0086

 **********************************************************************

            Population analysis using the SCF Density.

 **********************************************************************

 Orbital symmetries:
       Occupied  (A) (A) (A) (A) (A) (A) (A) (A) (A) (A) (A) (A)
                 (A) (A) (A) (A) (A) (A) (A) (A) (A) (A) (A) (A)
                 (A) (A) (A) (A) (A) (A) (A) (A) (A)
       Virtual   (A) (A) (A) (A) (A) (A) (A) (A) (A) (A) (A) (A)
                 (A) (A) (A) (A) (A) (A) (A) (A) (A) (A) (A) (A)
                 (A) (A) (A) (A) (A) (A) (A) (A) (A) (A) (A) (A)
                 (A) (A) (A) (A) (A) (A) (A) (A) (A) (A) (A) (A)
                 (A) (A) (A) (A) (A) (A) (A) (A) (A) (A) (A) (A)
                 (A) (A) (A) (A) (A) (A) (A) (A) (A) (A) (A) (A)
                 (A) (A) (A) (A) (A) (A) (A) (A) (A) (A) (A) (A)
                 (A) (A) (A) (A) (A) (A) (A) (A) (A) (A) (A) (A)
                 (A) (A) (A) (A) (A) (A) (A)
 The electronic state is 1-A.
 Alpha  occ. eigenvalues --  -19.27225 -19.25784 -19.22292 -10.34530 -10.34476
 Alpha  occ. eigenvalues --  -10.33089 -10.31197 -10.29159  -1.13104  -1.11611
 Alpha  occ. eigenvalues --   -1.08250  -0.90586  -0.79173  -0.77417  -0.75176
 Alpha  occ. eigenvalues --   -0.65716  -0.62714  -0.60532  -0.57934  -0.55701
 Alpha  occ. eigenvalues --   -0.54249  -0.52873  -0.51433  -0.48979  -0.46769
 Alpha  occ. eigenvalues --   -0.46260  -0.45081  -0.44041  -0.41916  -0.40519
 Alpha  occ. eigenvalues --   -0.36548  -0.35419  -0.33311
 Alpha virt. eigenvalues --    0.11160   0.12833   0.14841   0.17111   0.18635
 Alpha virt. eigenvalues --    0.19995   0.20309   0.20723   0.22264   0.24018
 Alpha virt. eigenvalues --    0.25066   0.26262   0.26841   0.27173   0.29539
 Alpha virt. eigenvalues --    0.31987   0.33444   0.34971   0.37739   0.49585
 Alpha virt. eigenvalues --    0.50038   0.51600   0.55545   0.57485   0.62638
 Alpha virt. eigenvalues --    0.63721   0.65042   0.67210   0.68458   0.69644
 Alpha virt. eigenvalues --    0.70737   0.72758   0.74321   0.75856   0.76168
 Alpha virt. eigenvalues --    0.76878   0.77486   0.78852   0.79521   0.81122
 Alpha virt. eigenvalues --    0.81781   0.82771   0.83886   0.84436   0.85341
 Alpha virt. eigenvalues --    0.90582   0.97294   1.00824   1.06729   1.10589
 Alpha virt. eigenvalues --    1.14845   1.15998   1.19087   1.20306   1.23442
 Alpha virt. eigenvalues --    1.25129   1.28233   1.33203   1.34572   1.45095
 Alpha virt. eigenvalues --    1.49024   1.53687   1.59260   1.65249   1.72917
 Alpha virt. eigenvalues --    1.77016   1.79400   1.82356   1.87911   1.91061
 Alpha virt. eigenvalues --    1.91190   2.02456   2.04130   2.06636   2.10240
 Alpha virt. eigenvalues --    2.11740   2.14577   2.18062   2.20923   2.22816
 Alpha virt. eigenvalues --    2.23973   2.25757   2.29901   2.51762   2.56776
 Alpha virt. eigenvalues --    2.63735   2.69368   2.71526   2.72804   2.73022
 Alpha virt. eigenvalues --    2.77415   2.88711   2.90410   2.95475   3.00910
 Alpha virt. eigenvalues --    3.05264   3.06777   3.07478   3.09475   3.13914
 Alpha virt. eigenvalues --    3.43569   3.46308   3.48857
          Condensed to atoms (all electrons):
 Mulliken charges:
               1
     1  C   -0.325158
     2  C   -0.316772
     3  C    0.098738
     4  O   -0.521511
     5  C    0.061148
     6  O   -0.496313
     7  C    0.051205
     8  O   -0.507590
     9  H    0.119913
    10  H    0.107100
    11  H    0.128809
    12  H    0.085833
    13  H    0.096619
    14  H    0.327849
    15  H    0.098913
    16  H    0.107704
    17  H    0.322477
    18  H    0.117711
    19  H    0.110462
    20  H    0.332862
 Sum of Mulliken charges =   0.00000
 Mulliken charges with hydrogens summed into heavy atoms:
               1
     1  C    0.030665
     2  C   -0.316772
     3  C    0.281191
     4  O   -0.193662
     5  C    0.267764
     6  O   -0.173836
     7  C    0.279378
     8  O   -0.174728
 Electronic spatial extent (au):  <R**2>=           1051.9214
 Charge=              0.0000 electrons
 Dipole moment (field-independent basis, Debye):
    X=             -1.9632    Y=              0.5667    Z=              1.4184  Tot=              2.4874
   1 Symmetry operations used in ECPInt.
 ECPInt:  NShTT=    2628 NPrTT=   10580 LenC2=    2607 LenP2D=    8430.
 LDataN:  DoStor=T MaxTD1= 5 Len=  102
 Calling FoFJK, ICntrl=      2127 FMM=F ISym2X=0 I1Cent= 0 IOpClX= 0 NMat=1 NMatS=1 NMatT=0.

 GradGradGradGradGradGradGradGradGradGradGradGradGradGradGradGradGradGrad
 FormGI is forming the generalized inverse of G from B-inverse, IUseBI=4.
 Internal  Forces:  Max     0.012914232 RMS     0.004149493
 Step number   1 out of a maximum of  107
 All quantities printed in internal units (Hartrees-Bohrs-Radians)
 Mixed Optimization -- RFO/linear search
 Second derivative matrix not updated -- first step.
 ITU=  0
     Eigenvalues ---    0.00230   0.00230   0.00230   0.00230   0.01323
     Eigenvalues ---    0.01396   0.01400   0.04574   0.04700   0.04722
     Eigenvalues ---    0.04767   0.04772   0.04907   0.05302   0.05397
     Eigenvalues ---    0.05521   0.05546   0.05560   0.11710   0.11732
     Eigenvalues ---    0.11803   0.13911   0.13936   0.13988   0.14222
     Eigenvalues ---    0.14544   0.16000   0.16000   0.16000   0.16000
     Eigenvalues ---    0.16000   0.16000   0.21998   0.21999   0.22021
     Eigenvalues ---    0.27966   0.28069   0.28318   0.28358   0.34077
     Eigenvalues ---    0.34089   0.34131   0.34137   0.34147   0.34162
     Eigenvalues ---    0.34186   0.34266   0.34299   0.41291   0.42113
     Eigenvalues ---    0.42150   0.51166   0.52512   0.52770
 Linear search not attempted -- first point.
 Iteration  1 RMS(Cart)=  0.09525095 RMS(Int)=  0.00523602
 Iteration  2 RMS(Cart)=  0.00679692 RMS(Int)=  0.00051588
 Iteration  3 RMS(Cart)=  0.00002060 RMS(Int)=  0.00051558
 Iteration  4 RMS(Cart)=  0.00000001 RMS(Int)=  0.00051558
 Variable       Old X    -DE/DX   Delta X   Delta X   Delta X     New X
                                 (Linear)    (Quad)   (Total)
    R1        2.91362  -0.00512   0.00000  -0.01739  -0.01739   2.89622
    R2        2.07016   0.00617   0.00000   0.01751   0.01751   2.08768
    R3        2.06828   0.00743   0.00000   0.02102   0.02102   2.08930
    R4        2.07200   0.00335   0.00000   0.00953   0.00953   2.08153
    R5        2.92213  -0.00202   0.00000  -0.00697  -0.00697   2.91517
    R6        2.91449  -0.00332   0.00000  -0.01130  -0.01130   2.90319
    R7        2.91987  -0.00092   0.00000  -0.00317  -0.00317   2.91670
    R8        2.68733  -0.01145   0.00000  -0.02651  -0.02651   2.66082
    R9        2.06883   0.01067   0.00000   0.03021   0.03021   2.09904
   R10        2.07109   0.00506   0.00000   0.01437   0.01437   2.08546
   R11        1.85406  -0.00806   0.00000  -0.01544  -0.01544   1.83862
   R12        2.68780  -0.00503   0.00000  -0.01165  -0.01165   2.67615
   R13        2.07180   0.00766   0.00000   0.02180   0.02180   2.09361
   R14        2.07083   0.00488   0.00000   0.01386   0.01386   2.08470
   R15        1.83869  -0.00763   0.00000  -0.01417  -0.01417   1.82452
   R16        2.69835  -0.00144   0.00000  -0.00340  -0.00340   2.69495
   R17        2.07100   0.00514   0.00000   0.01460   0.01460   2.08560
   R18        2.07058   0.00494   0.00000   0.01403   0.01403   2.08461
   R19        1.84113  -0.00815   0.00000  -0.01521  -0.01521   1.82591
    A1        1.93480   0.00021   0.00000  -0.00154  -0.00164   1.93316
    A2        1.94493  -0.00100   0.00000  -0.00054  -0.00053   1.94441
    A3        1.95564  -0.00278   0.00000  -0.01889  -0.01898   1.93666
    A4        1.87998   0.00108   0.00000   0.01127   0.01127   1.89124
    A5        1.87418   0.00004   0.00000  -0.00977  -0.00997   1.86422
    A6        1.87061   0.00270   0.00000   0.02089   0.02091   1.89152
    A7        1.91183  -0.00201   0.00000  -0.00211  -0.00243   1.90940
    A8        1.92150   0.00080   0.00000   0.00063   0.00084   1.92234
    A9        1.91418   0.00260   0.00000   0.02546   0.02531   1.93949
   A10        1.88440   0.00096   0.00000  -0.00296  -0.00289   1.88151
   A11        1.92753   0.00158   0.00000   0.01500   0.01467   1.94220
   A12        1.90422  -0.00397   0.00000  -0.03664  -0.03652   1.86770
   A13        1.96552   0.00661   0.00000   0.03351   0.03310   1.99863
   A14        1.93710  -0.00753   0.00000  -0.03508  -0.03685   1.90025
   A15        1.92902  -0.00145   0.00000  -0.02682  -0.02717   1.90185
   A16        1.88288   0.00564   0.00000   0.07485   0.07487   1.95775
   A17        1.87110  -0.00505   0.00000  -0.04278  -0.04222   1.82889
   A18        1.87450   0.00183   0.00000  -0.00338  -0.00396   1.87054
   A19        1.85934   0.00031   0.00000   0.00179   0.00179   1.86113
   A20        1.95109   0.00682   0.00000   0.03366   0.03361   1.98470
   A21        1.94678  -0.00678   0.00000  -0.03532  -0.03630   1.91048
   A22        1.92880  -0.00104   0.00000  -0.01675  -0.01692   1.91188
   A23        1.89036   0.00354   0.00000   0.05054   0.05076   1.94112
   A24        1.87131  -0.00431   0.00000  -0.03039  -0.02999   1.84133
   A25        1.87206   0.00175   0.00000  -0.00186  -0.00236   1.86970
   A26        1.88218   0.00198   0.00000   0.01159   0.01159   1.89377
   A27        1.94718   0.01291   0.00000   0.06252   0.06254   2.00972
   A28        1.95705  -0.00876   0.00000  -0.04643  -0.04796   1.90909
   A29        1.92505  -0.00186   0.00000  -0.01869  -0.01892   1.90613
   A30        1.88730   0.00155   0.00000   0.04365   0.04403   1.93133
   A31        1.86782  -0.00633   0.00000  -0.03511  -0.03447   1.83335
   A32        1.87572   0.00227   0.00000  -0.00701  -0.00799   1.86773
   A33        1.86884   0.00699   0.00000   0.04101   0.04101   1.90984
    D1       -1.07042   0.00120   0.00000   0.00491   0.00484  -1.06558
    D2        0.99920   0.00164   0.00000   0.00039   0.00033   0.99953
    D3        3.09463  -0.00112   0.00000  -0.02842  -0.02845   3.06618
    D4        3.11907   0.00037   0.00000  -0.00793  -0.00796   3.11111
    D5       -1.09450   0.00080   0.00000  -0.01246  -0.01247  -1.10697
    D6        1.00093  -0.00195   0.00000  -0.04127  -0.04125   0.95968
    D7        1.02311  -0.00048   0.00000  -0.02128  -0.02124   1.00186
    D8        3.09272  -0.00004   0.00000  -0.02581  -0.02575   3.06697
    D9       -1.09504  -0.00280   0.00000  -0.05461  -0.05453  -1.14957
   D10       -1.03313   0.00376   0.00000   0.14754   0.14746  -0.88567
   D11        3.13700  -0.00273   0.00000   0.05279   0.05339  -3.09279
   D12        1.05912   0.00075   0.00000   0.09685   0.09653   1.15564
   D13       -3.12561   0.00338   0.00000   0.14976   0.14955  -2.97606
   D14        1.04453  -0.00311   0.00000   0.05501   0.05549   1.10001
   D15       -1.03336   0.00037   0.00000   0.09908   0.09862  -0.93474
   D16        1.07694   0.00670   0.00000   0.18736   0.18721   1.26415
   D17       -1.03611   0.00021   0.00000   0.09261   0.09315  -0.94297
   D18       -3.11400   0.00369   0.00000   0.13668   0.13628  -2.97772
   D19        1.07340   0.00289   0.00000   0.02999   0.02996   1.10337
   D20       -1.04604  -0.00168   0.00000  -0.03385  -0.03336  -1.07940
   D21       -3.12698   0.00122   0.00000   0.00251   0.00233  -3.12465
   D22       -3.12341   0.00150   0.00000   0.02601   0.02576  -3.09765
   D23        1.04033  -0.00307   0.00000  -0.03783  -0.03756   1.00277
   D24       -1.04061  -0.00018   0.00000  -0.00147  -0.00187  -1.04247
   D25       -1.02804   0.00168   0.00000   0.02126   0.02117  -1.00687
   D26        3.13570  -0.00289   0.00000  -0.04257  -0.04215   3.09355
   D27        1.05476   0.00001   0.00000  -0.00621  -0.00646   1.04831
   D28        1.08305   0.00202   0.00000   0.03940   0.03942   1.12246
   D29       -1.03697  -0.00303   0.00000  -0.02892  -0.02800  -1.06498
   D30       -3.12672   0.00113   0.00000   0.02321   0.02298  -3.10374
   D31       -1.02562   0.00183   0.00000   0.01597   0.01558  -1.01004
   D32        3.13754  -0.00322   0.00000  -0.05235  -0.05184   3.08570
   D33        1.04779   0.00094   0.00000  -0.00022  -0.00086   1.04694
   D34       -3.09420   0.00214   0.00000   0.03307   0.03279  -3.06141
   D35        1.06896  -0.00291   0.00000  -0.03525  -0.03463   1.03433
   D36       -1.02079   0.00125   0.00000   0.01688   0.01636  -1.00443
   D37       -0.87954   0.00182   0.00000   0.04920   0.04787  -0.83167
   D38        1.26419   0.00059   0.00000   0.07940   0.08117   1.34537
   D39       -3.00496   0.00297   0.00000   0.09103   0.09058  -2.91438
   D40       -1.39403   0.00085   0.00000   0.00177   0.00093  -1.39310
   D41        0.75770  -0.00075   0.00000   0.01449   0.01550   0.77320
   D42        2.77273   0.00084   0.00000   0.02201   0.02184   2.79457
   D43       -1.41110   0.00166   0.00000   0.02411   0.02271  -1.38839
   D44        0.74889   0.00019   0.00000   0.03704   0.03859   0.78748
   D45        2.76488   0.00038   0.00000   0.03264   0.03249   2.79737
         Item               Value     Threshold  Converged?
 Maximum Force            0.012914     0.000015     NO 
 RMS     Force            0.004149     0.000010     NO 
 Maximum Displacement     0.509245     0.000060     NO 
 RMS     Displacement     0.096507     0.000040     NO 
 GradGradGradGradGradGradGradGradGradGradGradGradGradGradGradGradGradGrad

                    Distance matrix (angstroms):
                    1          2          3          4          5
     1  C    0.000000
     2  C    1.532615   0.000000
     3  C    2.509844   1.542640   0.000000
     4  O    2.887100   2.482887   1.408045   0.000000
     5  C    2.516090   1.536305   2.487803   3.770896   0.000000
     6  O    3.001020   2.473005   3.779815   4.935138   1.416156
     7  C    2.536967   1.543451   2.547592   3.133257   2.475870
     8  O    3.067632   2.507358   3.016566   2.938758   3.789473
     9  H    1.104752   2.183985   2.768855   3.198272   2.748582
    10  H    1.105612   2.192759   3.488013   3.920138   2.808652
    11  H    1.101500   2.184063   2.740765   2.543555   3.482499
    12  H    3.470278   2.173076   1.110766   2.096859   2.733973
    13  H    2.787852   2.168946   1.103579   1.998421   2.652743
    14  H    2.966151   2.547427   1.927071   0.972956   3.991404
    15  H    2.768309   2.172986   2.692256   3.966879   1.107889
    16  H    3.473100   2.170502   2.710842   4.074306   1.103174
    17  H    2.817792   2.799865   4.137349   5.184053   1.950795
    18  H    2.783388   2.175079   3.498213   4.125707   2.691561
    19  H    3.485836   2.172501   2.781397   3.527788   2.674238
    20  H    2.906761   2.845474   3.538991   3.306047   4.174544
                    6          7          8          9         10
     6  O    0.000000
     7  C    2.890347   0.000000
     8  O    4.258292   1.426108   0.000000
     9  H    3.338224   3.501260   4.093464   0.000000
    10  H    2.733249   2.764732   3.380594   1.792299   0.000000
    11  H    4.026498   2.843378   2.826757   1.771353   1.789842
    12  H    4.042010   2.731215   3.259162   3.792301   4.333813
    13  H    4.007356   3.489765   4.066339   2.591720   3.802448
    14  H    4.989776   2.701047   2.135175   3.568438   3.845404
    15  H    2.090110   3.450337   4.646259   2.539145   3.189149
    16  H    2.014322   2.698629   4.019298   3.759325   3.814894
    17  H    0.965497   3.428981   4.675571   2.975248   2.359341
    18  H    2.519663   1.103655   2.088618   3.773773   2.554931
    19  H    3.179084   1.103130   2.016760   4.330738   3.771539
    20  H    4.468094   1.970779   0.966232   3.970918   3.038996
                   11         12         13         14         15
    11  H    0.000000
    12  H    3.748563   0.000000
    13  H    3.144963   1.782018   0.000000
    14  H    2.464890   2.435702   2.796412   0.000000
    15  H    3.756861   3.062831   2.380312   4.419236   0.000000
    16  H    4.324645   2.487319   2.965276   4.269692   1.778825
    17  H    3.878734   4.606450   4.223286   5.288390   2.249649
    18  H    3.224671   3.734159   4.315339   3.686024   3.724028
    19  H    3.843535   2.503109   3.734904   3.146188   3.686150
    20  H    2.480560   4.002895   4.489227   2.507577   4.975288
                   16         17         18         19         20
    16  H    0.000000
    17  H    2.805147   0.000000
    18  H    3.031191   2.995224   0.000000
    19  H    2.423712   3.934632   1.774089   0.000000
    20  H    4.607029   4.708888   2.265992   2.815872   0.000000
 Framework group  C1[X(C5H12O3)]
 Deg. of freedom    54
                         Standard orientation:                         
 ---------------------------------------------------------------------
 Center     Atomic      Atomic             Coordinates (Angstroms)
 Number     Number       Type             X           Y           Z
 ---------------------------------------------------------------------
      1          6           0       -0.149424   -0.326782    1.539415
      2          6           0       -0.168677   -0.202327    0.011982
      3          6           0        0.878134   -1.160150   -0.593410
      4          8           0        2.163423   -1.053448   -0.028400
      5          6           0       -1.546529   -0.606357   -0.534384
      6          8           0       -2.600448    0.233455   -0.099103
      7          6           0        0.083063    1.254717   -0.430614
      8          8           0        1.369021    1.775000   -0.099855
      9          1           0       -0.406173   -1.354865    1.851831
     10          1           0       -0.867462    0.369807    2.010119
     11          1           0        0.854433   -0.113546    1.939544
     12          1           0        0.892509   -1.026326   -1.695991
     13          1           0        0.568951   -2.200878   -0.395480
     14          1           0        2.376853   -0.104646    0.001028
     15          1           0       -1.747693   -1.666054   -0.281417
     16          1           0       -1.544007   -0.529919   -1.634904
     17          1           0       -2.850892   -0.028012    0.795937
     18          1           0       -0.714448    1.902785   -0.028075
     19          1           0        0.023886    1.315396   -1.530483
     20          1           0        1.378679    2.041596    0.828820
 ---------------------------------------------------------------------
 Rotational constants (GHZ):           2.6563504           1.5054830           1.2414279
   136 basis functions,   248 primitive gaussians,   144 cartesian basis functions
    33 alpha electrons       33 beta electrons
       nuclear repulsion energy       431.0077369937 Hartrees.
 NAtoms=   20 NActive=   20 NUniq=   20 SFac= 1.00D+00 NAtFMM=   60 NAOKFM=F Big=F
 Nuclear repulsion after empirical dispersion term =      430.9935109311 Hartrees.
   1 Symmetry operations used in ECPInt.
 ECPInt:  NShTT=    2628 NPrTT=   10580 LenC2=    2607 LenP2D=    8423.
 LDataN:  DoStor=T MaxTD1= 4 Len=   56
 Initial guess from the checkpoint file:  "/scratch/user/peterchao1/peterchao1/6097805_1659647584000000877367958/Gau-7176.chk"
 B after Tr=    -0.000000   -0.000000   -0.000000
         Rot=    0.999155   -0.037614   -0.006596   -0.015178 Ang=  -4.71 deg.
 ExpMin= 1.22D-01 ExpMax= 2.27D+03 ExpMxC= 3.41D+02 IAcc=3 IRadAn=         5 AccDes= 0.00D+00
 Harris functional with IExCor= 4639 and IRadAn=       5 diagonalized for initial guess.
 HarFok:  IExCor= 4639 AccDes= 0.00D+00 IRadAn=         5 IDoV= 1 UseB2=F ITyADJ=14
 ICtDFT=  3500011 ScaDFX=  1.000000  1.000000  1.000000  1.000000
 FoFCou: FMM=F IPFlag=           0 FMFlag=      100000 FMFlg1=           0
         NFxFlg=           0 DoJE=T BraDBF=F KetDBF=T FulRan=T
         wScrn=  0.000000 ICntrl=       500 IOpCl=  0 I1Cent=   200000004 NGrid=           0
         NMat0=    1 NMatS0=      1 NMatT0=    0 NMatD0=    1 NMtDS0=    0 NMtDT0=    0
 Petite list used in FoFCou.
     Minimum is close to point  4 DX=  3.49D-02 DF= -1.26D-05 DXR=  2.83D-02 DFR=  7.99D-04 which will be used.
     Accept linear search using points  1 and  2.
     Minimum is close to point  2 DX= -6.14D-02 DF= -5.93D-06 DXR=  6.54D-02 DFR=  4.30D-03 which will be used.
     Accept linear search using points  1 and  2.
     Accept linear search using points  1 and  2.
     Accept linear search using points  1 and  2.
     Accept linear search using points  1 and  2.
     Minimum is close to point  2 DX= -1.09D-06 DF=  0.00D+00 DXR=  1.09D-06 DFR=  0.00D+00 which will be used.
 SCF Done:  E(RwB97XD) =  -422.927955190     a.u. after   11 cycles
            Convg  =    0.1316D-08                    40 Fock formations.
              S**2 =  0.0000                  -V/T =  2.0087
   1 Symmetry operations used in ECPInt.
 ECPInt:  NShTT=    2628 NPrTT=   10580 LenC2=    2607 LenP2D=    8423.
 LDataN:  DoStor=T MaxTD1= 5 Len=  102
 Calling FoFJK, ICntrl=      2127 FMM=F ISym2X=0 I1Cent= 0 IOpClX= 0 NMat=1 NMatS=1 NMatT=0.

 GradGradGradGradGradGradGradGradGradGradGradGradGradGradGradGradGradGrad
 Using GEDIIS/GDIIS optimizer.
 FormGI is forming the generalized inverse of G from B-inverse, IUseBI=4.
 Internal  Forces:  Max     0.012629153 RMS     0.002613236
 Step number   2 out of a maximum of  107
 All quantities printed in internal units (Hartrees-Bohrs-Radians)
 Mixed Optimization -- RFO/linear search
 Trust test= 3.56D-01 RLast= 4.59D-01 DXMaxT set to 3.00D-01
 ITU=  0  0
 Use linear search instead of GDIIS.
     Eigenvalues ---    0.00230   0.00230   0.00230   0.00316   0.01324
     Eigenvalues ---    0.01393   0.01497   0.04286   0.04401   0.04538
     Eigenvalues ---    0.04809   0.05027   0.05302   0.05353   0.05506
     Eigenvalues ---    0.05720   0.05805   0.06046   0.10972   0.11810
     Eigenvalues ---    0.11909   0.13410   0.14086   0.14133   0.14316
     Eigenvalues ---    0.15350   0.15883   0.16000   0.16000   0.16000
     Eigenvalues ---    0.16000   0.16200   0.21613   0.22065   0.25672
     Eigenvalues ---    0.27842   0.28047   0.28324   0.29829   0.32109
     Eigenvalues ---    0.34078   0.34105   0.34135   0.34144   0.34164
     Eigenvalues ---    0.34185   0.34226   0.34301   0.41227   0.41641
     Eigenvalues ---    0.42293   0.50937   0.52308   0.52697
 Quartic linear search produced a step of -0.36753.
 Iteration  1 RMS(Cart)=  0.09871768 RMS(Int)=  0.00589531
 Iteration  2 RMS(Cart)=  0.00775376 RMS(Int)=  0.00019647
 Iteration  3 RMS(Cart)=  0.00003157 RMS(Int)=  0.00019473
 Iteration  4 RMS(Cart)=  0.00000002 RMS(Int)=  0.00019473
 Variable       Old X    -DE/DX   Delta X   Delta X   Delta X     New X
                                 (Linear)    (Quad)   (Total)
    R1        2.89622   0.00005   0.00639  -0.01373  -0.00734   2.88889
    R2        2.08768   0.00011  -0.00644   0.01419   0.00775   2.09543
    R3        2.08930  -0.00016  -0.00773   0.01647   0.00874   2.09804
    R4        2.08153   0.00026  -0.00350   0.00809   0.00459   2.08612
    R5        2.91517  -0.00292   0.00256  -0.01229  -0.00973   2.90543
    R6        2.90319   0.00178   0.00415  -0.00493  -0.00078   2.90241
    R7        2.91670  -0.00685   0.00117  -0.01827  -0.01711   2.89959
    R8        2.66082  -0.00586   0.00974  -0.03020  -0.02046   2.64036
    R9        2.09904   0.00053  -0.01110   0.02510   0.01400   2.11304
   R10        2.08546   0.00103  -0.00528   0.01341   0.00813   2.09359
   R11        1.83862  -0.00009   0.00568  -0.01247  -0.00680   1.83182
   R12        2.67615  -0.00547   0.00428  -0.01773  -0.01345   2.66270
   R13        2.09361   0.00064  -0.00801   0.01862   0.01060   2.10421
   R14        2.08470   0.00054  -0.00510   0.01208   0.00699   2.09168
   R15        1.82452   0.00021   0.00521  -0.01109  -0.00588   1.81864
   R16        2.69495  -0.00609   0.00125  -0.01227  -0.01102   2.68393
   R17        2.08560   0.00071  -0.00537   0.01300   0.00763   2.09323
   R18        2.08461   0.00007  -0.00516   0.01134   0.00618   2.09079
   R19        1.82591   0.00020   0.00559  -0.01194  -0.00635   1.81957
    A1        1.93316   0.00007   0.00060  -0.00083  -0.00020   1.93296
    A2        1.94441  -0.00012   0.00019  -0.00112  -0.00093   1.94347
    A3        1.93666   0.00076   0.00697  -0.01196  -0.00497   1.93170
    A4        1.89124   0.00008  -0.00414   0.00921   0.00506   1.89631
    A5        1.86422  -0.00048   0.00366  -0.00957  -0.00585   1.85836
    A6        1.89152  -0.00035  -0.00769   0.01472   0.00703   1.89855
    A7        1.90940   0.00315   0.00089   0.00520   0.00601   1.91540
    A8        1.92234  -0.00165  -0.00031   0.00663   0.00618   1.92852
    A9        1.93949  -0.00131  -0.00930   0.00635  -0.00301   1.93648
   A10        1.88151   0.00026   0.00106   0.00759   0.00864   1.89015
   A11        1.94220  -0.00463  -0.00539  -0.02247  -0.02774   1.91446
   A12        1.86770   0.00419   0.01342  -0.00323   0.01021   1.87791
   A13        1.99863  -0.00623  -0.01217   0.00603  -0.00607   1.99255
   A14        1.90025   0.00277   0.01355  -0.03219  -0.01807   1.88217
   A15        1.90185   0.00031   0.00999  -0.00892   0.00118   1.90303
   A16        1.95775  -0.00145  -0.02752   0.02837   0.00064   1.95840
   A17        1.82889   0.00576   0.01552   0.00735   0.02263   1.85152
   A18        1.87054  -0.00076   0.00146  -0.00016   0.00146   1.87200
   A19        1.86113  -0.00103  -0.00066  -0.00272  -0.00338   1.85775
   A20        1.98470   0.00033  -0.01235   0.02726   0.01494   1.99964
   A21        1.91048  -0.00043   0.01334  -0.03329  -0.01966   1.89082
   A22        1.91188   0.00026   0.00622  -0.00857  -0.00233   1.90955
   A23        1.94112  -0.00052  -0.01865   0.03229   0.01364   1.95476
   A24        1.84133   0.00042   0.01102  -0.01700  -0.00611   1.83522
   A25        1.86970  -0.00003   0.00087  -0.00189  -0.00093   1.86877
   A26        1.89377   0.00128  -0.00426   0.01428   0.01002   1.90379
   A27        2.00972  -0.01263  -0.02299   0.00917  -0.01384   1.99589
   A28        1.90909   0.00314   0.01763  -0.02955  -0.01129   1.89780
   A29        1.90613   0.00210   0.00695  -0.00902  -0.00206   1.90407
   A30        1.93133   0.00444  -0.01618   0.04232   0.02599   1.95732
   A31        1.83335   0.00443   0.01267  -0.01618  -0.00387   1.82948
   A32        1.86773  -0.00077   0.00294   0.00308   0.00632   1.87405
   A33        1.90984  -0.00202  -0.01507   0.02426   0.00918   1.91903
    D1       -1.06558  -0.00185  -0.00178  -0.00314  -0.00495  -1.07052
    D2        0.99953  -0.00061  -0.00012   0.01324   0.01315   1.01268
    D3        3.06618   0.00271   0.01046   0.01744   0.02793   3.09411
    D4        3.11111  -0.00192   0.00293  -0.01349  -0.01060   3.10051
    D5       -1.10697  -0.00068   0.00458   0.00289   0.00749  -1.09947
    D6        0.95968   0.00264   0.01516   0.00709   0.02228   0.98195
    D7        1.00186  -0.00192   0.00781  -0.02325  -0.01550   0.98637
    D8        3.06697  -0.00068   0.00946  -0.00686   0.00260   3.06957
    D9       -1.14957   0.00264   0.02004  -0.00267   0.01738  -1.13218
   D10       -0.88567  -0.00314  -0.05420  -0.12754  -0.18164  -1.06731
   D11       -3.09279   0.00128  -0.01962  -0.14369  -0.16357   3.02683
   D12        1.15564   0.00048  -0.03548  -0.12068  -0.15602   0.99962
   D13       -2.97606  -0.00310  -0.05497  -0.14297  -0.19784   3.10929
   D14        1.10001   0.00132  -0.02039  -0.15912  -0.17976   0.92025
   D15       -0.93474   0.00052  -0.03625  -0.13611  -0.17222  -1.10696
   D16        1.26415  -0.00574  -0.06881  -0.13105  -0.19974   1.06441
   D17       -0.94297  -0.00132  -0.03423  -0.14720  -0.18166  -1.12463
   D18       -2.97772  -0.00212  -0.05009  -0.12419  -0.17412   3.13134
   D19        1.10337  -0.00164  -0.01101   0.00254  -0.00847   1.09490
   D20       -1.07940  -0.00087   0.01226  -0.03410  -0.02194  -1.10134
   D21       -3.12465  -0.00073  -0.00086  -0.00753  -0.00833  -3.13297
   D22       -3.09765   0.00138  -0.00947   0.01720   0.00777  -3.08988
   D23        1.00277   0.00215   0.01380  -0.01945  -0.00570   0.99707
   D24       -1.04247   0.00229   0.00069   0.00713   0.00791  -1.03456
   D25       -1.00687  -0.00166  -0.00778  -0.00699  -0.01477  -1.02164
   D26        3.09355  -0.00089   0.01549  -0.04364  -0.02824   3.06531
   D27        1.04831  -0.00074   0.00237  -0.01706  -0.01463   1.03367
   D28        1.12246  -0.00027  -0.01449  -0.01354  -0.02797   1.09449
   D29       -1.06498   0.00082   0.01029  -0.05302  -0.04301  -1.10798
   D30       -3.10374  -0.00122  -0.00845  -0.03478  -0.04305   3.13639
   D31       -1.01004  -0.00014  -0.00573  -0.00890  -0.01457  -1.02462
   D32        3.08570   0.00096   0.01905  -0.04838  -0.02961   3.05610
   D33        1.04694  -0.00109   0.00032  -0.03014  -0.02965   1.01728
   D34       -3.06141  -0.00043  -0.01205  -0.00379  -0.01574  -3.07715
   D35        1.03433   0.00067   0.01273  -0.04327  -0.03077   1.00356
   D36       -1.00443  -0.00138  -0.00601  -0.02503  -0.03082  -1.03525
   D37       -0.83167  -0.00055  -0.01759  -0.01230  -0.02938  -0.86105
   D38        1.34537  -0.00304  -0.02983  -0.02764  -0.05818   1.28718
   D39       -2.91438  -0.00131  -0.03329  -0.00960  -0.04270  -2.95708
   D40       -1.39310   0.00099  -0.00034   0.02424   0.02413  -1.36897
   D41        0.77320   0.00026  -0.00570   0.02634   0.02036   0.79356
   D42        2.79457   0.00021  -0.00803   0.03051   0.02253   2.81710
   D43       -1.38839  -0.00000  -0.00835   0.00894   0.00119  -1.38720
   D44        0.78748  -0.00196  -0.01418   0.01130  -0.00355   0.78393
   D45        2.79737   0.00165  -0.01194   0.02618   0.01430   2.81167
         Item               Value     Threshold  Converged?
 Maximum Force            0.012629     0.000015     NO 
 RMS     Force            0.002613     0.000010     NO 
 Maximum Displacement     0.552937     0.000060     NO 
 RMS     Displacement     0.098677     0.000040     NO 
 GradGradGradGradGradGradGradGradGradGradGradGradGradGradGradGradGradGrad

                    Distance matrix (angstroms):
                    1          2          3          4          5
     1  C    0.000000
     2  C    1.528734   0.000000
     3  C    2.507781   1.537489   0.000000
     4  O    2.969985   2.464727   1.397217   0.000000
     5  C    2.517982   1.535891   2.491101   3.766180   0.000000
     6  O    3.011860   2.478736   3.780551   4.925414   1.409038
     7  C    2.523688   1.534399   2.511577   2.970518   2.477548
     8  O    3.021614   2.483752   2.963741   2.715610   3.778554
     9  H    1.108854   2.183520   2.772780   3.347652   2.759248
    10  H    1.110237   2.192175   3.488216   3.979265   2.809392
    11  H    1.103926   2.178882   2.730427   2.629150   3.483394
    12  H    3.462576   2.160462   1.118173   2.093694   2.638117
    13  H    2.715026   2.168498   1.107880   2.009313   2.743370
    14  H    3.131064   2.535129   1.912736   0.969359   3.936691
    15  H    2.767979   2.162144   2.680444   4.005694   1.113500
    16  H    3.475454   2.171175   2.712668   4.016545   1.106872
    17  H    2.827684   2.801659   4.141687   5.216488   1.948864
    18  H    2.782013   2.161765   3.467193   4.002645   2.671549
    19  H    3.476323   2.165465   2.725193   3.289803   2.692023
    20  H    2.861628   2.825479   3.497338   3.154978   4.161653
                    6          7          8          9         10
     6  O    0.000000
     7  C    2.917258   0.000000
     8  O    4.272798   1.420274   0.000000
     9  H    3.353932   3.492736   4.046649   0.000000
    10  H    2.745514   2.763213   3.350144   1.802657   0.000000
    11  H    4.039782   2.819619   2.761611   1.772728   1.800104
    12  H    3.961534   2.763855   3.350370   3.751600   4.324906
    13  H    4.074724   3.470736   3.976518   2.513177   3.753760
    14  H    4.938843   2.498058   1.905660   3.782094   3.974693
    15  H    2.097791   3.444123   4.618242   2.544976   3.197297
    16  H    2.006432   2.696664   4.014720   3.772099   3.816049
    17  H    0.962383   3.442932   4.671451   2.995695   2.366928
    18  H    2.527873   1.107692   2.104826   3.777426   2.562607
    19  H    3.231047   1.106400   2.011283   4.325525   3.780972
    20  H    4.479744   1.969166   0.962873   3.924220   3.005933
                   11         12         13         14         15
    11  H    0.000000
    12  H    3.777760   0.000000
    13  H    3.021526   1.792413   0.000000
    14  H    2.708422   2.404820   2.803197   0.000000
    15  H    3.752703   2.912704   2.459212   4.416934   0.000000
    16  H    4.323283   2.378743   3.097344   4.121597   1.785706
    17  H    3.891767   4.527231   4.272601   5.302453   2.271291
    18  H    3.224283   3.735292   4.303856   3.537134   3.711658
    19  H    3.814377   2.509059   3.741598   2.802014   3.689635
    20  H    2.417910   4.088579   4.381317   2.439510   4.948624
                   16         17         18         19         20
    16  H    0.000000
    17  H    2.804014   0.000000
    18  H    2.999596   2.996076   0.000000
    19  H    2.435819   3.972509   1.784115   0.000000
    20  H    4.599640   4.701629   2.291285   2.814851   0.000000
 Framework group  C1[X(C5H12O3)]
 Deg. of freedom    54
                         Standard orientation:                         
 ---------------------------------------------------------------------
 Center     Atomic      Atomic             Coordinates (Angstroms)
 Number     Number       Type             X           Y           Z
 ---------------------------------------------------------------------
      1          6           0       -0.211665   -0.240221    1.572261
      2          6           0       -0.188642   -0.211375    0.043973
      3          6           0        0.839034   -1.228205   -0.479296
      4          8           0        2.151047   -0.978163   -0.069032
      5          6           0       -1.567009   -0.584207   -0.521765
      6          8           0       -2.602764    0.306207   -0.175697
      7          6           0        0.161372    1.190216   -0.473146
      8          8           0        1.453775    1.646217   -0.100406
      9          1           0       -0.512397   -1.241495    1.941812
     10          1           0       -0.915751    0.515035    1.980277
     11          1           0        0.795028   -0.044974    1.981041
     12          1           0        0.744798   -1.268435   -1.592765
     13          1           0        0.582416   -2.233648   -0.091185
     14          1           0        2.323110   -0.042526   -0.255140
     15          1           0       -1.798270   -1.630693   -0.219659
     16          1           0       -1.527723   -0.566411   -1.627797
     17          1           0       -2.885014    0.125094    0.726364
     18          1           0       -0.635557    1.893671   -0.161640
     19          1           0        0.174759    1.174975   -1.579361
     20          1           0        1.439593    1.968079    0.806969
 ---------------------------------------------------------------------
 Rotational constants (GHZ):           2.7955348           1.4871115           1.2604824
   136 basis functions,   248 primitive gaussians,   144 cartesian basis functions
    33 alpha electrons       33 beta electrons
       nuclear repulsion energy       433.5324723570 Hartrees.
 NAtoms=   20 NActive=   20 NUniq=   20 SFac= 1.00D+00 NAtFMM=   60 NAOKFM=F Big=F
 Nuclear repulsion after empirical dispersion term =      433.5182863157 Hartrees.
   1 Symmetry operations used in ECPInt.
 ECPInt:  NShTT=    2628 NPrTT=   10580 LenC2=    2607 LenP2D=    8429.
 LDataN:  DoStor=T MaxTD1= 4 Len=   56
 Initial guess from the checkpoint file:  "/scratch/user/peterchao1/peterchao1/6097805_1659647584000000877367958/Gau-7176.chk"
 B after Tr=     0.000000   -0.000000    0.000000
         Rot=    0.999645    0.022047    0.005593    0.013888 Ang=   3.05 deg.
 ExpMin= 1.22D-01 ExpMax= 2.27D+03 ExpMxC= 3.41D+02 IAcc=3 IRadAn=         5 AccDes= 0.00D+00
 Harris functional with IExCor= 4639 and IRadAn=       5 diagonalized for initial guess.
 HarFok:  IExCor= 4639 AccDes= 0.00D+00 IRadAn=         5 IDoV= 1 UseB2=F ITyADJ=14
 ICtDFT=  3500011 ScaDFX=  1.000000  1.000000  1.000000  1.000000
 FoFCou: FMM=F IPFlag=           0 FMFlag=      100000 FMFlg1=           0
         NFxFlg=           0 DoJE=T BraDBF=F KetDBF=T FulRan=T
         wScrn=  0.000000 ICntrl=       500 IOpCl=  0 I1Cent=   200000004 NGrid=           0
         NMat0=    1 NMatS0=      1 NMatT0=    0 NMatD0=    1 NMtDS0=    0 NMtDT0=    0
 Petite list used in FoFCou.
     Minimum is close to point  4 DX=  5.94D-02 DF= -3.50D-05 DXR=  4.71D-02 DFR=  2.23D-03 which will be used.
     Accept linear search using points  2 and  3.
     Accept linear search using points  1 and  2.
     Accept linear search using points  1 and  2.
     Accept linear search using points  1 and  2.
     Accept linear search using points  1 and  2.
     Accept linear search using points  1 and  2.
     Minimum is close to point  2 DX= -1.52D-04 DF= -9.66D-13 DXR=  1.52D-04 DFR=  2.37D-08 which will be used.
 SCF Done:  E(RwB97XD) =  -422.928886346     a.u. after   11 cycles
            Convg  =    0.1251D-08                    41 Fock formations.
              S**2 =  0.0000                  -V/T =  2.0086
   1 Symmetry operations used in ECPInt.
 ECPInt:  NShTT=    2628 NPrTT=   10580 LenC2=    2607 LenP2D=    8429.
 LDataN:  DoStor=T MaxTD1= 5 Len=  102
 Calling FoFJK, ICntrl=      2127 FMM=F ISym2X=0 I1Cent= 0 IOpClX= 0 NMat=1 NMatS=1 NMatT=0.

 GradGradGradGradGradGradGradGradGradGradGradGradGradGradGradGradGradGrad
 Using GEDIIS/GDIIS optimizer.
 FormGI is forming the generalized inverse of G from B-inverse, IUseBI=4.
 Internal  Forces:  Max     0.004491853 RMS     0.001531276
 Step number   3 out of a maximum of  107
 All quantities printed in internal units (Hartrees-Bohrs-Radians)
 Mixed Optimization -- RFO/linear search
 Trust test= 4.75D-01 RLast= 5.61D-01 DXMaxT set to 3.00D-01
 ITU=  0  0  0
 Use linear search instead of GDIIS.
     Eigenvalues ---    0.00227   0.00230   0.00231   0.00570   0.01303
     Eigenvalues ---    0.01374   0.01636   0.04483   0.04511   0.04641
     Eigenvalues ---    0.04756   0.05151   0.05249   0.05351   0.05563
     Eigenvalues ---    0.05770   0.05852   0.06073   0.11416   0.11777
     Eigenvalues ---    0.11841   0.13671   0.14104   0.14124   0.14344
     Eigenvalues ---    0.15213   0.15803   0.16000   0.16000   0.16000
     Eigenvalues ---    0.16167   0.16770   0.21857   0.22351   0.25635
     Eigenvalues ---    0.27962   0.28241   0.28499   0.30253   0.31131
     Eigenvalues ---    0.34079   0.34109   0.34135   0.34149   0.34164
     Eigenvalues ---    0.34189   0.34236   0.34360   0.39534   0.41612
     Eigenvalues ---    0.42414   0.51436   0.52597   0.53294
 Quartic linear search produced a step of -0.34512.
 Iteration  1 RMS(Cart)=  0.05501351 RMS(Int)=  0.00155594
 Iteration  2 RMS(Cart)=  0.00194956 RMS(Int)=  0.00003539
 Iteration  3 RMS(Cart)=  0.00000172 RMS(Int)=  0.00003535
 Iteration  4 RMS(Cart)=  0.00000000 RMS(Int)=  0.00003535
 Variable       Old X    -DE/DX   Delta X   Delta X   Delta X     New X
                                 (Linear)    (Quad)   (Total)
    R1        2.88889   0.00188   0.00253   0.00225   0.00478   2.89367
    R2        2.09543  -0.00240  -0.00268  -0.00227  -0.00495   2.09048
    R3        2.09804  -0.00291  -0.00302  -0.00307  -0.00608   2.09196
    R4        2.08612  -0.00083  -0.00158  -0.00035  -0.00193   2.08418
    R5        2.90543   0.00371   0.00336   0.00238   0.00574   2.91117
    R6        2.90241   0.00122   0.00027   0.00366   0.00393   2.90635
    R7        2.89959   0.00432   0.00590  -0.00132   0.00458   2.90418
    R8        2.64036   0.00075   0.00706  -0.00571   0.00135   2.64171
    R9        2.11304  -0.00269  -0.00483  -0.00147  -0.00630   2.10674
   R10        2.09359  -0.00152  -0.00281  -0.00023  -0.00304   2.09055
   R11        1.83182   0.00385   0.00235   0.00275   0.00510   1.83692
   R12        2.66270  -0.00241   0.00464  -0.00820  -0.00355   2.65914
   R13        2.10421  -0.00217  -0.00366  -0.00112  -0.00478   2.09943
   R14        2.09168  -0.00185  -0.00241  -0.00126  -0.00367   2.08802
   R15        1.81864   0.00343   0.00203   0.00252   0.00455   1.82319
   R16        2.68393  -0.00275   0.00380  -0.00879  -0.00498   2.67894
   R17        2.09323  -0.00154  -0.00263  -0.00058  -0.00321   2.09002
   R18        2.09079  -0.00170  -0.00213  -0.00152  -0.00365   2.08715
   R19        1.81957   0.00324   0.00219   0.00229   0.00448   1.82405
    A1        1.93296   0.00008   0.00007   0.00061   0.00068   1.93364
    A2        1.94347   0.00105   0.00032   0.00254   0.00287   1.94634
    A3        1.93170   0.00026   0.00171   0.00129   0.00301   1.93470
    A4        1.89631  -0.00072  -0.00175  -0.00145  -0.00320   1.89311
    A5        1.85836   0.00010   0.00202  -0.00081   0.00121   1.85958
    A6        1.89855  -0.00084  -0.00243  -0.00243  -0.00486   1.89369
    A7        1.91540  -0.00008  -0.00207   0.00465   0.00264   1.91805
    A8        1.92852   0.00039  -0.00213   0.00169  -0.00041   1.92811
    A9        1.93648  -0.00081   0.00104  -0.00834  -0.00727   1.92922
   A10        1.89015  -0.00072  -0.00298   0.00243  -0.00056   1.88959
   A11        1.91446   0.00136   0.00957  -0.01034  -0.00078   1.91369
   A12        1.87791  -0.00014  -0.00352   0.01009   0.00654   1.88446
   A13        1.99255  -0.00130   0.00210  -0.01117  -0.00905   1.98350
   A14        1.88217   0.00168   0.00624   0.00191   0.00811   1.89028
   A15        1.90303   0.00096  -0.00041   0.00795   0.00754   1.91057
   A16        1.95840  -0.00051  -0.00022  -0.01321  -0.01337   1.94503
   A17        1.85152   0.00021  -0.00781   0.01945   0.01168   1.86320
   A18        1.87200  -0.00105  -0.00050  -0.00386  -0.00436   1.86764
   A19        1.85775   0.00449   0.00117   0.01168   0.01285   1.87060
   A20        1.99964  -0.00301  -0.00516  -0.00438  -0.00958   1.99007
   A21        1.89082   0.00243   0.00679  -0.00009   0.00662   1.89744
   A22        1.90955   0.00043   0.00080   0.00526   0.00608   1.91563
   A23        1.95476  -0.00117  -0.00471  -0.01004  -0.01479   1.93997
   A24        1.83522   0.00216   0.00211   0.01150   0.01364   1.84886
   A25        1.86877  -0.00076   0.00032  -0.00145  -0.00110   1.86767
   A26        1.90379   0.00038  -0.00346   0.00487   0.00141   1.90520
   A27        1.99589   0.00004   0.00478  -0.01809  -0.01331   1.98258
   A28        1.89780   0.00219   0.00390   0.00764   0.01143   1.90923
   A29        1.90407  -0.00006   0.00071   0.00435   0.00508   1.90915
   A30        1.95732  -0.00246  -0.00897  -0.00380  -0.01275   1.94457
   A31        1.82948   0.00085   0.00134   0.00928   0.01070   1.84019
   A32        1.87405  -0.00064  -0.00218   0.00192  -0.00028   1.87377
   A33        1.91903  -0.00088  -0.00317  -0.00440  -0.00757   1.91146
    D1       -1.07052   0.00030   0.00171  -0.03552  -0.03380  -1.10433
    D2        1.01268  -0.00039  -0.00454  -0.02853  -0.03308   0.97960
    D3        3.09411  -0.00082  -0.00964  -0.02020  -0.02984   3.06426
    D4        3.10051   0.00046   0.00366  -0.03582  -0.03214   3.06836
    D5       -1.09947  -0.00024  -0.00259  -0.02883  -0.03142  -1.13089
    D6        0.98195  -0.00067  -0.00769  -0.02049  -0.02819   0.95377
    D7        0.98637   0.00064   0.00535  -0.03534  -0.02997   0.95639
    D8        3.06957  -0.00005  -0.00090  -0.02834  -0.02925   3.04032
    D9       -1.13218  -0.00049  -0.00600  -0.02001  -0.02602  -1.15820
   D10       -1.06731   0.00109   0.06269   0.02360   0.08626  -0.98105
   D11        3.02683   0.00137   0.05645   0.04736   0.10384   3.13067
   D12        0.99962   0.00120   0.05385   0.04669   0.10052   1.10014
   D13        3.10929   0.00110   0.06828   0.01726   0.08552  -3.08837
   D14        0.92025   0.00138   0.06204   0.04102   0.10310   1.02335
   D15       -1.10696   0.00121   0.05944   0.04035   0.09978  -1.00718
   D16        1.06441   0.00092   0.06893   0.00952   0.07843   1.14284
   D17       -1.12463   0.00120   0.06270   0.03329   0.09601  -1.02862
   D18        3.13134   0.00102   0.06009   0.03261   0.09269  -3.05916
   D19        1.09490  -0.00138   0.00292  -0.06515  -0.06222   1.03267
   D20       -1.10134   0.00044   0.00757  -0.04854  -0.04098  -1.14232
   D21       -3.13297  -0.00025   0.00287  -0.04963  -0.04676   3.10345
   D22       -3.08988  -0.00170  -0.00268  -0.05691  -0.05958   3.13373
   D23        0.99707   0.00012   0.00197  -0.04031  -0.03834   0.95873
   D24       -1.03456  -0.00056  -0.00273  -0.04139  -0.04412  -1.07868
   D25       -1.02164  -0.00055   0.00510  -0.06231  -0.05720  -1.07884
   D26        3.06531   0.00127   0.00975  -0.04570  -0.03596   3.02935
   D27        1.03367   0.00059   0.00505  -0.04679  -0.04174   0.99194
   D28        1.09449  -0.00066   0.00965  -0.03560  -0.02596   1.06853
   D29       -1.10798   0.00082   0.01484  -0.02313  -0.00827  -1.11625
   D30        3.13639   0.00039   0.01486  -0.03212  -0.01731   3.11908
   D31       -1.02462  -0.00094   0.00503  -0.02908  -0.02403  -1.04865
   D32        3.05610   0.00054   0.01022  -0.01662  -0.00634   3.04976
   D33        1.01728   0.00011   0.01023  -0.02561  -0.01538   1.00190
   D34       -3.07715  -0.00074   0.00543  -0.03209  -0.02668  -3.10383
   D35        1.00356   0.00074   0.01062  -0.01963  -0.00898   0.99458
   D36       -1.03525   0.00031   0.01064  -0.02862  -0.01803  -1.05328
   D37       -0.86105   0.00105   0.01014   0.01889   0.02897  -0.83209
   D38        1.28718   0.00189   0.02008   0.00218   0.02235   1.30954
   D39       -2.95708   0.00048   0.01474   0.00227   0.01698  -2.94010
   D40       -1.36897   0.00056  -0.00833   0.03860   0.03022  -1.33875
   D41        0.79356   0.00050  -0.00703   0.02674   0.01979   0.81335
   D42        2.81710   0.00028  -0.00778   0.02670   0.01890   2.83600
   D43       -1.38720   0.00051  -0.00041   0.02955   0.02902  -1.35817
   D44        0.78393   0.00148   0.00122   0.02228   0.02364   0.80757
   D45        2.81167  -0.00000  -0.00494   0.02810   0.02315   2.83482
         Item               Value     Threshold  Converged?
 Maximum Force            0.004492     0.000015     NO 
 RMS     Force            0.001531     0.000010     NO 
 Maximum Displacement     0.266871     0.000060     NO 
 RMS     Displacement     0.055128     0.000040     NO 
 GradGradGradGradGradGradGradGradGradGradGradGradGradGradGradGradGradGrad

                    Distance matrix (angstroms):
                    1          2          3          4          5
     1  C    0.000000
     2  C    1.531262   0.000000
     3  C    2.514666   1.540527   0.000000
     4  O    2.922114   2.460682   1.397932   0.000000
     5  C    2.521414   1.537973   2.494747   3.765796   0.000000
     6  O    2.970402   2.471333   3.778814   4.915942   1.407157
     7  C    2.521435   1.536824   2.515357   3.008284   2.487111
     8  O    2.987848   2.472956   2.964518   2.759967   3.778398
     9  H    1.106237   2.184258   2.795339   3.302019   2.746837
    10  H    1.107017   2.194020   3.491979   3.929476   2.828339
    11  H    1.102903   2.182513   2.726240   2.562133   3.486159
    12  H    3.472458   2.166776   1.114840   2.082431   2.697003
    13  H    2.775880   2.175548   1.106272   2.017328   2.703949
    14  H    3.036377   2.528313   1.923993   0.972057   3.960140
    15  H    2.795671   2.167046   2.670182   3.975152   1.110968
    16  H    3.479762   2.176035   2.741654   4.063005   1.104931
    17  H    2.765897   2.781571   4.113891   5.158767   1.949887
    18  H    2.791116   2.171099   3.474722   4.032200   2.687548
    19  H    3.476400   2.169914   2.724874   3.342293   2.715193
    20  H    2.798108   2.795989   3.484187   3.168480   4.137736
                    6          7          8          9         10
     6  O    0.000000
     7  C    2.948920   0.000000
     8  O    4.283012   1.417637   0.000000
     9  H    3.270265   3.489284   4.021350   0.000000
    10  H    2.719785   2.747581   3.289834   1.795848   0.000000
    11  H    4.011850   2.830179   2.739556   1.770612   1.793519
    12  H    4.021527   2.725731   3.288976   3.798793   4.332606
    13  H    4.027929   3.475173   3.998266   2.599137   3.807823
    14  H    4.955292   2.547284   1.941303   3.695548   3.873960
    15  H    2.083880   3.451308   4.613758   2.564111   3.253161
    16  H    2.013588   2.691922   4.018275   3.774529   3.819071
    17  H    0.964790   3.469122   4.663517   2.873598   2.342558
    18  H    2.573822   1.105991   2.092343   3.776617   2.561687
    19  H    3.299312   1.104470   2.015680   4.327588   3.773478
    20  H    4.454081   1.963609   0.965244   3.865530   2.909184
                   11         12         13         14         15
    11  H    0.000000
    12  H    3.754718   0.000000
    13  H    3.086464   1.785555   0.000000
    14  H    2.568577   2.412512   2.815671   0.000000
    15  H    3.766548   2.971699   2.401960   4.409174   0.000000
    16  H    4.330347   2.470817   3.065249   4.204982   1.781380
    17  H    3.839200   4.566046   4.211556   5.261128   2.262930
    18  H    3.249608   3.711899   4.314203   3.567864   3.734622
    19  H    3.818161   2.463500   3.719571   2.899366   3.698322
    20  H    2.374856   4.024419   4.400335   2.413395   4.924158
                   16         17         18         19         20
    16  H    0.000000
    17  H    2.813441   0.000000
    18  H    2.981676   3.056269   0.000000
    19  H    2.448928   4.030130   1.781006   0.000000
    20  H    4.580866   4.656286   2.278024   2.818749   0.000000
 Framework group  C1[X(C5H12O3)]
 Deg. of freedom    54
                         Standard orientation:                         
 ---------------------------------------------------------------------
 Center     Atomic      Atomic             Coordinates (Angstroms)
 Number     Number       Type             X           Y           Z
 ---------------------------------------------------------------------
      1          6           0       -0.198827   -0.205615    1.550135
      2          6           0       -0.186156   -0.198816    0.018941
      3          6           0        0.839874   -1.223378   -0.501402
      4          8           0        2.133109   -1.020445   -0.010916
      5          6           0       -1.570382   -0.580353   -0.532156
      6          8           0       -2.607235    0.277125   -0.120140
      7          6           0        0.166123    1.200047   -0.511068
      8          8           0        1.449250    1.651554   -0.111793
      9          1           0       -0.528802   -1.188581    1.935694
     10          1           0       -0.873201    0.573838    1.954063
     11          1           0        0.813973   -0.034560    1.951846
     12          1           0        0.819092   -1.204659   -1.615891
     13          1           0        0.536315   -2.240323   -0.189130
     14          1           0        2.335483   -0.075646   -0.117190
     15          1           0       -1.786919   -1.633842   -0.253724
     16          1           0       -1.558774   -0.533626   -1.636038
     17          1           0       -2.844360    0.071651    0.792204
     18          1           0       -0.623927    1.914862   -0.214291
     19          1           0        0.192680    1.177868   -1.614996
     20          1           0        1.413653    1.955846    0.803541
 ---------------------------------------------------------------------
 Rotational constants (GHZ):           2.7833229           1.4931427           1.2608561
   136 basis functions,   248 primitive gaussians,   144 cartesian basis functions
    33 alpha electrons       33 beta electrons
       nuclear repulsion energy       433.5468571035 Hartrees.
 NAtoms=   20 NActive=   20 NUniq=   20 SFac= 1.00D+00 NAtFMM=   60 NAOKFM=F Big=F
 Nuclear repulsion after empirical dispersion term =      433.5326251141 Hartrees.
   1 Symmetry operations used in ECPInt.
 ECPInt:  NShTT=    2628 NPrTT=   10580 LenC2=    2607 LenP2D=    8442.
 LDataN:  DoStor=T MaxTD1= 4 Len=   56
 Initial guess from the checkpoint file:  "/scratch/user/peterchao1/peterchao1/6097805_1659647584000000877367958/Gau-7176.chk"
 B after Tr=     0.000000    0.000000   -0.000000
         Rot=    0.999995    0.003124   -0.000683    0.000631 Ang=   0.37 deg.
 ExpMin= 1.22D-01 ExpMax= 2.27D+03 ExpMxC= 3.41D+02 IAcc=3 IRadAn=         5 AccDes= 0.00D+00
 Harris functional with IExCor= 4639 and IRadAn=       5 diagonalized for initial guess.
 HarFok:  IExCor= 4639 AccDes= 0.00D+00 IRadAn=         5 IDoV= 1 UseB2=F ITyADJ=14
 ICtDFT=  3500011 ScaDFX=  1.000000  1.000000  1.000000  1.000000
 FoFCou: FMM=F IPFlag=           0 FMFlag=      100000 FMFlg1=           0
         NFxFlg=           0 DoJE=T BraDBF=F KetDBF=T FulRan=T
         wScrn=  0.000000 ICntrl=       500 IOpCl=  0 I1Cent=   200000004 NGrid=           0
         NMat0=    1 NMatS0=      1 NMatT0=    0 NMatD0=    1 NMtDS0=    0 NMtDT0=    0
 Petite list used in FoFCou.
     Minimum is close to point  4 DX=  8.80D-02 DF= -2.18D-05 DXR=  6.83D-02 DFR=  4.69D-03 which will be used.
     Accept linear search using points  2 and  3.
     Accept linear search using points  1 and  2.
     Minimum is close to point  2 DX= -9.00D-02 DF= -3.68D-06 DXR=  8.92D-02 DFR=  9.30D-03 which will be used.
     Accept linear search using points  1 and  2.
     Accept linear search using points  1 and  2.
     Accept linear search using points  1 and  2.
     Minimum is close to point  2 DX= -8.15D-05 DF= -2.84D-13 DXR=  8.15D-05 DFR=  6.78D-09 which will be used.
 SCF Done:  E(RwB97XD) =  -422.929867189     a.u. after    9 cycles
            Convg  =    0.8782D-09                    36 Fock formations.
              S**2 =  0.0000                  -V/T =  2.0086
   1 Symmetry operations used in ECPInt.
 ECPInt:  NShTT=    2628 NPrTT=   10580 LenC2=    2607 LenP2D=    8442.
 LDataN:  DoStor=T MaxTD1= 5 Len=  102
 Calling FoFJK, ICntrl=      2127 FMM=F ISym2X=0 I1Cent= 0 IOpClX= 0 NMat=1 NMatS=1 NMatT=0.

 GradGradGradGradGradGradGradGradGradGradGradGradGradGradGradGradGradGrad
 Using GEDIIS/GDIIS optimizer.
 FormGI is forming the generalized inverse of G from B-inverse, IUseBI=4.
 Internal  Forces:  Max     0.001738472 RMS     0.000461671
 Step number   4 out of a maximum of  107
 All quantities printed in internal units (Hartrees-Bohrs-Radians)
 Mixed Optimization -- En-DIIS/RFO-DIIS
 Trust test= 9.15D-01 RLast= 3.47D-01 DXMaxT set to 5.05D-01
 ITU=  1  0  0  0
 Use linear search instead of GDIIS.
     Eigenvalues ---    0.00204   0.00230   0.00242   0.00735   0.01207
     Eigenvalues ---    0.01354   0.01823   0.04556   0.04599   0.04645
     Eigenvalues ---    0.04853   0.05076   0.05311   0.05345   0.05529
     Eigenvalues ---    0.05739   0.05795   0.06028   0.11524   0.11749
     Eigenvalues ---    0.11798   0.13799   0.14040   0.14091   0.14384
     Eigenvalues ---    0.15108   0.15885   0.15987   0.16000   0.16000
     Eigenvalues ---    0.16088   0.17358   0.21876   0.22118   0.24931
     Eigenvalues ---    0.27949   0.28273   0.28308   0.30791   0.32660
     Eigenvalues ---    0.34082   0.34109   0.34115   0.34144   0.34161
     Eigenvalues ---    0.34203   0.34235   0.34279   0.38149   0.41850
     Eigenvalues ---    0.42111   0.50993   0.52331   0.52746
 Quartic linear search produced a step of  0.04978.
 Iteration  1 RMS(Cart)=  0.02907572 RMS(Int)=  0.00046909
 Iteration  2 RMS(Cart)=  0.00054441 RMS(Int)=  0.00000410
 Iteration  3 RMS(Cart)=  0.00000011 RMS(Int)=  0.00000410
 Variable       Old X    -DE/DX   Delta X   Delta X   Delta X     New X
                                 (Linear)    (Quad)   (Total)
    R1        2.89367   0.00042   0.00024   0.00171   0.00195   2.89561
    R2        2.09048  -0.00059  -0.00025  -0.00197  -0.00221   2.08827
    R3        2.09196  -0.00100  -0.00030  -0.00323  -0.00354   2.08842
    R4        2.08418  -0.00057  -0.00010  -0.00168  -0.00178   2.08241
    R5        2.91117   0.00130   0.00029   0.00503   0.00532   2.91649
    R6        2.90635   0.00014   0.00020   0.00085   0.00105   2.90739
    R7        2.90418   0.00174   0.00023   0.00626   0.00649   2.91066
    R8        2.64171  -0.00002   0.00007  -0.00078  -0.00071   2.64100
    R9        2.10674  -0.00100  -0.00031  -0.00302  -0.00334   2.10340
   R10        2.09055  -0.00066  -0.00015  -0.00193  -0.00208   2.08847
   R11        1.83692   0.00128   0.00025   0.00282   0.00308   1.84000
   R12        2.65914  -0.00088  -0.00018  -0.00311  -0.00329   2.65585
   R13        2.09943  -0.00057  -0.00024  -0.00176  -0.00200   2.09743
   R14        2.08802  -0.00074  -0.00018  -0.00230  -0.00248   2.08554
   R15        1.82319   0.00075   0.00023   0.00172   0.00194   1.82513
   R16        2.67894   0.00030  -0.00025  -0.00030  -0.00055   2.67840
   R17        2.09002  -0.00018  -0.00016  -0.00057  -0.00073   2.08929
   R18        2.08715  -0.00073  -0.00018  -0.00230  -0.00249   2.08466
   R19        1.82405   0.00112   0.00022   0.00239   0.00261   1.82666
    A1        1.93364   0.00012   0.00003   0.00047   0.00050   1.93414
    A2        1.94634   0.00015   0.00014   0.00130   0.00144   1.94778
    A3        1.93470   0.00022   0.00015   0.00168   0.00183   1.93653
    A4        1.89311  -0.00021  -0.00016  -0.00203  -0.00219   1.89092
    A5        1.85958  -0.00016   0.00006  -0.00124  -0.00118   1.85840
    A6        1.89369  -0.00014  -0.00024  -0.00038  -0.00063   1.89306
    A7        1.91805   0.00004   0.00013   0.00024   0.00038   1.91842
    A8        1.92811  -0.00022  -0.00002  -0.00418  -0.00420   1.92392
    A9        1.92922  -0.00017  -0.00036  -0.00267  -0.00303   1.92619
   A10        1.88959  -0.00002  -0.00003   0.00083   0.00080   1.89039
   A11        1.91369   0.00020  -0.00004   0.00341   0.00337   1.91706
   A12        1.88446   0.00018   0.00033   0.00252   0.00283   1.88729
   A13        1.98350   0.00015  -0.00045   0.00018  -0.00027   1.98323
   A14        1.89028   0.00037   0.00040   0.00311   0.00351   1.89379
   A15        1.91057   0.00010   0.00038   0.00171   0.00208   1.91265
   A16        1.94503  -0.00034  -0.00067  -0.00288  -0.00354   1.94149
   A17        1.86320  -0.00006   0.00058   0.00144   0.00202   1.86521
   A18        1.86764  -0.00026  -0.00022  -0.00382  -0.00404   1.86360
   A19        1.87060  -0.00105   0.00064  -0.00503  -0.00439   1.86621
   A20        1.99007  -0.00071  -0.00048  -0.00363  -0.00411   1.98596
   A21        1.89744   0.00064   0.00033   0.00516   0.00549   1.90293
   A22        1.91563   0.00001   0.00030  -0.00088  -0.00058   1.91504
[...]
 149519,-0.00030491,-0.00502298,0.05031954,0.05794168,0.54702729,-0.000
 75796,0.00004009,0.00036973,0.00534825,-0.00712606,-0.00163542,-0.0014
 8468,0.00218094,0.00028458,0.00515582,-0.00154469,0.00101817,-0.000114
 64,-0.00089596,0.00173550,0.00030708,0.00039309,-0.00008429,-0.1076078
 8,0.06242021,-0.01180247,0.56229049,0.00311980,0.00155757,-0.00099198,
 0.01076600,-0.03623186,0.00455369,0.00047453,-0.00583486,-0.00415162,-
 0.00119281,0.00884912,-0.00244505,-0.00419943,0.00118278,0.00687419,-0
 .00031697,-0.00169817,0.00004906,0.01623244,-0.23648875,-0.00968625,-0
 .08313440,0.36335133,-0.00034595,-0.00164272,0.00039384,-0.00989567,0.
 03124247,0.00596417,0.00148311,-0.00881945,0.00164492,-0.00139421,0.00
 356097,-0.01641108,0.00265910,0.00014356,-0.00794303,0.00058035,-0.000
 13964,0.00319003,-0.01546785,0.00892021,-0.07078470,0.15407497,-0.0137
 1941,0.12028341,-0.08071249,-0.05583095,0.06756943,-0.01174825,-0.0193
 5642,0.02520414,0.00095705,-0.00025397,0.00161102,-0.00002867,0.000133
 56,-0.00032811,0.00146809,-0.00167242,0.00137826,0.00007000,0.00038895
 ,-0.00018866,-0.00745255,0.00180127,-0.00207821,0.00093906,-0.00023366
 ,-0.00034688,0.08924698,-0.05651639,-0.13823509,0.11261168,0.00103115,
 0.00004359,-0.00144343,-0.00023848,-0.00018176,0.00081241,-0.00013216,
 0.00001548,-0.00085643,0.00105253,0.00056929,-0.00145338,0.00003785,0.
 00017680,0.00032387,0.00102257,-0.00023731,-0.00042355,-0.00074635,0.0
 0031867,0.00031370,0.06022605,0.14320969,0.06880545,0.11282295,-0.1901
 2849,0.00013871,-0.00143877,-0.00016408,-0.00061116,-0.00062170,0.0008
 0363,0.00019246,0.00021021,-0.00015123,-0.00013361,0.00085350,0.000633
 23,-0.00026702,-0.00075586,-0.00012283,0.00024063,-0.00034596,0.000857
 95,-0.00021045,0.00003963,0.00020029,-0.07594843,-0.12271534,0.1993220
 4,-0.08033704,-0.03044677,-0.08055935,-0.00962043,-0.01147077,-0.02930
 085,-0.00729363,0.00227166,0.00196660,0.00117520,-0.00036885,0.0004763
 6,0.00000699,-0.00174525,-0.00187002,0.00165486,0.00023689,0.00161461,
 0.00143135,-0.00021263,-0.00198113,0.00007510,-0.00005601,0.00049432,0
 .00400846,0.00535558,0.00996069,0.08681160,-0.02998856,-0.07671188,-0.
 07283384,-0.00014874,-0.00064599,0.00149098,0.00050058,-0.00087725,-0.
 00005060,-0.00146282,0.00032759,-0.00040894,0.00024974,0.00005377,0.00
 083482,0.00010301,-0.00082586,-0.00022356,-0.00046822,0.00039511,-0.00
 095788,0.00019906,-0.00020862,0.00060402,0.00846687,0.00763194,0.01683
 939,0.03312555,0.07802031,-0.08124455,-0.07368376,-0.25113118,0.000190
 60,0.00117259,0.00038435,-0.00009034,0.00038508,0.00096070,-0.00014923
 ,-0.00013340,0.00010271,-0.00081334,-0.00143277,-0.00142754,0.00151566
 ,-0.00044649,0.00096925,0.00066542,0.00111603,0.00068310,0.00014261,-0
 .00044299,0.00038067,-0.00802784,-0.00883620,-0.01636079,0.08907187,0.
 08153578,0.26720731,-0.07688906,0.08596354,0.01547884,-0.00972409,0.03
 150517,0.00446659,0.00001135,0.00307799,0.00045421,0.00199909,-0.00147
 104,0.00057727,-0.00721394,-0.00275743,-0.00056993,0.00082839,-0.00023
 982,0.00029113,0.00010889,0.00217472,-0.00037293,0.00137960,-0.0014280
 2,-0.00051874,0.00378670,-0.01112876,-0.00277135,0.00365069,-0.0119540
 6,-0.00070518,0.08419392,0.08720716,-0.28283309,-0.04118668,0.00100676
 ,0.00231549,0.00118143,0.00042895,-0.00095408,-0.00117155,-0.00199109,
 -0.00002514,-0.00076736,0.00032466,0.00039705,-0.00035547,0.00002975,0
 .00013796,0.00014867,0.00054125,-0.00079909,0.00062917,-0.00114661,-0.
 00007628,0.00069402,0.00605473,-0.01439934,-0.00430605,0.00185599,-0.0
 0563115,0.00029552,-0.09332648,0.30158494,0.01673914,-0.04323865,-0.05
 578821,-0.00061124,0.00137080,-0.00034504,-0.00097882,0.00133292,0.000
 02243,0.00059508,-0.00039797,-0.00076017,-0.00119241,-0.00029198,-0.00
 059021,0.00066964,-0.00028716,0.00053831,0.00053994,-0.00125229,-0.000
 03406,-0.00071422,0.00053318,-0.00035741,-0.00896682,0.02246809,0.0051
 5674,0.01067857,-0.02599288,-0.00258118,-0.01783660,0.04462664,0.05496
 155,0.00042137,-0.00121499,-0.00295772,-0.01317577,-0.00180540,0.00107
 662,-0.28619784,-0.00827129,-0.00009577,-0.00723655,0.01714547,0.00035
 440,-0.00105249,0.00095095,0.00026716,0.00087416,-0.00038600,-0.000146
 68,-0.00008444,0.00044282,0.00176319,0.00053194,-0.00021280,-0.0009012
 5,0.00027944,0.00000268,0.00004688,-0.00084312,0.00015306,-0.00016937,
 0.00046105,0.00013765,0.00036188,0.31295962,-0.00060504,-0.00119206,-0
 .00301294,-0.01256772,0.00167826,0.00065651,-0.00949096,-0.05099036,0.
 00389576,0.04317362,-0.01651083,-0.00289249,-0.00128271,0.00029324,-0.
 00010314,0.00027913,0.00014179,0.00021578,0.00069784,-0.00054706,0.000
 63906,-0.00036316,0.00058997,0.00081122,0.00035509,0.00007951,-0.00000
 819,-0.00098535,0.00015292,-0.00029971,-0.00021270,-0.00006395,-0.0002
 0081,-0.00515214,0.06326145,-0.00039933,-0.00237601,-0.00463729,-0.028
 28883,-0.00201599,-0.00181612,0.00256568,0.00340292,-0.05533618,0.0050
 0189,-0.00399490,0.00466856,-0.00120904,0.00084057,0.00033987,0.000517
 78,-0.00002739,-0.00002551,-0.00210492,-0.00030747,0.00159992,0.000250
 96,0.00038520,0.00000666,-0.00015701,-0.00023134,0.00010688,-0.0017660
 2,-0.00010630,0.00006102,0.00011884,0.00024121,0.00004390,-0.00009150,
 0.00373105,0.05392053,0.00092305,0.00072800,-0.00074503,0.00352700,0.0
 0586927,-0.01078879,-0.08503357,-0.04751020,0.07297880,0.00674113,0.01
 133601,-0.01260051,0.00018695,0.00024383,0.00057351,-0.00017600,0.0002
 5087,-0.00015046,-0.00070430,-0.00137946,-0.00121385,-0.00008217,-0.00
 006479,0.00004921,-0.00007343,-0.00031651,-0.00001290,0.00008912,-0.00
 000752,0.00019108,-0.00002781,0.00006683,-0.00000324,-0.00856212,-0.01
 520840,0.02503727,0.08161682,0.00038720,0.00028102,0.00006689,0.004519
 29,0.00756266,-0.00983367,-0.04182160,-0.10912373,0.09719187,-0.004250
 31,-0.03236715,0.03021583,0.00025418,0.00052561,-0.00165090,0.00014429
 ,0.00021359,0.00030840,-0.00068846,-0.00185196,-0.00237972,-0.00020407
 ,0.00071849,0.00140043,0.00005438,0.00005107,0.00015419,0.00019625,0.0
 0002117,0.00000949,-0.00024917,-0.00008913,-0.00004347,-0.00135198,0.0
 0203605,0.00080489,0.04251478,0.13785795,0.00113549,0.00050247,0.00109
 898,0.01053662,0.01309384,-0.02198937,0.06832397,0.10590949,-0.2177698
 0,-0.00337422,-0.00166117,0.00789967,0.00014159,0.00216171,-0.00073516
 ,-0.00018545,-0.00050397,0.00099611,-0.00275760,-0.00480160,-0.0036373
 9,-0.00029696,0.00071996,0.00067982,-0.00093933,-0.00036460,0.00008211
 ,0.00008713,-0.00025746,0.00031176,-0.00006033,-0.00000982,-0.00009723
 ,-0.00061993,-0.00101113,0.00197696,-0.07274545,-0.11165201,0.23050003
 ,0.00012104,-0.00053742,-0.00013236,0.00141542,0.00059173,0.00128315,0
 .00185554,0.01027855,-0.01245247,-0.02769864,-0.02716592,0.07460532,0.
 00006555,-0.00047374,0.00000613,-0.00016704,0.00027767,0.00008038,0.00
 179047,-0.00001326,0.00066316,-0.00664815,0.00176505,0.00247346,-0.000
 01428,0.00042349,0.00003277,-0.00004475,0.00033926,0.00005769,-0.00130
 202,-0.00052328,-0.00021471,-0.00033348,0.00094009,-0.00102628,0.00009
 668,0.00069816,0.00038113,0.03201418,-0.00056165,-0.00023448,-0.000010
 54,-0.00137673,0.00165986,0.00041422,-0.00475453,-0.03192688,0.0385062
 3,-0.01176617,-0.13249649,0.14782014,0.00069722,-0.00093023,0.00054171
 ,0.00004139,0.00113572,0.00048639,0.00041441,-0.00192679,-0.00505867,0
 .00072810,-0.00428376,0.00430702,0.00017527,0.00022124,-0.00003837,0.0
 0015913,0.00025128,0.00011469,-0.00089453,-0.00026729,-0.00031145,-0.0
 0015116,0.00130212,0.00014287,0.00326324,-0.00581996,-0.00155508,0.014
 24864,0.17276604,0.00008282,0.00018909,-0.00094957,-0.00054683,-0.0022
 1622,0.00179664,-0.00123982,-0.00002193,0.00747537,0.06133066,0.193807
 95,-0.36528423,0.00009420,0.00027770,-0.00084062,-0.00012592,-0.000196
 26,-0.00087850,0.00461863,-0.01143734,0.00084748,-0.00184240,0.0062934
 5,0.00134516,0.00028406,0.00034537,-0.00001205,-0.00027376,-0.00023884
 ,-0.00016774,-0.00001006,0.00003839,0.00083185,0.00172952,-0.00188218,
 -0.00057351,-0.00005082,-0.00364692,0.00167151,-0.06174732,-0.18552949
 ,0.35599070,0.00142746,0.00051450,-0.00127981,0.00315349,0.00847275,-0
 .00912313,0.00024665,-0.00040533,-0.00007665,-0.00016803,-0.00006839,-
 0.00018567,-0.08019693,-0.03812669,0.06255194,0.00654480,0.00341714,-0
 .01490974,-0.00120457,0.00091018,0.00105583,0.00066185,0.00080463,-0.0
 0056933,-0.00016851,-0.00008914,0.00026788,-0.00011213,-0.00000322,-0.
 00002304,0.00010491,-0.00015573,0.00011264,-0.00002988,0.00004136,0.00
 016105,0.00024500,-0.00025752,-0.00002395,-0.00004522,-0.00001318,-0.0
 0001981,0.07359669,-0.00165252,0.00120815,0.00010599,-0.01055198,-0.01
 708477,0.02562375,-0.00015844,-0.00020658,0.00277837,0.00008987,0.0006
 1471,-0.00090455,-0.03842898,-0.11211090,0.10110919,0.00506091,0.00995
 610,-0.02512348,0.00351801,-0.00331770,-0.00354725,-0.00010340,-0.0029
 7237,0.00192118,0.00100187,0.00024693,-0.00042808,0.00013469,-0.000022
 29,-0.00002963,-0.00010127,0.00022090,-0.00028043,-0.00000061,0.000076
 33,-0.00017466,0.00027091,-0.00032702,-0.00140607,0.00003610,0.0003082
 9,0.00063906,0.03912030,0.12065057,0.00008084,-0.00040657,0.00016720,0
 .00228104,0.00193045,-0.00045467,-0.00006440,-0.00095035,0.00017691,-0
 .00010665,-0.00001592,0.00055873,0.05837408,0.09879052,-0.20870735,0.0
 0000444,0.00100848,-0.03706539,-0.00044454,-0.00061001,0.00069583,-0.0
 0024343,0.00038492,0.00007046,-0.00067677,0.00019001,0.00007568,0.0002
 2334,-0.00009386,0.00015196,-0.00012468,-0.00011517,0.00021188,-0.0001
 0260,0.00010581,-0.00002015,0.00016898,-0.00015410,0.00044547,-0.00004
 030,-0.00020606,-0.00020076,-0.06172469,-0.10028513,0.24123478,0.00024
 044,0.00304447,0.00014025,-0.01124848,0.00044174,0.00124600,-0.0007227
 1,-0.00046678,-0.00063471,0.00087036,-0.00002449,0.00016101,-0.3130039
 8,0.00127808,0.01273688,-0.01003823,-0.00526368,-0.00531426,-0.0000403
 7,-0.00128780,0.00063489,0.00061769,0.00010071,0.00001266,0.00033878,-
 0.00007016,-0.00008057,0.00004373,-0.00007495,-0.00000703,-0.00081822,
 -0.00008299,-0.00026007,0.00079041,0.00023881,0.00045636,0.00000422,0.
 00006912,-0.00007892,-0.00021906,-0.00007990,-0.00007404,-0.00605995,0
 .00078403,0.00059629,0.33729049,0.00057342,-0.00601469,-0.00047424,0.0
 3063887,0.00031368,-0.00127550,0.00166977,0.00063326,0.00069146,-0.000
 75290,0.00016100,0.00001305,0.00647154,-0.05070023,0.00282785,-0.02394
 248,-0.00374968,-0.00527685,0.00190034,0.00052406,-0.00039051,-0.00063
 924,0.00052238,-0.00014858,-0.00013426,0.00001698,-0.00017147,-0.00002
 513,0.00011009,0.00021294,0.00189207,-0.00014149,0.00018837,-0.0006576
 4,-0.00047343,-0.00049092,-0.00016510,-0.00006627,-0.00008265,0.000203
 33,0.00004720,0.00000889,-0.01556136,0.00127348,0.00092967,0.00083425,
 0.05871573,0.00040589,-0.00063111,0.00017620,-0.00112649,0.00172264,0.
 00081331,0.00116359,-0.00044413,0.00009905,-0.00028274,0.00025910,-0.0
 0018110,0.02400223,0.00383516,-0.05293624,-0.03709381,-0.00781065,-0.0
 0458070,-0.00128723,0.00047714,0.00009499,0.00020569,-0.00036717,-0.00
 005162,-0.00046046,-0.00006872,0.00018327,0.00010263,-0.00012972,0.000
 11664,0.00013512,-0.00017121,0.00029007,-0.00025195,-0.00059565,0.0000
 0058,0.00002452,0.00003749,0.00003156,0.00000793,0.00002743,0.00013353
 ,0.02493073,-0.00076132,0.00167126,-0.00703088,0.00674293,0.05897264,0
 .00075145,-0.00015815,0.00022649,0.00120247,0.00086540,0.00125971,-0.0
 0058677,0.00012900,-0.00025113,-0.00000734,0.00055269,0.00021749,-0.01
 452469,-0.00070396,0.00345462,-0.48041200,-0.10330277,0.02466631,-0.00
 029469,-0.00014095,0.00009543,-0.00007285,0.00036311,-0.00014864,-0.00
 006388,-0.00010050,0.00047785,-0.00050348,0.00141701,-0.00015365,-0.00
 014562,-0.00012675,-0.00001558,0.00002052,-0.00003134,-0.00003168,0.00
 002944,-0.00001990,-0.00004516,0.00002565,-0.00006184,0.00003552,0.001
 56385,0.00125068,0.00158047,0.00139834,-0.00160300,-0.00353456,0.49152
 431,-0.00028871,0.00012004,-0.00162549,-0.00227252,-0.00014378,0.00040
 968,0.00000550,-0.00015438,-0.00070963,0.00047752,0.00042080,0.0003838
 2,-0.02391625,-0.00554951,0.00110160,-0.08000784,-0.03003430,-0.014529
 77,-0.00003788,-0.00089445,0.00003978,0.00012279,0.00058934,-0.0000582
 0,0.00005822,-0.00012894,-0.00002659,0.00199207,-0.00157425,0.00085163
 ,0.00015543,0.00026788,0.00064515,0.00031463,0.00007670,0.00027107,-0.
 00008012,-0.00000326,0.00013361,-0.00019102,-0.00022268,-0.00013090,0.
 00138380,0.00123444,-0.00016848,0.00033251,-0.00064271,-0.00232699,0.1
 0193953,0.03685874,0.00027903,-0.00002715,0.00112326,0.00002125,-0.000
 29017,0.00015898,-0.00030863,-0.00000090,0.00000889,0.00018534,0.00023
 379,-0.00001037,-0.04120381,-0.01089609,-0.00233566,0.07150077,-0.0019
 0787,-0.04008520,-0.00011553,0.00031091,0.00036788,0.00004742,0.000115
 44,-0.00029705,0.00037766,-0.00008822,-0.00078201,-0.00008843,-0.00012
 951,0.00014163,0.00008977,0.00023893,-0.00037108,0.00018808,0.00004141
 ,0.00003263,0.00000626,0.00002098,-0.00018886,-0.00003624,-0.00002643,
 0.00007181,-0.00096017,0.00092291,0.00074378,-0.00218190,-0.00371446,-
 0.00486685,-0.02798227,0.01527294,0.04633472,0.00141914,0.00082566,0.0
 0095936,0.00342118,0.00469479,0.01199738,-0.00079808,-0.00156936,0.001
 12956,0.00003221,-0.00000333,-0.00023183,0.00023325,0.00007511,-0.0006
 6985,-0.00041723,-0.00009700,0.00013488,-0.07833502,-0.03449059,-0.063
 55839,0.00527904,0.01173658,0.01045371,0.00011732,-0.00000187,-0.00022
 147,-0.00040004,-0.00010583,-0.00010268,-0.00006465,0.00003159,-0.0000
 1538,0.00046444,-0.00000900,0.00028755,0.00069248,0.00011666,0.0004572
 0,-0.00031762,0.00018735,-0.00016767,-0.00004918,0.00003195,0.00010082
 ,-0.00000741,-0.00014148,0.00000010,0.00001248,-0.00025932,0.00021257,
 0.07247644,0.00071495,0.00027868,-0.00007961,0.00359203,0.00911062,0.0
 1220707,-0.00129056,-0.00281174,0.00236728,-0.00016973,0.00084576,-0.0
 0099627,0.00085585,0.00086303,0.00056666,-0.00039700,-0.00178647,0.000
 09513,-0.02995463,-0.10024667,-0.09656251,-0.00330180,-0.03288051,-0.0
 2744684,0.00007934,0.00000755,0.00001478,-0.00012661,0.00009580,-0.000
 21292,-0.00019026,-0.00000800,0.00005525,-0.00015090,-0.00000029,-0.00
 013402,0.00015452,0.00047581,0.00102228,0.00019752,-0.00044059,0.00192
 391,-0.00004154,0.00013791,-0.00028950,0.00000199,-0.00003954,-0.00015
 984,-0.00027425,-0.00019426,-0.00004153,0.03241073,0.12340571,-0.00141
 282,-0.00053232,0.00089758,-0.00926115,-0.01090671,-0.02273790,0.00303
 100,0.00507418,-0.00296083,0.00023207,-0.00081008,0.00075390,-0.000606
 86,-0.00207638,-0.00231248,0.00058215,-0.00090498,0.00260927,-0.061887
 64,-0.09947248,-0.23820788,0.00375632,0.00141807,0.00949036,-0.0000479
 8,0.00019899,0.00032537,0.00121003,0.00020522,0.00026067,-0.00004239,0
 .00001326,0.00003397,0.00001192,0.00007777,0.00031988,-0.00046859,-0.0
 0073753,-0.00159988,-0.00003591,0.00040243,-0.00021155,-0.00001919,0.0
 0012602,0.00027637,0.00006528,0.00015838,-0.00001193,0.00013287,0.0002
 5102,-0.00003792,0.06376257,0.10790055,0.25127719,0.00048170,-0.001642
 26,0.00247849,-0.01279128,-0.00106323,-0.00102718,0.00007443,0.0003002
 6,-0.00169045,0.00048198,0.00006337,0.00037647,-0.00008289,0.00085784,
 -0.00035527,0.00026310,-0.00048002,0.00017712,-0.31467108,-0.00911063,
 -0.01435779,-0.00836192,0.00704752,-0.00220904,-0.00077319,0.00003412,
 0.00019154,0.00029070,0.00005497,-0.00004609,0.00004645,0.00002024,-0.
 00009766,0.00073831,0.00021779,0.00069551,0.00044904,-0.00009786,-0.00
 010148,-0.00068241,0.00002309,-0.00045183,0.00041897,-0.00004508,0.000
 02457,0.00055286,-0.00064112,0.00008665,0.00000805,0.00028561,-0.00002
 351,-0.00531233,-0.00043511,0.00053275,0.33754056,-0.00097017,-0.00174
 491,0.00313853,-0.01402020,0.00018676,-0.00121119,0.00026668,0.0001000
 8,-0.00081115,-0.00002611,0.00032793,-0.00017055,-0.00199653,0.0007652
 8,0.00013980,0.00064126,-0.00031706,0.00000202,-0.02097452,-0.04816765
 ,-0.00436357,0.04316146,-0.01120325,0.00624353,-0.00110277,0.00024552,
 0.00023314,0.00044112,0.00002645,0.00005773,-0.00005276,0.00009123,0.0
 0010565,0.00033983,0.00019305,0.00013532,0.00004408,-0.00007901,-0.000
 15778,0.00027003,-0.00007254,0.00060083,0.00020948,0.00009075,-0.00004
 137,0.00046673,-0.00067574,0.00037068,-0.00000057,0.00025669,-0.000049
 98,-0.01357138,0.00199796,0.00067758,0.00317638,0.06441659,0.00078094,
 0.00302841,-0.00412297,0.02677903,0.00176867,0.00006921,0.00243853,-0.
 00016785,0.00146563,-0.00058805,0.00001291,-0.00014352,0.00063227,-0.0
 0102779,0.00066346,0.00017232,-0.00031647,0.00013597,-0.01625338,-0.00
 267056,-0.05421892,-0.00243413,0.00194708,0.00151209,0.00166509,0.0000
 0243,0.00013728,0.00009079,0.00014744,0.00018419,-0.00010479,-0.000142
 33,0.00010389,-0.00081734,0.00002506,-0.00069272,-0.00031886,0.0000406
 6,0.00030129,0.00035022,-0.00002301,-0.00018084,-0.00022328,-0.0002507
 3,0.00004613,-0.00052384,0.00039903,0.00010060,0.00002673,0.00005917,-
 0.00019133,-0.02609752,0.00025175,0.00094651,0.01409938,-0.00351235,0.
 05305774,0.00069273,0.00002133,-0.00029140,0.00129380,-0.00125668,-0.0
 0020542,-0.00025477,0.00006669,0.00003995,-0.00031183,-0.00017925,0.00
 095038,-0.00055317,-0.00009991,0.00029096,-0.00004571,-0.00025070,0.00
 009903,-0.01295407,-0.00252475,-0.00242850,-0.45745569,0.03842854,-0.1
 4048333,-0.00017663,0.00015430,-0.00009789,-0.00008318,-0.00039520,-0.
 00030259,-0.00038564,-0.00035263,0.00120985,-0.00002560,-0.00003520,-0
 .00001828,0.00005846,-0.00001344,0.00016567,0.00008813,-0.00027814,-0.
 00162515,0.00007075,-0.00025702,0.00009319,0.00001109,0.00008011,0.000
 00305,0.00007476,-0.00001395,-0.00000767,0.00155359,-0.00167454,0.0004
 6557,0.00132894,0.00369795,0.00032588,0.46707404,0.00003618,-0.0000102
 8,0.00011070,0.00112890,-0.00038367,0.00050295,0.00018586,0.00013086,0
 .00030008,0.00037357,-0.00044599,-0.00080124,0.00006692,-0.00031785,-0
 .00002604,-0.00018581,0.00038951,-0.00013339,0.04517886,-0.00645236,0.
 01356966,-0.01003999,-0.04580125,-0.00818750,-0.00021113,0.00034820,-0
 .00031139,-0.00033156,-0.00058911,-0.00023359,-0.00076260,0.00027258,0
 .00097102,-0.00013217,-0.00010340,-0.00009610,-0.00001023,-0.00001594,
 -0.00008003,-0.00136497,0.00092995,0.00117544,-0.00015203,0.00002308,-
 0.00000337,-0.00024168,0.00018593,-0.00000606,0.00000656,-0.00028211,0
 .00001498,0.00013875,0.00118922,-0.00106298,0.00143410,-0.00643811,0.0
 0042847,-0.03511750,0.05737074,-0.00022599,0.00135388,0.00098061,-0.00
 181877,-0.00015639,-0.00052426,-0.00082012,0.00088639,-0.00022198,0.00
 214664,-0.00050601,-0.00018392,0.00037644,0.00068046,0.00053079,-0.000
 13375,-0.00021698,-0.00062483,0.00021770,-0.00125466,-0.00028195,-0.14
 262219,0.00849059,-0.04931701,0.00007685,-0.00078533,-0.00016300,-0.00
 013736,-0.00023426,-0.00024752,0.00150522,0.00011840,-0.00127001,0.000
 35443,-0.00019317,0.00002409,0.00006887,-0.00015281,0.00002240,-0.0042
 5574,-0.00000405,-0.00086467,0.00005839,-0.00003513,-0.00007813,0.0001
 3661,-0.00014737,-0.00005529,-0.00001081,0.00015659,0.00018276,0.00156
 909,-0.00048162,0.00088930,0.00169781,-0.00138688,0.00082630,0.1418166
 9,-0.00613164,0.05037632\\-0.00000019,0.00000028,-0.00000030,-0.000000
 05,-0.00000008,-0.00000014,-0.00000005,-0.00000085,0.00000051,0.000000
 23,-0.00000099,0.00000097,-0.00000051,-0.00000012,-0.00000092,-0.00000
 044,0.00000061,-0.00000117,0.00000032,0.00000010,0.00000041,0.00000077
 ,0.00000083,0.00000118,-0.00000031,0.,-0.00000068,0.00000003,0.0000009
 8,-0.00000050,0.00000028,0.00000034,0.00000030,0.,-0.00000130,0.000000
 52,-0.00000028,-0.00000140,-0.00000002,0.00000052,-0.00000036,0.000001
 37,-0.00000067,-0.00000071,-0.00000112,-0.00000043,-0.00000049,-0.0000
 0064,-0.00000052,0.00000078,-0.00000150,0.00000029,0.00000113,0.000000
 11,0.00000026,0.00000032,0.00000059,0.00000075,0.00000091,0.00000105\\
 \@


 ONLY A FOOL KNOWS EVERYTHING.

               -- THE CHEMIST ANALYST, SEPTEMBER 1946
 File lengths (MBytes):  RWF=     51 Int=      0 D2E=      0 Chk=      3 Scr=      1
 Normal termination of Gaussian 16 at Thu Aug  4 16:24:14 2022.
real 669.61
user 2539.98
sys 16.77
