 Entering Gaussian System, Link 0=g16
 Input=gaussian_test.inp
 Output=gaussian_test.log
 Initial command:
 /sw/restricted/lms/sw/Gaussian/g16_B01/g16/l1.exe "/scratch/user/peterchao1/peterchao1/6113314_1660079070000000889864153/Gau-158893.inp" -scrdir="/scratch/user/peterchao1/peterchao1/6113314_1660079070000000889864153/"
 Entering Link 1 = /sw/restricted/lms/sw/Gaussian/g16_B01/g16/l1.exe PID=    158894.
  
 Copyright (c) 1988-2017, Gaussian, Inc.  All Rights Reserved.
  
 This is part of the Gaussian(R) 16 program.  It is based on
 the Gaussian(R) 09 system (copyright 2009, Gaussian, Inc.),
 the Gaussian(R) 03 system (copyright 2003, Gaussian, Inc.),
 the Gaussian(R) 98 system (copyright 1998, Gaussian, Inc.),
 the Gaussian(R) 94 system (copyright 1995, Gaussian, Inc.),
 the Gaussian 92(TM) system (copyright 1992, Gaussian, Inc.),
 the Gaussian 90(TM) system (copyright 1990, Gaussian, Inc.),
 the Gaussian 88(TM) system (copyright 1988, Gaussian, Inc.),
 the Gaussian 86(TM) system (copyright 1986, Carnegie Mellon
 University), and the Gaussian 82(TM) system (copyright 1983,
 Carnegie Mellon University). Gaussian is a federally registered
 trademark of Gaussian, Inc.
  
 This software contains proprietary and confidential information,
 including trade secrets, belonging to Gaussian, Inc.
  
 This software is provided under written license and may be
 used, copied, transmitted, or stored only in accord with that
 written license.
  
 The following legend is applicable only to US Government
 contracts under FAR:
  
                    RESTRICTED RIGHTS LEGEND
  
 Use, reproduction and disclosure by the US Government is
 subject to restrictions as set forth in subparagraphs (a)
 and (c) of the Commercial Computer Software - Restricted
 Rights clause in FAR 52.227-19.
  
 Gaussian, Inc.
 340 Quinnipiac St., Bldg. 40, Wallingford CT 06492
  
  
 ---------------------------------------------------------------
 Warning -- This program may not be used in any manner that
 competes with the business of Gaussian, Inc. or will provide
 assistance to any competitor of Gaussian, Inc.  The licensee
 of this program is prohibited from giving any competitor of
 Gaussian, Inc. access to this program.  By using this program,
 the user acknowledges that Gaussian, Inc. is engaged in the
 business of creating and licensing software in the field of
 computational chemistry and represents and warrants to the
 licensee that it is not a competitor of Gaussian, Inc. and that
 it will not use this program in any manner prohibited above.
 ---------------------------------------------------------------
  

 Cite this work as:
 Gaussian 16, Revision B.01,
 M. J. Frisch, G. W. Trucks, H. B. Schlegel, G. E. Scuseria, 
 M. A. Robb, J. R. Cheeseman, G. Scalmani, V. Barone, 
 G. A. Petersson, H. Nakatsuji, X. Li, M. Caricato, A. V. Marenich, 
 J. Bloino, B. G. Janesko, R. Gomperts, B. Mennucci, H. P. Hratchian, 
 J. V. Ortiz, A. F. Izmaylov, J. L. Sonnenberg, D. Williams-Young, 
 F. Ding, F. Lipparini, F. Egidi, J. Goings, B. Peng, A. Petrone, 
 T. Henderson, D. Ranasinghe, V. G. Zakrzewski, J. Gao, N. Rega, 
 G. Zheng, W. Liang, M. Hada, M. Ehara, K. Toyota, R. Fukuda, 
 J. Hasegawa, M. Ishida, T. Nakajima, Y. Honda, O. Kitao, H. Nakai, 
 T. Vreven, K. Throssell, J. A. Montgomery, Jr., J. E. Peralta, 
 F. Ogliaro, M. J. Bearpark, J. J. Heyd, E. N. Brothers, K. N. Kudin, 
 V. N. Staroverov, T. A. Keith, R. Kobayashi, J. Normand, 
 K. Raghavachari, A. P. Rendell, J. C. Burant, S. S. Iyengar, 
 J. Tomasi, M. Cossi, J. M. Millam, M. Klene, C. Adamo, R. Cammi, 
 J. W. Ochterski, R. L. Martin, K. Morokuma, O. Farkas, 
 J. B. Foresman, and D. J. Fox, Gaussian, Inc., Wallingford CT, 2016.
 
 ******************************************
 Gaussian 16:  ES64L-G16RevB.01 20-Dec-2017
                 9-Aug-2022 
 ******************************************
 %nprocshared=4
 Will use up to    4 processors via shared memory.
 %mem=8000mb
 ----------------------------------------------------------------------
 #T wB97XD/def2svpp opt=tight freq int(grid=ultrafine) scf=(verytight,q
 c)
 ----------------------------------------------------------------------
 -----
 dimer
 -----
 Symbolic Z-matrix:
 Charge =  0 Multiplicity = 1
 C                    -3.3633    0.91102   0.85371 
 C                    -2.78226  -0.24769   0.03669 
 C                    -1.88726  -1.10702   0.93091 
 C                    -3.92298  -1.10034  -0.52403 
 C                    -1.97431   0.30053  -1.15573 
 O                    -0.96625   1.225    -0.80987 
 H                    -4.05826   0.52728   1.59657 
 H                    -3.90343   1.60725   0.213 
 H                    -2.57784   1.44629   1.38439 
 H                    -2.4519   -1.47083   1.78622 
 H                    -1.03974  -0.53393   1.29864 
 H                    -1.51367  -1.9667    0.37835 
 H                    -4.60267  -0.49461  -1.11998 
 H                    -4.48834  -1.55175   0.28751 
 H                    -3.53225  -1.89664  -1.15359 
 H                    -2.66366   0.76322  -1.87693 
 H                    -1.45664  -0.51948  -1.65946 
 H                    -1.38219   1.96062  -0.34585 
 C                     2.2978    0.30572  -1.48007 
 C                     2.79648  -0.20611  -0.12565 
 C                     2.24531  -1.60845   0.13535 
 C                     4.32603  -0.24333  -0.13233 
 C                     2.33769   0.74476   0.9987 
 O                     0.95678   0.7382    1.24288 
 H                     2.61814  -0.36442  -2.27501 
 H                     2.70179   1.29554  -1.6847 
 H                     1.21271   0.36774  -1.50604 
 H                     2.54683  -2.28988  -0.65715 
 H                     1.15979  -1.58413   0.18137 
 H                     2.61669  -1.9916    1.08315 
 H                     4.70633  -0.62338   0.8133 
 H                     4.73326   0.75349  -0.28898 
 H                     4.68395  -0.88958  -0.9307 
 H                     2.67808   1.76586   0.7632 
 H                     2.80085   0.44331   1.94294 
 H                     0.49023   0.90643   0.40697 
 
 Add virtual bond connecting atoms H36        and O6         Dist= 3.64D+00.

 GradGradGradGradGradGradGradGradGradGradGradGradGradGradGradGradGradGrad
 Initialization pass.
                           ----------------------------
                           !    Initial Parameters    !
                           ! (Angstroms and Degrees)  !
 --------------------------                            --------------------------
 ! Name  Definition              Value          Derivative Info.                !
 --------------------------------------------------------------------------------
 ! R1    R(1,2)                  1.5322         estimate D2E/DX2                !
 ! R2    R(1,7)                  1.0872         estimate D2E/DX2                !
 ! R3    R(1,8)                  1.0895         estimate D2E/DX2                !
 ! R4    R(1,9)                  1.0886         estimate D2E/DX2                !
 ! R5    R(2,3)                  1.5294         estimate D2E/DX2                !
 ! R6    R(2,4)                  1.5306         estimate D2E/DX2                !
 ! R7    R(2,5)                  1.5412         estimate D2E/DX2                !
 ! R8    R(3,10)                 1.0875         estimate D2E/DX2                !
 ! R9    R(3,11)                 1.0872         estimate D2E/DX2                !
 ! R10   R(3,12)                 1.0881         estimate D2E/DX2                !
 ! R11   R(4,13)                 1.0881         estimate D2E/DX2                !
 ! R12   R(4,14)                 1.0872         estimate D2E/DX2                !
 ! R13   R(4,15)                 1.0877         estimate D2E/DX2                !
 ! R14   R(5,6)                  1.4108         estimate D2E/DX2                !
 ! R15   R(5,16)                 1.0997         estimate D2E/DX2                !
 ! R16   R(5,17)                 1.0928         estimate D2E/DX2                !
 ! R17   R(6,18)                 0.9641         estimate D2E/DX2                !
 ! R18   R(6,36)                 1.9245         estimate D2E/DX2                !
 ! R19   R(19,20)                1.5314         estimate D2E/DX2                !
 ! R20   R(19,25)                1.0879         estimate D2E/DX2                !
 ! R21   R(19,26)                1.0885         estimate D2E/DX2                !
 ! R22   R(19,27)                1.0872         estimate D2E/DX2                !
 ! R23   R(20,21)                1.5292         estimate D2E/DX2                !
 ! R24   R(20,22)                1.53           estimate D2E/DX2                !
 ! R25   R(20,23)                1.5423         estimate D2E/DX2                !
 ! R26   R(21,28)                1.0878         estimate D2E/DX2                !
 ! R27   R(21,29)                1.0868         estimate D2E/DX2                !
 ! R28   R(21,30)                1.0877         estimate D2E/DX2                !
 ! R29   R(22,31)                1.0878         estimate D2E/DX2                !
 ! R30   R(22,32)                1.0881         estimate D2E/DX2                !
 ! R31   R(22,33)                1.0877         estimate D2E/DX2                !
 ! R32   R(23,24)                1.4024         estimate D2E/DX2                !
 ! R33   R(23,34)                1.1018         estimate D2E/DX2                !
 ! R34   R(23,35)                1.0941         estimate D2E/DX2                !
 ! R35   R(24,36)                0.972          estimate D2E/DX2                !
 ! A1    A(2,1,7)              109.8649         estimate D2E/DX2                !
 ! A2    A(2,1,8)              110.9571         estimate D2E/DX2                !
 ! A3    A(2,1,9)              110.9876         estimate D2E/DX2                !
 ! A4    A(7,1,8)              108.0877         estimate D2E/DX2                !
 ! A5    A(7,1,9)              107.5584         estimate D2E/DX2                !
 ! A6    A(8,1,9)              109.2793         estimate D2E/DX2                !
 ! A7    A(1,2,3)              109.5749         estimate D2E/DX2                !
 ! A8    A(1,2,4)              109.512          estimate D2E/DX2                !
 ! A9    A(1,2,5)              110.0206         estimate D2E/DX2                !
 ! A10   A(3,2,4)              109.7143         estimate D2E/DX2                !
 ! A11   A(3,2,5)              110.2095         estimate D2E/DX2                !
 ! A12   A(4,2,5)              107.7841         estimate D2E/DX2                !
 ! A13   A(2,3,10)             110.1185         estimate D2E/DX2                !
 ! A14   A(2,3,11)             110.9641         estimate D2E/DX2                !
 ! A15   A(2,3,12)             110.3608         estimate D2E/DX2                !
 ! A16   A(10,3,11)            108.3647         estimate D2E/DX2                !
 ! A17   A(10,3,12)            108.2611         estimate D2E/DX2                !
 ! A18   A(11,3,12)            108.6985         estimate D2E/DX2                !
 ! A19   A(2,4,13)             110.8584         estimate D2E/DX2                !
 ! A20   A(2,4,14)             110.2061         estimate D2E/DX2                !
 ! A21   A(2,4,15)             110.6182         estimate D2E/DX2                !
 ! A22   A(13,4,14)            108.3687         estimate D2E/DX2                !
 ! A23   A(13,4,15)            108.3566         estimate D2E/DX2                !
 ! A24   A(14,4,15)            108.3537         estimate D2E/DX2                !
 ! A25   A(2,5,6)              114.7084         estimate D2E/DX2                !
 ! A26   A(2,5,16)             109.1743         estimate D2E/DX2                !
 ! A27   A(2,5,17)             109.7598         estimate D2E/DX2                !
 ! A28   A(6,5,16)             109.4481         estimate D2E/DX2                !
 ! A29   A(6,5,17)             105.44           estimate D2E/DX2                !
 ! A30   A(16,5,17)            108.0809         estimate D2E/DX2                !
 ! A31   A(5,6,18)             108.0417         estimate D2E/DX2                !
 ! A32   A(5,6,36)             125.9657         estimate D2E/DX2                !
 ! A33   A(18,6,36)             98.5397         estimate D2E/DX2                !
 ! A34   A(20,19,25)           110.151          estimate D2E/DX2                !
 ! A35   A(20,19,26)           110.4474         estimate D2E/DX2                !
 ! A36   A(20,19,27)           111.4202         estimate D2E/DX2                !
 ! A37   A(25,19,26)           108.2693         estimate D2E/DX2                !
 ! A38   A(25,19,27)           108.1535         estimate D2E/DX2                !
 ! A39   A(26,19,27)           108.3042         estimate D2E/DX2                !
 ! A40   A(19,20,21)           109.8822         estimate D2E/DX2                !
 ! A41   A(19,20,22)           109.257          estimate D2E/DX2                !
 ! A42   A(19,20,23)           109.9888         estimate D2E/DX2                !
 ! A43   A(21,20,22)           109.8011         estimate D2E/DX2                !
 ! A44   A(21,20,23)           109.4954         estimate D2E/DX2                !
 ! A45   A(22,20,23)           108.3939         estimate D2E/DX2                !
 ! A46   A(20,21,28)           110.5            estimate D2E/DX2                !
 ! A47   A(20,21,29)           110.2869         estimate D2E/DX2                !
 ! A48   A(20,21,30)           110.4077         estimate D2E/DX2                !
 ! A49   A(28,21,29)           108.7676         estimate D2E/DX2                !
 ! A50   A(28,21,30)           108.6348         estimate D2E/DX2                !
 ! A51   A(29,21,30)           108.182          estimate D2E/DX2                !
 ! A52   A(20,22,31)           110.7444         estimate D2E/DX2                !
 ! A53   A(20,22,32)           110.6389         estimate D2E/DX2                !
 ! A54   A(20,22,33)           110.2803         estimate D2E/DX2                !
 ! A55   A(31,22,32)           108.3233         estimate D2E/DX2                !
 ! A56   A(31,22,33)           108.3875         estimate D2E/DX2                !
 ! A57   A(32,22,33)           108.3885         estimate D2E/DX2                !
 ! A58   A(20,23,24)           114.6428         estimate D2E/DX2                !
 ! A59   A(20,23,34)           108.8833         estimate D2E/DX2                !
 ! A60   A(20,23,35)           109.4732         estimate D2E/DX2                !
 ! A61   A(24,23,34)           110.229          estimate D2E/DX2                !
 ! A62   A(24,23,35)           105.3849         estimate D2E/DX2                !
 ! A63   A(34,23,35)           108.001          estimate D2E/DX2                !
 ! A64   A(23,24,36)           108.7904         estimate D2E/DX2                !
 ! A65   A(6,36,24)            159.3461         estimate D2E/DX2                !
 ! D1    D(7,1,2,3)            -67.6063         estimate D2E/DX2                !
 ! D2    D(7,1,2,4)             52.7809         estimate D2E/DX2                !
 ! D3    D(7,1,2,5)            171.0752         estimate D2E/DX2                !
 ! D4    D(8,1,2,3)            172.9294         estimate D2E/DX2                !
 ! D5    D(8,1,2,4)            -66.6834         estimate D2E/DX2                !
 ! D6    D(8,1,2,5)             51.6109         estimate D2E/DX2                !
 ! D7    D(9,1,2,3)             51.2201         estimate D2E/DX2                !
 ! D8    D(9,1,2,4)            171.6073         estimate D2E/DX2                !
 ! D9    D(9,1,2,5)            -70.0984         estimate D2E/DX2                !
 ! D10   D(1,2,3,10)            57.2575         estimate D2E/DX2                !
 ! D11   D(1,2,3,11)           -62.721          estimate D2E/DX2                !
 ! D12   D(1,2,3,12)           176.7226         estimate D2E/DX2                !
 ! D13   D(4,2,3,10)           -63.0064         estimate D2E/DX2                !
 ! D14   D(4,2,3,11)           177.015          estimate D2E/DX2                !
 ! D15   D(4,2,3,12)            56.4587         estimate D2E/DX2                !
 ! D16   D(5,2,3,10)           178.4621         estimate D2E/DX2                !
 ! D17   D(5,2,3,11)            58.4835         estimate D2E/DX2                !
 ! D18   D(5,2,3,12)           -62.0728         estimate D2E/DX2                !
 ! D19   D(1,2,4,13)            56.6107         estimate D2E/DX2                !
 ! D20   D(1,2,4,14)           -63.3619         estimate D2E/DX2                !
 ! D21   D(1,2,4,15)           176.8385         estimate D2E/DX2                !
 ! D22   D(3,2,4,13)           176.9129         estimate D2E/DX2                !
 ! D23   D(3,2,4,14)            56.9404         estimate D2E/DX2                !
 ! D24   D(3,2,4,15)           -62.8593         estimate D2E/DX2                !
 ! D25   D(5,2,4,13)           -63.0661         estimate D2E/DX2                !
 ! D26   D(5,2,4,14)           176.9613         estimate D2E/DX2                !
 ! D27   D(5,2,4,15)            57.1617         estimate D2E/DX2                !
 ! D28   D(1,2,5,6)             54.2733         estimate D2E/DX2                !
 ! D29   D(1,2,5,16)           -68.9591         estimate D2E/DX2                !
 ! D30   D(1,2,5,17)           172.7425         estimate D2E/DX2                !
 ! D31   D(3,2,5,6)            -66.665          estimate D2E/DX2                !
 ! D32   D(3,2,5,16)           170.1026         estimate D2E/DX2                !
 ! D33   D(3,2,5,17)            51.8042         estimate D2E/DX2                !
 ! D34   D(4,2,5,6)            173.6272         estimate D2E/DX2                !
 ! D35   D(4,2,5,16)            50.3948         estimate D2E/DX2                !
 ! D36   D(4,2,5,17)           -67.9036         estimate D2E/DX2                !
 ! D37   D(2,5,6,18)           -58.0879         estimate D2E/DX2                !
 ! D38   D(2,5,6,36)            57.3361         estimate D2E/DX2                !
 ! D39   D(16,5,6,18)           64.9976         estimate D2E/DX2                !
 ! D40   D(16,5,6,36)         -179.5784         estimate D2E/DX2                !
 ! D41   D(17,5,6,18)         -178.963          estimate D2E/DX2                !
 ! D42   D(17,5,6,36)          -63.5391         estimate D2E/DX2                !
 ! D43   D(5,6,36,24)          -67.5162         estimate D2E/DX2                !
 ! D44   D(18,6,36,24)          52.2133         estimate D2E/DX2                !
 ! D45   D(25,19,20,21)        -59.2649         estimate D2E/DX2                !
 ! D46   D(25,19,20,22)         61.2604         estimate D2E/DX2                !
 ! D47   D(25,19,20,23)       -179.8742         estimate D2E/DX2                !
 ! D48   D(26,19,20,21)       -178.8155         estimate D2E/DX2                !
 ! D49   D(26,19,20,22)        -58.2902         estimate D2E/DX2                !
 ! D50   D(26,19,20,23)         60.5751         estimate D2E/DX2                !
 ! D51   D(27,19,20,21)         60.7657         estimate D2E/DX2                !
 ! D52   D(27,19,20,22)       -178.709          estimate D2E/DX2                !
 ! D53   D(27,19,20,23)        -59.8437         estimate D2E/DX2                !
 ! D54   D(19,20,21,28)         58.2262         estimate D2E/DX2                !
 ! D55   D(19,20,21,29)        -62.0656         estimate D2E/DX2                !
 ! D56   D(19,20,21,30)        178.4307         estimate D2E/DX2                !
 ! D57   D(22,20,21,28)        -61.9696         estimate D2E/DX2                !
 ! D58   D(22,20,21,29)        177.7385         estimate D2E/DX2                !
 ! D59   D(22,20,21,30)         58.2349         estimate D2E/DX2                !
 ! D60   D(23,20,21,28)        179.1331         estimate D2E/DX2                !
 ! D61   D(23,20,21,29)         58.8412         estimate D2E/DX2                !
 ! D62   D(23,20,21,30)        -60.6624         estimate D2E/DX2                !
 ! D63   D(19,20,22,31)       -178.8443         estimate D2E/DX2                !
 ! D64   D(19,20,22,32)         61.0308         estimate D2E/DX2                !
 ! D65   D(19,20,22,33)        -58.8734         estimate D2E/DX2                !
 ! D66   D(21,20,22,31)        -58.2694         estimate D2E/DX2                !
 ! D67   D(21,20,22,32)       -178.3943         estimate D2E/DX2                !
 ! D68   D(21,20,22,33)         61.7015         estimate D2E/DX2                !
 ! D69   D(23,20,22,31)         61.3034         estimate D2E/DX2                !
 ! D70   D(23,20,22,32)        -58.8214         estimate D2E/DX2                !
 ! D71   D(23,20,22,33)       -178.7256         estimate D2E/DX2                !
 ! D72   D(19,20,23,24)         68.8909         estimate D2E/DX2                !
 ! D73   D(19,20,23,34)        -55.0937         estimate D2E/DX2                !
 ! D74   D(19,20,23,35)       -172.9578         estimate D2E/DX2                !
 ! D75   D(21,20,23,24)        -51.9513         estimate D2E/DX2                !
 ! D76   D(21,20,23,34)       -175.9359         estimate D2E/DX2                !
 ! D77   D(21,20,23,35)         66.2            estimate D2E/DX2                !
 ! D78   D(22,20,23,24)       -171.7158         estimate D2E/DX2                !
 ! D79   D(22,20,23,34)         64.2996         estimate D2E/DX2                !
 ! D80   D(22,20,23,35)        -53.5644         estimate D2E/DX2                !
 ! D81   D(20,23,24,36)        -53.506          estimate D2E/DX2                !
 ! D82   D(34,23,24,36)         69.7598         estimate D2E/DX2                !
 ! D83   D(35,23,24,36)       -173.9455         estimate D2E/DX2                !
 ! D84   D(23,24,36,6)        -175.695          estimate D2E/DX2                !
 --------------------------------------------------------------------------------
 Number of steps in this run=    194 maximum allowed number of steps=    216.
 GradGradGradGradGradGradGradGradGradGradGradGradGradGradGradGradGradGrad

                    Distance matrix (angstroms):
                    1          2          3          4          5
     1  C    0.000000
     2  C    1.532239   0.000000
     3  C    2.501427   1.529412   0.000000
     4  C    2.501409   1.530578   2.502214   0.000000
     5  C    2.517907   1.541164   2.518493   2.481694   0.000000
     6  O    2.934605   2.486636   3.052351   3.772421   1.410829
     7  H    1.087232   2.159163   2.797727   2.676644   3.459686
     8  H    1.089493   2.174606   3.456529   2.806183   2.702304
     9  H    1.088607   2.174319   2.683643   3.454973   2.851179
    10  H    2.715406   2.160111   1.087542   2.763807   3.467114
    11  H    2.772142   2.170447   1.087170   3.457752   2.755660
    12  H    3.453748   2.163572   1.088088   2.714713   2.775949
    13  H    2.721637   2.170878   3.457544   1.088131   2.746230
    14  H    2.766147   2.161984   2.716131   1.087195   3.440087
    15  H    3.455543   2.167546   2.770309   1.087702   2.693455
    16  H    2.822725   2.167476   3.461872   2.624710   1.099739
    17  H    3.463780   2.169812   2.690845   2.776593   1.092773
    18  H    2.542709   2.642565   3.360889   3.982065   1.939692
    19  C    6.153128   5.330466   5.032231   6.448968   4.284411
    20  C    6.336396   5.581253   4.885210   6.790396   4.906949
    21  C    6.190334   5.209401   4.238210   6.224208   4.807939
    22  C    7.837764   7.110303   6.362497   8.302658   6.406047
    23  C    5.705255   5.303242   4.613444   6.702179   4.840693
    24  O    4.341008   4.050593   3.404507   5.505841   3.812635
    25  H    6.869731   5.875532   5.579240   6.811297   4.773418
    26  H    6.586094   5.951431   5.802844   7.139676   4.809963
    27  H    5.177203   4.326496   4.209917   5.430927   3.206922
    28  H    6.888983   5.749014   4.856152   6.579605   5.234454
    29  H    5.209241   4.164949   3.173950   5.154246   3.893890
    30  H    6.651168   5.769310   4.592511   6.792985   5.598543
    31  H    8.214306   7.538118   6.612341   8.745337   7.025781
    32  H    8.178308   7.588901   6.984324   8.855642   6.778486
    33  H    8.437092   7.555940   6.833276   8.619116   6.767532
    34  H    6.102229   5.864946   5.396654   7.310690   5.241592
    35  H    6.277091   5.939902   5.040445   7.326580   5.694235
    36  H    3.879338   3.489746   3.159261   4.936637   2.980459
                    6          7          8          9         10
     6  O    0.000000
     7  H    3.979734   0.000000
     8  H    3.133589   1.761986   0.000000
     9  H    2.731475   1.755349   1.776302   0.000000
    10  H    4.026702   2.570753   3.749205   2.947358   0.000000
    11  H    2.746824   3.213471   3.736844   2.508864   1.763439
    12  H    3.449411   3.765490   4.302488   3.713902   1.763031
    13  H    4.034440   2.953011   2.585261   3.760168   3.744968
    14  H    4.617319   2.494188   3.213558   3.720404   2.529776
    15  H    4.055497   3.703435   3.779228   4.304346   3.160848
    16  H    2.057437   3.750442   2.572397   3.333191   4.295874
    17  H    2.001372   4.297200   3.743783   3.792941   3.710575
    18  H    0.964084   3.603997   2.606494   2.165138   4.179094
    19  C    3.456632   7.065007   6.558639   5.768701   6.031953
    20  C    4.083427   7.105721   6.949222   5.821847   5.727146
    21  C    4.385889   6.814062   6.939290   5.844168   4.980770
    22  C    5.533835   8.595303   8.442033   7.267646   7.150380
    23  C    3.797058   6.427514   6.349239   4.980297   5.335654
    24  O    2.854618   5.031914   5.043564   3.607623   4.098058
    25  H    4.185777   7.769075   7.253171   6.608179   6.589615
    26  H    3.771582   7.553489   6.879485   6.108722   6.801514
    27  H    2.442833   6.118396   5.537723   4.887342   5.258201
    28  H    4.971866   7.526143   7.586214   6.662515   5.623897
    29  H    3.659761   5.804215   5.985161   4.959903   3.953824
    30  H    5.173731   7.152846   7.498052   6.236420   5.143547
    31  H    6.182991   8.874427   8.914257   7.593995   7.273577
    32  H    5.742654   8.994287   8.693287   7.532082   7.802596
    33  H    6.034144   9.209823   9.015839   7.971798   7.657671
    34  H    4.006034   6.899775   6.606377   5.302144   6.151377
    35  H    4.730761   6.868363   7.021028   5.499843   5.592842
    36  H    1.924462   4.716742   4.453429   3.264942   4.026143
                   11         12         13         14         15
    11  H    0.000000
    12  H    1.767582   0.000000
    13  H    4.306471   3.735497   0.000000
    14  H    3.735126   3.004845   1.763980   0.000000
    15  H    3.752729   2.535037   1.764257   1.763466   0.000000
    16  H    3.795257   3.723068   2.432049   3.656958   2.890071
    17  H    2.987368   2.500072   3.192049   3.747998   2.541776
    18  H    3.007389   3.995690   4.122967   4.731384   4.489274
    19  C    4.423278   4.810913   6.956053   7.254393   6.240709
    20  C    4.105189   4.683053   7.471226   7.419564   6.630782
    21  C    3.646826   3.783816   7.050620   6.735601   5.926598
    22  C    5.560897   6.110061   8.986670   8.920836   8.094995
    23  C    3.623817   4.750768   7.361619   7.237018   6.787160
    24  O    2.368014   3.763901   6.165253   5.983800   5.730338
    25  H    5.116612   5.165211   7.313759   7.647106   6.436810
    26  H    5.123112   5.715628   7.541790   7.980887   7.023906
    27  H    3.708466   4.053842   5.891632   6.277197   5.269371
    28  H    4.446563   4.202896   7.385966   7.136581   6.111978
    29  H    2.681258   2.707865   6.007203   5.649219   4.888252
    30  H    3.942164   4.190128   7.695050   7.162950   6.543807
    31  H    5.767217   6.378242   9.508495   9.256357   8.565274
    32  H    6.124167   6.846075   9.455567   9.522826   8.722915
    33  H    6.152809   6.425284   9.296943   9.276498   8.280690
    34  H    4.404307   5.625908   7.852734   7.911410   7.460307
    35  H    4.015004   5.183737   8.066798   7.736471   7.427784
    36  H    2.282655   3.503040   5.498373   5.553654   5.145181
                   16         17         18         19         20
    16  H    0.000000
    17  H    1.774693   0.000000
    18  H    2.328117   2.807493   0.000000
    19  C    4.998294   3.848240   4.191362   0.000000
    20  C    5.815472   4.532080   4.712163   1.531373   0.000000
    21  C    5.811378   4.255773   5.111612   2.505274   1.529205
    22  C    7.274105   5.987290   6.122647   2.496311   1.530023
    23  C    5.769159   4.802198   4.138080   2.517671   1.542337
    24  O    4.779275   3.978687   3.080452   3.065920   2.479734
    25  H    5.415482   4.123920   5.012992   1.087945   2.162550
    26  H    5.395216   4.537337   4.348994   1.088496   2.166697
    27  H    3.914110   2.817113   3.258347   1.087171   2.177862
    28  H    6.161049   4.490732   5.796626   2.734291   2.164928
    29  H    4.936141   3.371623   4.393736   2.761700   2.161466
    30  H    6.650805   5.126501   5.801129   3.456799   2.163673
    31  H    7.967230   6.641345   6.714966   3.453081   2.168702
    32  H    7.565454   6.466331   6.233709   2.747839   2.167631
    33  H    7.590427   6.194749   6.727839   2.724750   2.162825
    34  H    6.042340   5.309239   4.213526   2.703497   2.166272
    35  H    6.674929   5.659548   5.003864   3.462510   2.168136
    36  H    3.896638   3.177058   2.276847   2.681251   2.615378
                   21         22         23         24         25
    21  C    0.000000
    22  C    2.502924   0.000000
    23  C    2.508290   2.491795   0.000000
    24  O    2.897187   3.769147   1.402353   0.000000
    25  H    2.737968   2.742744   3.467870   4.043692   0.000000
    26  H    3.457477   2.723261   2.763439   3.453470   1.763779
    27  H    2.768707   3.457344   2.771543   2.785552   1.761418
    28  H    1.087806   2.762131   3.463327   3.912498   2.515942
    29  H    1.086762   3.452714   2.734819   2.561494   3.106166
    30  H    1.087679   2.730513   2.751839   3.198841   3.731617
    31  H    2.736164   1.087788   2.741643   4.012175   3.737012
    32  H    3.456689   1.088122   2.719731   4.075370   3.109298
    33  H    2.756853   1.087723   3.449434   4.611502   2.520033
    34  H    3.459402   2.748551   1.101803   2.061330   3.711118
    35  H    2.790292   2.665404   1.094059   1.994403   4.298475
    36  H    3.078752   4.040564   1.946637   0.971964   3.651860
                   26         27         28         29         30
    26  H    0.000000
    27  H    1.763541   0.000000
    28  H    3.732977   3.092478   0.000000
    29  H    3.761979   2.580686   1.767785   0.000000
    30  H    4.298085   3.773792   1.767061   1.761187   0.000000
    31  H    3.733694   4.308942   3.098850   3.728308   2.512255
    32  H    2.523634   3.744896   3.765379   4.295967   3.728016
    33  H    3.045039   3.736493   2.569625   3.760161   3.089277
    34  H    2.492790   3.041627   4.299261   3.723733   3.771553
    35  H    3.727719   3.797805   3.780915   3.147497   2.588808
    36  H    3.068793   2.114658   3.946945   2.588848   3.657541
                   31         32         33         34         35
    31  H    0.000000
    32  H    1.763950   0.000000
    33  H    1.764340   1.764621   0.000000
    34  H    3.134444   2.521056   3.734188   0.000000
    35  H    2.458605   2.968478   3.685166   1.776507   0.000000
    36  H    4.503431   4.302442   4.754191   2.377439   2.812941
                   36
    36  H    0.000000
 Framework group  C1[X(C10H24O2)]
 Deg. of freedom   102
                         Standard orientation:                         
 ---------------------------------------------------------------------
 Center     Atomic      Atomic             Coordinates (Angstroms)
 Number     Number       Type             X           Y           Z
 ---------------------------------------------------------------------
      1          6           0       -3.363985   -0.930185   -0.846047
      2          6           0       -2.778844    0.226533   -0.029119
      3          6           0       -1.888224    1.087964   -0.925687
      4          6           0       -3.916723    1.077889    0.539292
      5          6           0       -1.965033   -0.324593    1.157961
      6          8           0       -0.958758   -1.248278    0.804894
      7          1           0       -4.062593   -0.544616   -1.584530
      8          1           0       -3.900984   -1.627924   -0.204341
      9          1           0       -2.581199   -1.464213   -1.381887
     10          1           0       -2.457072    1.453859   -1.777321
     11          1           0       -1.042571    0.515724   -1.298986
     12          1           0       -1.511850    1.946292   -0.372920
     13          1           0       -4.593485    0.470758    1.137132
     14          1           0       -4.486060    1.531276   -0.268353
     15          1           0       -3.522827    1.872646    1.168819
     16          1           0       -2.650834   -0.788987    1.881453
     17          1           0       -1.444821    0.494177    1.661098
     18          1           0       -1.377034   -1.982759    0.341169
     19          6           0        2.308634   -0.330775    1.461133
     20          6           0        2.800626    0.184289    0.105494
     21          6           0        2.248258    1.587281   -0.149398
     22          6           0        4.330198    0.221415    0.104693
     23          6           0        2.336225   -0.763850   -1.018857
     24          8           0        0.954118   -0.756632   -1.256181
     25          1           0        2.632941    0.337430    2.256087
     26          1           0        2.713565   -1.321106    1.661381
     27          1           0        1.223682   -0.392804    1.492322
     28          1           0        2.553742    2.266785    0.643239
     29          1           0        1.162528    1.563127   -0.190097
     30          1           0        2.614964    1.972688   -1.098100
     31          1           0        4.705830    0.603725   -0.841892
     32          1           0        4.738133   -0.775793    0.256929
     33          1           0        4.692109    0.865725    0.902833
     34          1           0        2.677717   -1.785529   -0.787502
     35          1           0        2.794723   -0.460153   -1.964644
     36          1           0        0.491706   -0.926857   -0.418379
 ---------------------------------------------------------------------
 Rotational constants (GHZ):           1.6550006           0.3568480           0.3552496
   216 basis functions,   396 primitive gaussians,   228 cartesian basis functions
    50 alpha electrons       50 beta electrons
       nuclear repulsion energy       801.0600089037 Hartrees.
 NAtoms=   36 NActive=   36 NUniq=   36 SFac= 1.00D+00 NAtFMM=   60 NAOKFM=F Big=F
 Nuclear repulsion after empirical dispersion term =      801.0311276674 Hartrees.
   1 Symmetry operations used in ECPInt.
 ECPInt:  NShTT=    7260 NPrTT=   29148 LenC2=    7022 LenP2D=   20451.
 LDataN:  DoStor=T MaxTD1= 4 Len=   56
 ExpMin= 1.22D-01 ExpMax= 2.27D+03 ExpMxC= 3.41D+02 IAcc=3 IRadAn=         5 AccDes= 0.00D+00
 Harris functional with IExCor= 4639 and IRadAn=       5 diagonalized for initial guess.
 HarFok:  IExCor= 4639 AccDes= 0.00D+00 IRadAn=         5 IDoV= 1 UseB2=F ITyADJ=14
 ICtDFT=  3500011 ScaDFX=  1.000000  1.000000  1.000000  1.000000
 FoFCou: FMM=F IPFlag=           0 FMFlag=      100000 FMFlg1=           0
         NFxFlg=           0 DoJE=T BraDBF=F KetDBF=T FulRan=T
         wScrn=  0.000000 ICntrl=       500 IOpCl=  0 I1Cent=   200000004 NGrid=           0
         NMat0=    1 NMatS0=      1 NMatT0=    0 NMatD0=    1 NMtDS0=    0 NMtDT0=    0
 Petite list used in FoFCou.
     Minimum is close to point  3 DX= -1.43D-02 DF= -6.57D-05 DXR=  2.45D-02 DFR=  5.94D-04 which will be used.
     Accept linear search using points  2 and  3.
     Accept linear search using points  1 and  2.
     Accept linear search using points  2 and  3.
     Accept linear search using points  1 and  2.
     Minimum is close to point  2 DX= -7.08D-05 DF=  0.00D+00 DXR=  7.08D-05 DFR=  0.00D+00 which will be used.
 SCF Done:  E(RwB97XD) =  -545.359705298     a.u. after    7 cycles
            Convg  =    0.5004D-06                    26 Fock formations.
              S**2 =  0.0000                  -V/T =  2.0095

 **********************************************************************

            Population analysis using the SCF Density.

 **********************************************************************

 Orbital symmetries:
       Occupied  (A) (A) (A) (A) (A) (A) (A) (A) (A) (A) (A) (A)
                 (A) (A) (A) (A) (A) (A) (A) (A) (A) (A) (A) (A)
                 (A) (A) (A) (A) (A) (A) (A) (A) (A) (A) (A) (A)
                 (A) (A) (A) (A) (A) (A) (A) (A) (A) (A) (A) (A)
                 (A) (A)
       Virtual   (A) (A) (A) (A) (A) (A) (A) (A) (A) (A) (A) (A)
                 (A) (A) (A) (A) (A) (A) (A) (A) (A) (A) (A) (A)
                 (A) (A) (A) (A) (A) (A) (A) (A) (A) (A) (A) (A)
                 (A) (A) (A) (A) (A) (A) (A) (A) (A) (A) (A) (A)
                 (A) (A) (A) (A) (A) (A) (A) (A) (A) (A) (A) (A)
                 (A) (A) (A) (A) (A) (A) (A) (A) (A) (A) (A) (A)
                 (A) (A) (A) (A) (A) (A) (A) (A) (A) (A) (A) (A)
                 (A) (A) (A) (A) (A) (A) (A) (A) (A) (A) (A) (A)
                 (A) (A) (A) (A) (A) (A) (A) (A) (A) (A) (A) (A)
                 (A) (A) (A) (A) (A) (A) (A) (A) (A) (A) (A) (A)
                 (A) (A) (A) (A) (A) (A) (A) (A) (A) (A) (A) (A)
                 (A) (A) (A) (A) (A) (A) (A) (A) (A) (A) (A) (A)
                 (A) (A) (A) (A) (A) (A) (A) (A) (A) (A) (A) (A)
                 (A) (A) (A) (A) (A) (A) (A) (A) (A) (A)
 The electronic state is 1-A.
 Alpha  occ. eigenvalues --  -19.27420 -19.22467 -10.34184 -10.31531 -10.30932
 Alpha  occ. eigenvalues --  -10.29211 -10.28608 -10.28202 -10.26885 -10.26792
 Alpha  occ. eigenvalues --  -10.26556 -10.26248  -1.13554  -1.09020  -0.92003
 Alpha  occ. eigenvalues --   -0.90256  -0.79176  -0.77805  -0.77436  -0.77101
 Alpha  occ. eigenvalues --   -0.76747  -0.74843  -0.65034  -0.62720  -0.60170
 Alpha  occ. eigenvalues --   -0.57804  -0.56064  -0.55466  -0.54376  -0.53204
 Alpha  occ. eigenvalues --   -0.52720  -0.51360  -0.50570  -0.49098  -0.48216
 Alpha  occ. eigenvalues --   -0.47324  -0.46488  -0.45840  -0.45499  -0.45010
 Alpha  occ. eigenvalues --   -0.44065  -0.43861  -0.42571  -0.41429  -0.40692
 Alpha  occ. eigenvalues --   -0.39921  -0.39679  -0.37782  -0.36504  -0.33112
 Alpha virt. eigenvalues --    0.11395   0.13943   0.14368   0.17015   0.17531
 Alpha virt. eigenvalues --    0.18583   0.18901   0.19079   0.19639   0.19873
 Alpha virt. eigenvalues --    0.21067   0.22112   0.22393   0.22826   0.23316
 Alpha virt. eigenvalues --    0.24177   0.24826   0.25619   0.26023   0.26607
 Alpha virt. eigenvalues --    0.27074   0.27771   0.28039   0.28835   0.29785
 Alpha virt. eigenvalues --    0.30762   0.31209   0.31559   0.31838   0.32627
 Alpha virt. eigenvalues --    0.33526   0.34471   0.34583   0.36482   0.48172
 Alpha virt. eigenvalues --    0.48747   0.49056   0.50021   0.52314   0.53022
 Alpha virt. eigenvalues --    0.54151   0.54373   0.57427   0.60154   0.62842
 Alpha virt. eigenvalues --    0.62981   0.64695   0.65411   0.66885   0.67232
 Alpha virt. eigenvalues --    0.67990   0.69203   0.70180   0.71756   0.73344
 Alpha virt. eigenvalues --    0.75278   0.76097   0.76214   0.77036   0.77819
 Alpha virt. eigenvalues --    0.78386   0.78575   0.78868   0.79449   0.79930
 Alpha virt. eigenvalues --    0.80058   0.80946   0.81018   0.82308   0.82851
 Alpha virt. eigenvalues --    0.83183   0.83558   0.83761   0.84184   0.84471
 Alpha virt. eigenvalues --    0.84734   0.85267   0.85812   0.85836   0.86448
 Alpha virt. eigenvalues --    0.86749   0.87627   0.88336   0.88875   0.90267
 Alpha virt. eigenvalues --    0.90906   0.92639   0.97631   1.00597   1.03885
 Alpha virt. eigenvalues --    1.07839   1.10073   1.16221   1.18559   1.21768
 Alpha virt. eigenvalues --    1.23262   1.23847   1.25824   1.27464   1.29105
 Alpha virt. eigenvalues --    1.34448   1.36381   1.37014   1.44744   1.47159
 Alpha virt. eigenvalues --    1.51194   1.54573   1.58797   1.62976   1.69728
 Alpha virt. eigenvalues --    1.78005   1.80272   1.80625   1.81567   1.85480
 Alpha virt. eigenvalues --    1.85826   1.88849   1.90595   1.91952   1.92607
 Alpha virt. eigenvalues --    1.94469   1.95252   2.06803   2.08889   2.11081
 Alpha virt. eigenvalues --    2.12325   2.13289   2.13510   2.14053   2.14477
 Alpha virt. eigenvalues --    2.15133   2.16071   2.20463   2.22801   2.25730
 Alpha virt. eigenvalues --    2.26060   2.26170   2.26565   2.27326   2.27556
 Alpha virt. eigenvalues --    2.28154   2.28678   2.29509   2.29724   2.30481
 Alpha virt. eigenvalues --    2.32424   2.58776   2.60265   2.62737   2.63976
 Alpha virt. eigenvalues --    2.68240   2.71599   2.71688   2.73696   2.75897
 Alpha virt. eigenvalues --    2.77617   2.78464   2.81073   2.90842   2.96081
 Alpha virt. eigenvalues --    3.04923   3.08407   3.09110   3.15684   3.46611
 Alpha virt. eigenvalues --    3.52285
          Condensed to atoms (all electrons):
 Mulliken charges:
               1
     1  C   -0.301143
     2  C   -0.313716
     3  C   -0.289755
     4  C   -0.254602
     5  C    0.079771
     6  O   -0.489550
     7  H    0.123680
     8  H    0.111464
     9  H    0.122939
    10  H    0.108517
    11  H    0.157146
    12  H    0.114574
    13  H    0.109885
    14  H    0.117207
    15  H    0.113919
    16  H    0.093282
    17  H    0.106186
    18  H    0.334185
    19  C   -0.290662
    20  C   -0.329470
    21  C   -0.244566
    22  C   -0.248405
    23  C    0.091633
    24  O   -0.518236
    25  H    0.106736
    26  H    0.105018
    27  H    0.134072
    28  H    0.102518
    29  H    0.115459
    30  H    0.104551
    31  H    0.108709
    32  H    0.106685
    33  H    0.109271
    34  H    0.074976
    35  H    0.086690
    36  H    0.341031
 Sum of Mulliken charges =   0.00000
 Mulliken charges with hydrogens summed into heavy atoms:
               1
     1  C    0.056941
     2  C   -0.313716
     3  C    0.090482
     4  C    0.086409
     5  C    0.279239
     6  O   -0.155365
    19  C    0.055164
    20  C   -0.329470
    21  C    0.077962
    22  C    0.076260
    23  C    0.253300
    24  O   -0.177204
 Electronic spatial extent (au):  <R**2>=           3517.9833
 Charge=              0.0000 electrons
 Dipole moment (field-independent basis, Debye):
    X=             -1.8562    Y=             -0.4699    Z=              1.1730  Tot=              2.2454
   1 Symmetry operations used in ECPInt.
 ECPInt:  NShTT=    7260 NPrTT=   29148 LenC2=    7022 LenP2D=   20451.
 LDataN:  DoStor=T MaxTD1= 5 Len=  102
 Calling FoFJK, ICntrl=      2127 FMM=F ISym2X=0 I1Cent= 0 IOpClX= 0 NMat=1 NMatS=1 NMatT=0.

 GradGradGradGradGradGradGradGradGradGradGradGradGradGradGradGradGradGrad
 FormGI is forming the generalized inverse of G from B-inverse, IUseBI=4.
 Internal  Forces:  Max     0.011607051 RMS     0.003891041
 Step number   1 out of a maximum of  194
 All quantities printed in internal units (Hartrees-Bohrs-Radians)
 Mixed Optimization -- RFO/linear search
 Second derivative matrix not updated -- first step.
 ITU=  0
     Eigenvalues ---    0.00230   0.00230   0.00230   0.00339   0.00351
     Eigenvalues ---    0.00361   0.00369   0.00377   0.00380   0.01399
     Eigenvalues ---    0.01549   0.01661   0.03215   0.04134   0.04574
     Eigenvalues ---    0.04634   0.04685   0.04822   0.04824   0.04893
     Eigenvalues ---    0.04948   0.04985   0.05435   0.05476   0.05507
     Eigenvalues ---    0.05568   0.05574   0.05584   0.05621   0.05629
     Eigenvalues ---    0.05633   0.05638   0.05664   0.05676   0.05677
     Eigenvalues ---    0.05762   0.09991   0.11949   0.13136   0.13958
     Eigenvalues ---    0.14136   0.14274   0.14342   0.14512   0.14574
     Eigenvalues ---    0.16000   0.16000   0.16000   0.16000   0.16000
     Eigenvalues ---    0.16000   0.16000   0.16000   0.16000   0.16000
     Eigenvalues ---    0.16000   0.16000   0.16000   0.16000   0.16000
     Eigenvalues ---    0.16000   0.16000   0.16000   0.16000   0.16000
     Eigenvalues ---    0.22040   0.22098   0.25000   0.28313   0.28416
     Eigenvalues ---    0.29218   0.29297   0.29370   0.29421   0.29478
     Eigenvalues ---    0.29497   0.33484   0.33711   0.34348   0.34494
     Eigenvalues ---    0.34871   0.34974   0.34987   0.35030   0.35031
     Eigenvalues ---    0.35035   0.35051   0.35067   0.35069   0.35077
     Eigenvalues ---    0.35080   0.35082   0.35098   0.35134   0.35139
     Eigenvalues ---    0.35142   0.35142   0.35190   0.43872   0.45233
     Eigenvalues ---    0.52978   0.54604
 Linear search not attempted -- first point.
 Iteration  1 RMS(Cart)=  0.15970374 RMS(Int)=  0.00478912
 Iteration  2 RMS(Cart)=  0.03745253 RMS(Int)=  0.00022263
 Iteration  3 RMS(Cart)=  0.00045834 RMS(Int)=  0.00002873
 Iteration  4 RMS(Cart)=  0.00000006 RMS(Int)=  0.00002873
 Variable       Old X    -DE/DX   Delta X   Delta X   Delta X     New X
                                 (Linear)    (Quad)   (Total)
    R1        2.89551   0.00399   0.00000   0.01323   0.01323   2.90874
    R2        2.05457   0.01096   0.00000   0.03040   0.03040   2.08497
    R3        2.05884   0.01139   0.00000   0.03182   0.03182   2.09066
    R4        2.05717   0.01108   0.00000   0.03086   0.03086   2.08803
    R5        2.89017   0.00494   0.00000   0.01624   0.01624   2.90641
    R6        2.89237   0.00357   0.00000   0.01177   0.01177   2.90414
    R7        2.91238  -0.00057   0.00000  -0.00194  -0.00194   2.91044
    R8        2.05516   0.01154   0.00000   0.03205   0.03205   2.08721
    R9        2.05445   0.01075   0.00000   0.02980   0.02980   2.08425
   R10        2.05619   0.01125   0.00000   0.03129   0.03129   2.08748
   R11        2.05627   0.01152   0.00000   0.03203   0.03203   2.08830
   R12        2.05450   0.01116   0.00000   0.03095   0.03095   2.08545
   R13        2.05546   0.01161   0.00000   0.03224   0.03224   2.08770
   R14        2.66608   0.00336   0.00000   0.00751   0.00751   2.67359
   R15        2.07820   0.00619   0.00000   0.01787   0.01787   2.09607
   R16        2.06504   0.00661   0.00000   0.01867   0.01867   2.08371
   R17        1.82186   0.00347   0.00000   0.00626   0.00626   1.82811
   R18        3.63671  -0.00143   0.00000  -0.02453  -0.02453   3.61217
   R19        2.89388   0.00428   0.00000   0.01416   0.01416   2.90803
   R20        2.05592   0.01125   0.00000   0.03128   0.03128   2.08720
   R21        2.05696   0.01120   0.00000   0.03119   0.03119   2.08815
   R22        2.05446   0.01093   0.00000   0.03030   0.03030   2.08476
   R23        2.88978   0.00398   0.00000   0.01308   0.01308   2.90286
   R24        2.89132   0.00356   0.00000   0.01174   0.01174   2.90307
   R25        2.91459   0.00074   0.00000   0.00254   0.00254   2.91714
   R26        2.05565   0.01147   0.00000   0.03188   0.03188   2.08753
   R27        2.05368   0.01079   0.00000   0.02989   0.02989   2.08357
   R28        2.05542   0.01145   0.00000   0.03181   0.03181   2.08723
   R29        2.05562   0.01147   0.00000   0.03186   0.03186   2.08748
   R30        2.05625   0.01158   0.00000   0.03221   0.03221   2.08846
   R31        2.05550   0.01119   0.00000   0.03109   0.03109   2.08659
   R32        2.65006   0.00236   0.00000   0.00512   0.00512   2.65519
   R33        2.08211   0.00657   0.00000   0.01911   0.01911   2.10121
   R34        2.06747   0.00678   0.00000   0.01922   0.01922   2.08669
   R35        1.83675   0.00164   0.00000   0.00304   0.00304   1.83979
    A1        1.91750   0.00157   0.00000   0.00834   0.00831   1.92582
    A2        1.93657   0.00141   0.00000   0.00922   0.00917   1.94574
    A3        1.93710   0.00160   0.00000   0.00951   0.00946   1.94656
    A4        1.88649  -0.00153   0.00000  -0.00914  -0.00917   1.87731
    A5        1.87725  -0.00184   0.00000  -0.01260  -0.01262   1.86463
    A6        1.90728  -0.00140   0.00000  -0.00655  -0.00661   1.90067
    A7        1.91244   0.00016   0.00000   0.00480   0.00479   1.91723
    A8        1.91134   0.00019   0.00000   0.00249   0.00245   1.91380
    A9        1.92022  -0.00010   0.00000  -0.00267  -0.00267   1.91755
   A10        1.91488   0.00028   0.00000   0.00389   0.00387   1.91874
   A11        1.92352  -0.00002   0.00000  -0.00140  -0.00138   1.92213
   A12        1.88119  -0.00053   0.00000  -0.00724  -0.00724   1.87395
   A13        1.92193   0.00078   0.00000   0.00551   0.00546   1.92739
   A14        1.93669   0.00255   0.00000   0.01585   0.01579   1.95248
   A15        1.92616   0.00107   0.00000   0.00469   0.00467   1.93083
   A16        1.89132  -0.00129   0.00000  -0.00443  -0.00452   1.88680
   A17        1.88951  -0.00116   0.00000  -0.00840  -0.00841   1.88111
   A18        1.89715  -0.00212   0.00000  -0.01419  -0.01422   1.88293
   A19        1.93484   0.00171   0.00000   0.01108   0.01104   1.94588
   A20        1.92346   0.00071   0.00000   0.00324   0.00323   1.92669
   A21        1.93065   0.00128   0.00000   0.00756   0.00753   1.93818
   A22        1.89139  -0.00125   0.00000  -0.00739  -0.00741   1.88398
   A23        1.89118  -0.00132   0.00000  -0.00600  -0.00607   1.88511
   A24        1.89113  -0.00127   0.00000  -0.00939  -0.00939   1.88174
   A25        2.00204  -0.00038   0.00000  -0.00007  -0.00008   2.00196
   A26        1.90545   0.00108   0.00000   0.00917   0.00916   1.91461
   A27        1.91567  -0.00060   0.00000  -0.00658  -0.00657   1.90910
   A28        1.91023  -0.00017   0.00000   0.00192   0.00189   1.91212
   A29        1.84028   0.00064   0.00000   0.00277   0.00277   1.84304
   A30        1.88637  -0.00063   0.00000  -0.00822  -0.00820   1.87817
   A31        1.88568   0.00359   0.00000   0.02955   0.02960   1.91529
   A32        2.19852  -0.00295   0.00000  -0.01403  -0.01399   2.18452
   A33        1.71984  -0.00065   0.00000   0.00129   0.00135   1.72120
   A34        1.92250   0.00099   0.00000   0.00590   0.00587   1.92837
   A35        1.92767   0.00118   0.00000   0.00661   0.00659   1.93426
   A36        1.94465   0.00192   0.00000   0.01161   0.01157   1.95622
   A37        1.88966  -0.00119   0.00000  -0.00760  -0.00761   1.88204
   A38        1.88763  -0.00143   0.00000  -0.00779  -0.00783   1.87980
   A39        1.89027  -0.00164   0.00000  -0.00980  -0.00984   1.88043
   A40        1.91781  -0.00045   0.00000   0.00031   0.00030   1.91811
   A41        1.90689  -0.00007   0.00000  -0.00157  -0.00156   1.90534
   A42        1.91967   0.00078   0.00000   0.00582   0.00580   1.92547
   A43        1.91639   0.00064   0.00000   0.00344   0.00344   1.91983
   A44        1.91106   0.00012   0.00000   0.00180   0.00179   1.91285
   A45        1.89183  -0.00102   0.00000  -0.00991  -0.00990   1.88193
   A46        1.92859   0.00057   0.00000   0.00320   0.00319   1.93177
   A47        1.92487   0.00143   0.00000   0.00893   0.00889   1.93376
   A48        1.92698   0.00157   0.00000   0.00898   0.00895   1.93593
   A49        1.89835  -0.00097   0.00000  -0.00520  -0.00522   1.89313
   A50        1.89603  -0.00123   0.00000  -0.00813  -0.00814   1.88789
   A51        1.88813  -0.00149   0.00000  -0.00845  -0.00850   1.87963
   A52        1.93285   0.00113   0.00000   0.00706   0.00703   1.93988
   A53        1.93101   0.00156   0.00000   0.00952   0.00949   1.94050
   A54        1.92476   0.00108   0.00000   0.00571   0.00569   1.93044
   A55        1.89060  -0.00123   0.00000  -0.00593  -0.00598   1.88462
   A56        1.89172  -0.00123   0.00000  -0.00786  -0.00788   1.88384
   A57        1.89174  -0.00146   0.00000  -0.00938  -0.00940   1.88233
   A58        2.00089   0.00106   0.00000   0.00824   0.00821   2.00911
   A59        1.90037  -0.00063   0.00000  -0.00320  -0.00336   1.89701
   A60        1.91067  -0.00148   0.00000  -0.01377  -0.01383   1.89684
   A61        1.92386   0.00087   0.00000   0.01476   0.01471   1.93857
   A62        1.83931   0.00068   0.00000   0.00689   0.00694   1.84625
   A63        1.88497  -0.00059   0.00000  -0.01446  -0.01461   1.87036
   A64        1.89875   0.00795   0.00000   0.04697   0.04697   1.94572
   A65        2.78111  -0.00137   0.00000  -0.00530  -0.00530   2.77581
    D1       -1.17995   0.00008   0.00000   0.01210   0.01210  -1.16785
    D2        0.92120   0.00065   0.00000   0.02139   0.02140   0.94260
    D3        2.98583   0.00007   0.00000   0.01245   0.01245   2.99828
    D4        3.01819   0.00009   0.00000   0.01227   0.01227   3.03046
    D5       -1.16384   0.00066   0.00000   0.02156   0.02157  -1.14228
    D6        0.90078   0.00007   0.00000   0.01262   0.01262   0.91340
    D7        0.89396  -0.00020   0.00000   0.00773   0.00772   0.90167
    D8        2.99511   0.00037   0.00000   0.01702   0.01701   3.01213
    D9       -1.22345  -0.00022   0.00000   0.00808   0.00807  -1.21538
   D10        0.99933   0.00039   0.00000   0.00237   0.00240   1.00173
   D11       -1.09469  -0.00015   0.00000  -0.00591  -0.00592  -1.10061
   D12        3.08439   0.00012   0.00000  -0.00160  -0.00161   3.08279
   D13       -1.09967  -0.00013   0.00000  -0.00609  -0.00607  -1.10574
   D14        3.08950  -0.00067   0.00000  -0.01437  -0.01439   3.07511
   D15        0.98539  -0.00039   0.00000  -0.01006  -0.01007   0.97532
   D16        3.11475   0.00036   0.00000   0.00126   0.00128   3.11603
   D17        1.02073  -0.00018   0.00000  -0.00702  -0.00704   1.01369
   D18       -1.08337   0.00009   0.00000  -0.00271  -0.00272  -1.08609
   D19        0.98804  -0.00037   0.00000  -0.00653  -0.00654   0.98150
   D20       -1.10587  -0.00037   0.00000  -0.00656  -0.00657  -1.11244
   D21        3.08641  -0.00006   0.00000  -0.00179  -0.00177   3.08464
   D22        3.08771   0.00013   0.00000   0.00333   0.00333   3.09104
   D23        0.99380   0.00013   0.00000   0.00330   0.00330   0.99710
   D24       -1.09710   0.00044   0.00000   0.00807   0.00809  -1.08901
   D25       -1.10071  -0.00005   0.00000  -0.00045  -0.00046  -1.10117
   D26        3.08856  -0.00006   0.00000  -0.00048  -0.00049   3.08807
   D27        0.99766   0.00026   0.00000   0.00429   0.00431   1.00197
   D28        0.94725   0.00004   0.00000  -0.00456  -0.00456   0.94269
   D29       -1.20356  -0.00031   0.00000  -0.01417  -0.01419  -1.21775
   D30        3.01493   0.00017   0.00000  -0.00578  -0.00578   3.00915
   D31       -1.16352  -0.00009   0.00000  -0.00791  -0.00790  -1.17142
   D32        2.96885  -0.00043   0.00000  -0.01752  -0.01752   2.95133
   D33        0.90415   0.00005   0.00000  -0.00913  -0.00912   0.89504
   D34        3.03037  -0.00010   0.00000  -0.00742  -0.00741   3.02295
   D35        0.87956  -0.00044   0.00000  -0.01703  -0.01704   0.86252
   D36       -1.18514   0.00004   0.00000  -0.00864  -0.00863  -1.19377
   D37       -1.01382  -0.00148   0.00000  -0.04687  -0.04686  -1.06068
   D38        1.00070  -0.00104   0.00000  -0.02662  -0.02663   0.97407
   D39        1.13442  -0.00047   0.00000  -0.03335  -0.03334   1.10108
   D40       -3.13423  -0.00003   0.00000  -0.01311  -0.01312   3.13583
   D41       -3.12349  -0.00094   0.00000  -0.04053  -0.04052   3.11917
   D42       -1.10897  -0.00051   0.00000  -0.02029  -0.02030  -1.12926
   D43       -1.17838  -0.00246   0.00000  -0.11836  -0.11835  -1.29673
   D44        0.91129   0.00012   0.00000  -0.08499  -0.08500   0.82629
   D45       -1.03437  -0.00012   0.00000  -0.00131  -0.00131  -1.03568
   D46        1.06920   0.00035   0.00000   0.00214   0.00213   1.07133
   D47       -3.13940  -0.00048   0.00000  -0.00743  -0.00744   3.13635
   D48       -3.12092  -0.00003   0.00000   0.00018   0.00019  -3.12073
   D49       -1.01736   0.00045   0.00000   0.00362   0.00363  -1.01373
   D50        1.05724  -0.00038   0.00000  -0.00595  -0.00595   1.05129
   D51        1.06056  -0.00001   0.00000   0.00040   0.00040   1.06096
   D52       -3.11906   0.00046   0.00000   0.00384   0.00384  -3.11522
   D53       -1.04447  -0.00037   0.00000  -0.00573  -0.00573  -1.05020
   D54        1.01624  -0.00004   0.00000   0.00786   0.00787   1.02411
   D55       -1.08325  -0.00013   0.00000   0.00649   0.00650  -1.07675
   D56        3.11420  -0.00018   0.00000   0.00560   0.00560   3.11980
   D57       -1.08157  -0.00008   0.00000   0.00744   0.00744  -1.07414
   D58        3.10212  -0.00017   0.00000   0.00607   0.00607   3.10819
   D59        1.01639  -0.00022   0.00000   0.00518   0.00517   1.02156
   D60        3.12646   0.00072   0.00000   0.01638   0.01638  -3.14034
   D61        1.02697   0.00063   0.00000   0.01501   0.01502   1.04199
   D62       -1.05876   0.00057   0.00000   0.01413   0.01411  -1.04465
   D63       -3.12142   0.00029   0.00000   0.00244   0.00246  -3.11896
   D64        1.06519   0.00006   0.00000  -0.00100  -0.00099   1.06419
   D65       -1.02753   0.00018   0.00000   0.00089   0.00090  -1.02664
   D66       -1.01699   0.00009   0.00000   0.00398   0.00399  -1.01301
   D67       -3.11357  -0.00013   0.00000   0.00053   0.00053  -3.11304
   D68        1.07689  -0.00001   0.00000   0.00242   0.00242   1.07932
   D69        1.06995  -0.00001   0.00000   0.00220   0.00220   1.07215
   D70       -1.02663  -0.00023   0.00000  -0.00124  -0.00126  -1.02788
   D71       -3.11935  -0.00011   0.00000   0.00065   0.00064  -3.11871
   D72        1.20237   0.00044   0.00000   0.01332   0.01334   1.21571
   D73       -0.96157  -0.00098   0.00000  -0.00955  -0.00949  -0.97106
   D74       -3.01868   0.00094   0.00000   0.01766   0.01761  -3.00107
   D75       -0.90672   0.00043   0.00000   0.00812   0.00814  -0.89859
   D76       -3.07066  -0.00100   0.00000  -0.01474  -0.01470  -3.08536
   D77        1.15541   0.00093   0.00000   0.01247   0.01241   1.16782
   D78       -2.99701   0.00019   0.00000   0.00883   0.00884  -2.98817
   D79        1.12224  -0.00123   0.00000  -0.01403  -0.01399   1.10825
   D80       -0.93488   0.00069   0.00000   0.01318   0.01311  -0.92176
   D81       -0.93386  -0.00106   0.00000  -0.02989  -0.02994  -0.96380
   D82        1.21754  -0.00041   0.00000  -0.01636  -0.01630   1.20124
   D83       -3.03592  -0.00030   0.00000  -0.02234  -0.02236  -3.05828
   D84       -3.06646  -0.00220   0.00000  -0.09488  -0.09488   3.12185
         Item               Value     Threshold  Converged?
 Maximum Force            0.011607     0.000015     NO 
 RMS     Force            0.003891     0.000010     NO 
 Maximum Displacement     0.568535     0.000060     NO 
 RMS     Displacement     0.194252     0.000040     NO 
 GradGradGradGradGradGradGradGradGradGradGradGradGradGradGradGradGradGrad

                    Distance matrix (angstroms):
                    1          2          3          4          5
     1  C    0.000000
     2  C    1.539238   0.000000
     3  C    2.518405   1.538006   0.000000
     4  C    2.514384   1.536805   2.517750   0.000000
     5  C    2.520435   1.540136   2.523470   2.479309   0.000000
     6  O    2.933847   2.488973   3.061597   3.775765   1.414802
     7  H    1.103319   2.183401   2.822628   2.712333   3.481129
     8  H    1.106331   2.200110   3.492410   2.823819   2.724993
     9  H    1.104936   2.199644   2.718530   3.487224   2.865329
    10  H    2.745247   2.184349   1.104503   2.794252   3.489264
    11  H    2.812329   2.201282   1.102940   3.492963   2.778202
    12  H    3.486380   2.186964   1.104645   2.736560   2.793684
    13  H    2.747735   2.197119   3.492681   1.105081   2.759859
    14  H    2.791594   2.182086   2.742010   1.103575   3.454986
    15  H    3.486742   2.191319   2.795326   1.104763   2.705417
    16  H    2.842599   2.180370   3.479550   2.622830   1.109195
    17  H    3.473281   2.171431   2.686893   2.775342   1.102652
    18  H    2.584916   2.689179   3.420441   4.022145   1.965188
    19  C    6.116123   5.181349   4.720456   6.248273   4.263196
    20  C    6.192962   5.386498   4.542663   6.566623   4.861002
    21  C    5.877616   4.902421   3.759692   5.895308   4.731699
    22  C    7.706632   6.915438   6.003808   8.063704   6.370046
    23  C    5.645054   5.215709   4.456877   6.607682   4.816069
    24  O    4.280284   4.019389   3.384001   5.489350   3.802307
    25  H    6.797253   5.682886   5.195506   6.543592   4.756146
    26  H    6.666576   5.886207   5.583767   7.017493   4.820150
    27  H    5.155718   4.196184   3.951480   5.254526   3.177296
    28  H    6.571969   5.416452   4.321531   6.192034   5.173981
    29  H    4.846392   3.825591   2.666371   4.813449   3.797629
    30  H    6.285340   5.457644   4.135995   6.467636   5.523256
    31  H    8.044155   7.341104   6.268709   8.513271   6.996215
    32  H    8.152837   7.468044   6.707721   8.688259   6.773585
    33  H    8.291592   7.335713   6.421112   8.335853   6.742812
    34  H    6.185165   5.866879   5.323888   7.293400   5.257964
    35  H    6.180560   5.852601   4.902814   7.239627   5.679055
    36  H    3.832108   3.453054   3.125680   4.909793   2.961486
                    6          7          8          9         10
     6  O    0.000000
     7  H    3.994262   0.000000
     8  H    3.152803   1.782669   0.000000
     9  H    2.732429   1.773233   1.799111   0.000000
    10  H    4.051866   2.598440   3.794816   2.994515   0.000000
    11  H    2.767820   3.256071   3.798405   2.559647   1.787055
    12  H    3.474068   3.807536   4.353037   3.765013   1.784735
    13  H    4.050417   3.001664   2.604725   3.802430   3.793954
    14  H    4.638360   2.532940   3.239770   3.767316   2.561398
    15  H    4.073841   3.755364   3.816991   4.354538   3.198999
    16  H    2.069436   3.790098   2.605253   3.363725   4.331581
    17  H    2.014069   4.323932   3.775565   3.814208   3.724225
    18  H    0.967395   3.660280   2.651487   2.205004   4.256732
    19  C    3.602529   6.977946   6.633886   5.780975   5.704232
    20  C    4.163396   6.901530   6.905489   5.711084   5.337806
    21  C    4.434899   6.408463   6.731247   5.562517   4.399863
    22  C    5.630043   8.389856   8.423332   7.173960   6.723766
    23  C    3.831158   6.341133   6.349033   4.932799   5.163988
    24  O    2.842061   4.970316   5.006274   3.532009   4.075905
    25  H    4.359031   7.626911   7.309971   6.595067   6.165670
    26  H    3.935964   7.599076   7.072188   6.240998   6.585285
    27  H    2.588464   6.062335   5.610973   4.915578   5.005847
    28  H    5.067324   7.094883   7.389817   6.394719   4.960762
    29  H    3.679590   5.358442   5.718464   4.628259   3.365272
    30  H    5.200746   6.677066   7.229395   5.888905   4.539233
    31  H    6.266823   8.620511   8.847892   7.451217   6.839609
    32  H    5.862668   8.912137   8.778636   7.546222   7.484404
    33  H    6.166785   8.972901   8.998806   7.874277   7.157485
    34  H    4.079651   6.972684   6.749313   5.411665   6.090662
    35  H    4.757505   6.736498   6.976603   5.403185   5.419158
    36  H    1.911480   4.674491   4.433251   3.213445   4.000997
                   11         12         13         14         15
    11  H    0.000000
    12  H    1.784660   0.000000
    13  H    4.363075   3.776376   0.000000
    14  H    3.781792   3.034061   1.786210   0.000000
    15  H    3.793169   2.556120   1.787904   1.784492   0.000000
    16  H    3.834026   3.746206   2.437045   3.674283   2.895153
    17  H    2.994557   2.499451   3.210448   3.761133   2.544869
    18  H    3.081609   4.064795   4.165680   4.794357   4.541706
    19  C    4.135406   4.392893   6.858485   7.018678   5.978431
    20  C    3.758137   4.295071   7.333229   7.145073   6.394452
    21  C    3.170118   3.304406   6.809003   6.313743   5.634773
    22  C    5.210001   5.687921   8.845606   8.617574   7.829322
    23  C    3.446279   4.587381   7.314803   7.130646   6.693400
    24  O    2.327895   3.784608   6.160574   5.975546   5.744185
    25  H    4.781085   4.647318   7.168946   7.320332   6.091421
    26  H    4.926549   5.373667   7.520586   7.844101   6.814913
    27  H    3.482293   3.702141   5.803313   6.084426   5.036495
    28  H    3.958683   3.612523   7.109278   6.628687   5.738444
    29  H    2.171956   2.239130   5.742871   5.222362   4.613438
    30  H    3.478019   3.794800   7.441557   6.729531   6.287540
    31  H    5.424420   6.007271   9.362973   8.950334   8.332411
    32  H    5.855768   6.485286   9.385587   9.312625   8.505318
    33  H    5.767854   5.925911   9.128956   8.907672   7.958245
    34  H    4.324114   5.500158   7.888736   7.903151   7.407370
    35  H    3.852887   5.068600   8.017481   7.629349   7.362443
    36  H    2.240403   3.497927   5.487970   5.538381   5.140031
                   16         17         18         19         20
    16  H    0.000000
    17  H    1.785005   0.000000
    18  H    2.350300   2.836216   0.000000
    19  C    5.066517   3.714025   4.392698   0.000000
    20  C    5.836741   4.449758   4.814825   1.538864   0.000000
    21  C    5.790630   4.221568   5.135065   2.517338   1.536128
    22  C    7.315089   5.900059   6.252277   2.506100   1.536238
    23  C    5.782662   4.755671   4.199391   2.530024   1.543683
    24  O    4.776729   3.991420   3.062594   3.094684   2.489626
    25  H    5.500136   3.989057   5.233366   1.104496   2.185818
    26  H    5.496590   4.396498   4.609175   1.104999   2.190474
    27  H    3.963410   2.664806   3.450675   1.103207   2.204920
    28  H    6.169524   4.458814   5.869086   2.758596   2.186015
    29  H    4.881401   3.358878   4.370386   2.784055   2.185878
    30  H    6.616755   5.125969   5.784954   3.488088   2.188906
    31  H    8.002539   6.594135   6.812510   3.481697   2.191962
    32  H    7.640867   6.376175   6.414162   2.771076   2.192801
    33  H    7.654516   6.110988   6.892644   2.744258   2.184769
    34  H    6.103514   5.253815   4.357430   2.720759   2.172423
    35  H    6.687427   5.650708   5.035518   3.475581   2.166617
    36  H    3.890411   3.171692   2.267982   2.766463   2.677783
                   21         22         23         24         25
    21  C    0.000000
    22  C    2.516707   0.000000
    23  C    2.516626   2.488969   0.000000
    24  O    2.910364   3.774744   1.405064   0.000000
    25  H    2.761663   2.764429   3.495804   4.089506   0.000000
    26  H    3.487236   2.742662   2.787077   3.491221   1.785626
    27  H    2.796969   3.486870   2.804843   2.833762   1.782721
    28  H    1.104673   2.782257   3.487449   3.947887   2.541685
    29  H    1.102580   3.483942   2.764907   2.592547   3.136846
    30  H    1.104514   2.761309   2.768837   3.207965   3.774828
    31  H    2.760949   1.104646   2.751029   4.023607   3.775825
    32  H    3.489353   1.105166   2.730567   4.093893   3.142743
    33  H    2.783371   1.104177   3.465883   4.639522   2.540913
    34  H    3.475732   2.737124   1.111914   2.081823   3.741123
    35  H    2.796758   2.643784   1.104231   2.009357   4.322686
    36  H    3.134370   4.101575   1.980891   0.973573   3.754729
                   26         27         28         29         30
    26  H    0.000000
    27  H    1.783532   0.000000
    28  H    3.773374   3.132721   0.000000
    29  H    3.802793   2.610283   1.790995   0.000000
    30  H    4.347171   3.819564   1.789175   1.782119   0.000000
    31  H    3.772290   4.358316   3.126081   3.772003   2.544509
    32  H    2.545858   3.785693   3.804660   4.346231   3.776413
    33  H    3.071388   3.775214   2.592401   3.801996   3.132421
    34  H    2.512989   3.082407   4.329068   3.764783   3.796415
    35  H    3.751278   3.839497   3.796363   3.185369   2.595920
    36  H    3.156265   2.207288   4.031508   2.643557   3.704175
                   31         32         33         34         35
    31  H    0.000000
    32  H    1.787560   0.000000
    33  H    1.786253   1.785691   0.000000
    34  H    3.134490   2.510959   3.741661   0.000000
    35  H    2.436961   2.960128   3.682191   1.783352   0.000000
    36  H    4.566501   4.373988   4.841491   2.426878   2.849567
                   36
    36  H    0.000000
 Framework group  C1[X(C10H24O2)]
 Deg. of freedom   102
                         Standard orientation:                         
 ---------------------------------------------------------------------
 Center     Atomic      Atomic             Coordinates (Angstroms)
 Number     Number       Type             X           Y           Z
 ---------------------------------------------------------------------
      1          6           0       -3.306974   -0.835374   -0.922265
      2          6           0       -2.674235    0.269009   -0.056684
      3          6           0       -1.647905    1.058972   -0.886182
      4          6           0       -3.771101    1.214370    0.458047
      5          6           0       -1.992006   -0.356972    1.174060
      6          8           0       -1.052536   -1.372215    0.876837
      7          1           0       -3.920781   -0.390107   -1.723695
      8          1           0       -3.965530   -1.492235   -0.323260
      9          1           0       -2.536695   -1.454962   -1.415890
     10          1           0       -2.126460    1.488358   -1.784257
     11          1           0       -0.809097    0.423094   -1.215633
     12          1           0       -1.229432    1.893312   -0.295421
     13          1           0       -4.551029    0.664279    1.015108
     14          1           0       -4.257961    1.733715   -0.385236
     15          1           0       -3.349201    1.982980    1.130163
     16          1           0       -2.761913   -0.754706    1.866421
     17          1           0       -1.427158    0.420699    1.714447
     18          1           0       -1.492824   -2.100045    0.416115
     19          6           0        2.247875   -0.080930    1.523430
     20          6           0        2.710146    0.225889    0.088066
     21          6           0        2.052214    1.522628   -0.407194
     22          6           0        4.239240    0.372892    0.071175
     23          6           0        2.336766   -0.937328   -0.855583
     24          8           0        0.962117   -1.083581   -1.106891
     25          1           0        2.518480    0.747383    2.202092
     26          1           0        2.729062   -1.000380    1.903027
     27          1           0        1.155610   -0.222732    1.586009
     28          1           0        2.309097    2.368264    0.255539
     29          1           0        0.954740    1.419774   -0.432754
     30          1           0        2.390021    1.770949   -1.429043
     31          1           0        4.604954    0.617014   -0.942187
     32          1           0        4.733756   -0.560307    0.396730
     33          1           0        4.559498    1.180969    0.752095
     34          1           0        2.771554   -1.877562   -0.451513
     35          1           0        2.804634   -0.758531   -1.839684
     36          1           0        0.455912   -1.171793   -0.279956
 ---------------------------------------------------------------------
 Rotational constants (GHZ):           1.5705132           0.3762675           0.3686923
   216 basis functions,   396 primitive gaussians,   228 cartesian basis functions
    50 alpha electrons       50 beta electrons
       nuclear repulsion energy       802.9180971350 Hartrees.
 NAtoms=   36 NActive=   36 NUniq=   36 SFac= 1.00D+00 NAtFMM=   60 NAOKFM=F Big=F
 Nuclear repulsion after empirical dispersion term =      802.8884607575 Hartrees.
   1 Symmetry operations used in ECPInt.
 ECPInt:  NShTT=    7260 NPrTT=   29148 LenC2=    7042 LenP2D=   20574.
 LDataN:  DoStor=T MaxTD1= 4 Len=   56
 Initial guess from the checkpoint file:  "/scratch/user/peterchao1/peterchao1/6113314_1660079070000000889864153/Gau-158894.chk"
 B after Tr=    -0.000000    0.000000    0.000000
         Rot=    0.999018    0.043985    0.004777    0.002201 Ang=   5.08 deg.
 ExpMin= 1.22D-01 ExpMax= 2.27D+03 ExpMxC= 3.41D+02 IAcc=3 IRadAn=         5 AccDes= 0.00D+00
 Harris functional with IExCor= 4639 and IRadAn=       5 diagonalized for initial guess.
 HarFok:  IExCor= 4639 AccDes= 0.00D+00 IRadAn=         5 IDoV= 1 UseB2=F ITyADJ=14
 ICtDFT=  3500011 ScaDFX=  1.000000  1.000000  1.000000  1.000000
 FoFCou: FMM=F IPFlag=           0 FMFlag=      100000 FMFlg1=           0
         NFxFlg=           0 DoJE=T BraDBF=F KetDBF=T FulRan=T
         wScrn=  0.000000 ICntrl=       500 IOpCl=  0 I1Cent=   200000004 NGrid=           0
         NMat0=    1 NMatS0=      1 NMatT0=    0 NMatD0=    1 NMtDS0=    0 NMtDT0=    0
 Petite list used in FoFCou.
     Accept linear search using points  1 and  2.
     Minimum is close to point  2 DX= -7.25D-02 DF= -1.28D-05 DXR=  7.05D-02 DFR=  5.83D-03 which will be used.
     Accept linear search using points  1 and  2.
     Accept linear search using points  1 and  2.
 Restarting incremental Fock formation.
     Accept linear search using points  1 and  2.
     Accept linear search using points  1 and  2.
     Minimum is close to point  2 DX= -1.44D-05 DF=  0.00D+00 DXR=  1.44D-05 DFR=  0.00D+00 which will be used.
 SCF Done:  E(RwB97XD) =  -545.363370861     a.u. after   11 cycles
            Convg  =    0.1301D-08                    42 Fock formations.
              S**2 =  0.0000                  -V/T =  2.0106
   1 Symmetry operations used in ECPInt.
 ECPInt:  NShTT=    7260 NPrTT=   29148 LenC2=    7042 LenP2D=   20574.
 LDataN:  DoStor=T MaxTD1= 5 Len=  102
 Calling FoFJK, ICntrl=      2127 FMM=F ISym2X=0 I1Cent= 0 IOpClX= 0 NMat=1 NMatS=1 NMatT=0.

 GradGradGradGradGradGradGradGradGradGradGradGradGradGradGradGradGradGrad
 Using GEDIIS/GDIIS optimizer.
 FormGI is forming the generalized inverse of G from B-inverse, IUseBI=4.
 Internal  Forces:  Max     0.011429981 RMS     0.001764366
 Step number   2 out of a maximum of  194
 All quantities printed in internal units (Hartrees-Bohrs-Radians)
 Mixed Optimization -- RFO/linear search
 Trust test= 7.41D-01 RLast= 2.69D-01 DXMaxT set to 5.05D-01
 ITU=  1  0
 Use linear search instead of GDIIS.
     Eigenvalues ---    0.00229   0.00230   0.00270   0.00340   0.00351
     Eigenvalues ---    0.00361   0.00369   0.00377   0.00379   0.01473
     Eigenvalues ---    0.01636   0.01878   0.03109   0.04134   0.04533
     Eigenvalues ---    0.04597   0.04625   0.04804   0.04832   0.04927
     Eigenvalues ---    0.05008   0.05043   0.05371   0.05405   0.05414
     Eigenvalues ---    0.05460   0.05468   0.05495   0.05563   0.05563
     Eigenvalues ---    0.05569   0.05574   0.05584   0.05594   0.05614
     Eigenvalues ---    0.05781   0.09994   0.11971   0.13156   0.13894
     Eigenvalues ---    0.14099   0.14182   0.14283   0.14495   0.14583
     Eigenvalues ---    0.15121   0.16000   0.16000   0.16000   0.16000
     Eigenvalues ---    0.16000   0.16000   0.16000   0.16000   0.16000
     Eigenvalues ---    0.16000   0.16000   0.16000   0.16000   0.16000
     Eigenvalues ---    0.16000   0.16000   0.16000   0.16000   0.17339
     Eigenvalues ---    0.20913   0.22047   0.24922   0.28295   0.28377
     Eigenvalues ---    0.29224   0.29287   0.29320   0.29388   0.29478
     Eigenvalues ---    0.29521   0.33473   0.33724   0.33952   0.34363
     Eigenvalues ---    0.34508   0.34883   0.34978   0.34994   0.35030
     Eigenvalues ---    0.35033   0.35043   0.35056   0.35069   0.35073
     Eigenvalues ---    0.35078   0.35081   0.35095   0.35122   0.35136
     Eigenvalues ---    0.35140   0.35146   0.36833   0.43847   0.45396
     Eigenvalues ---    0.52987   0.54604
 Quartic linear search produced a step of -0.19617.
 Iteration  1 RMS(Cart)=  0.28199942 RMS(Int)=  0.02460349
 Iteration  2 RMS(Cart)=  0.24962508 RMS(Int)=  0.01199838
 Iteration  3 RMS(Cart)=  0.05649508 RMS(Int)=  0.00060512
 Iteration  4 RMS(Cart)=  0.00184641 RMS(Int)=  0.00015696
 Iteration  5 RMS(Cart)=  0.00000059 RMS(Int)=  0.00015696
 Variable       Old X    -DE/DX   Delta X   Delta X   Delta X     New X
                                 (Linear)    (Quad)   (Total)
    R1        2.90874  -0.00182  -0.00259   0.01094   0.00834   2.91708
    R2        2.08497   0.00032  -0.00596   0.03755   0.03159   2.11656
    R3        2.09066   0.00014  -0.00624   0.03885   0.03261   2.12327
    R4        2.08803   0.00009  -0.00605   0.03757   0.03152   2.11954
    R5        2.90641  -0.00392  -0.00319   0.00887   0.00569   2.91210
    R6        2.90414  -0.00127  -0.00231   0.01072   0.00841   2.91255
    R7        2.91044   0.00145   0.00038   0.00179   0.00217   2.91261
    R8        2.08721   0.00024  -0.00629   0.03937   0.03308   2.12029
    R9        2.08425  -0.00052  -0.00585   0.03488   0.02904   2.11329
   R10        2.08748  -0.00002  -0.00614   0.03783   0.03170   2.11917
   R11        2.08830   0.00005  -0.00628   0.03890   0.03262   2.12092
   R12        2.08545   0.00029  -0.00607   0.03816   0.03209   2.11754
   R13        2.08770   0.00021  -0.00632   0.03953   0.03321   2.12091
   R14        2.67359   0.00037  -0.00147   0.00978   0.00831   2.68190
   R15        2.09607  -0.00010  -0.00351   0.02140   0.01790   2.11397
   R16        2.08371   0.00005  -0.00366   0.02272   0.01906   2.10277
   R17        1.82811  -0.00026  -0.00123   0.00720   0.00597   1.83408
   R18        3.61217   0.00035   0.00481  -0.02377  -0.01896   3.59322
   R19        2.90803  -0.00169  -0.00278   0.01244   0.00967   2.91770
   R20        2.08720   0.00019  -0.00614   0.03830   0.03217   2.11936
   R21        2.08815   0.00016  -0.00612   0.03814   0.03202   2.12017
   R22        2.08476   0.00077  -0.00594   0.03848   0.03253   2.11729
   R23        2.90286  -0.00250  -0.00257   0.00896   0.00639   2.90925
   R24        2.90307  -0.00105  -0.00230   0.01132   0.00902   2.91208
   R25        2.91714   0.00037  -0.00050   0.00414   0.00364   2.92078
   R26        2.08753   0.00029  -0.00625   0.03928   0.03303   2.12056
   R27        2.08357  -0.00288  -0.00586   0.02953   0.02367   2.10724
   R28        2.08723   0.00024  -0.00624   0.03909   0.03285   2.12008
   R29        2.08748   0.00014  -0.00625   0.03890   0.03265   2.12013
   R30        2.08846   0.00016  -0.00632   0.03937   0.03305   2.12151
   R31        2.08659   0.00025  -0.00610   0.03824   0.03214   2.11873
   R32        2.65519  -0.00177  -0.00101   0.00300   0.00200   2.65718
   R33        2.10121   0.00013  -0.00375   0.02345   0.01970   2.12091
   R34        2.08669  -0.00002  -0.00377   0.02324   0.01947   2.10616
   R35        1.83979   0.00160  -0.00060   0.00616   0.00556   1.84535
    A1        1.92582   0.00050  -0.00163   0.01267   0.01100   1.93682
    A2        1.94574   0.00002  -0.00180   0.01102   0.00917   1.95491
    A3        1.94656   0.00002  -0.00186   0.01131   0.00942   1.95597
    A4        1.87731  -0.00024   0.00180  -0.01204  -0.01028   1.86703
    A5        1.86463  -0.00026   0.00248  -0.01635  -0.01390   1.85073
    A6        1.90067  -0.00007   0.00130  -0.00877  -0.00752   1.89315
    A7        1.91723  -0.00081  -0.00094   0.00011  -0.00082   1.91641
    A8        1.91380   0.00072  -0.00048   0.00073   0.00021   1.91400
    A9        1.91755  -0.00066   0.00052  -0.00621  -0.00572   1.91183
   A10        1.91874  -0.00072  -0.00076  -0.00010  -0.00082   1.91792
   A11        1.92213   0.00203   0.00027   0.01560   0.01588   1.93802
   A12        1.87395  -0.00055   0.00142  -0.01036  -0.00896   1.86499
   A13        1.92739   0.00040  -0.00107   0.00733   0.00624   1.93362
[...]
 31,0.00012684,0.00021576,-0.00010466,0.00005107,0.00023154,-0.00003692
 ,0.00036424,-0.00006153,0.00006479,-0.00009055,-0.00001496,-0.00013362
 ,0.00019066,-0.00003289,-0.00014647,0.00010168,0.13488978,0.01465930,0
 .23574530,-0.00000195,0.00001325,-0.00001419,0.00000225,-0.00002829,0.
 00001112,-0.00000378,0.00005425,-0.00001490,-0.00000378,0.00001759,-0.
 00001134,-0.00008125,-0.00005714,-0.00001124,0.00010366,0.00005430,0.0
 0000023,0.00000756,0.00000191,-0.00000351,-0.00000548,0.00000355,0.000
 00210,-0.00000236,-0.00000356,0.00000819,0.00002032,0.00000354,-0.0000
 0748,0.00001347,-0.00005562,0.00000738,0.00000780,-0.00000869,0.000013
 38,-0.00000612,-0.00000046,-0.00000270,0.00000768,0.00000352,-0.000001
 19,-0.00000066,-0.00000389,0.00000185,0.00001607,0.00000546,-0.0000031
 8,-0.00000411,-0.00000538,-0.00000928,-0.00000525,-0.00000252,0.000011
 96,0.00150105,-0.00081840,0.00092311,-0.00130206,-0.02675007,0.0161109
 3,-0.00632606,0.00035079,0.00135184,-0.05092688,-0.02047123,0.01231518
 ,0.00049686,-0.00181578,0.00023987,0.00042411,0.00039905,-0.00048155,-
 0.00004214,0.00004848,-0.00010823,-0.00049833,0.00043677,-0.00050891,0
 .00027329,0.00030230,0.00006944,-0.00000934,0.00006076,-0.00023423,-0.
 00018699,-0.00170450,0.00109761,0.00008181,0.00017446,0.00017189,0.002
 12204,0.01654957,-0.00805768,0.05432846,0.00000104,0.00001213,-0.00000
 864,0.00000696,-0.00003074,0.00000682,0.00000467,0.00003074,-0.0000018
 3,-0.00000460,0.00001599,-0.00000343,-0.00001038,-0.00000197,0.0000291
 7,-0.00001840,0.00003874,-0.00007893,0.00000394,-0.00000177,-0.0000017
 4,-0.00000828,0.00000715,-0.00000119,0.00000298,-0.00000780,-0.0000004
 8,0.00000289,0.00000062,-0.00000453,0.00002044,-0.00002026,-0.00000775
 ,0.00000956,0.00000228,0.00001435,-0.00000975,0.00000341,-0.00000450,0
 .00000466,-0.00000009,-0.00000049,0.00000229,-0.00000460,0.00000178,-0
 .00001100,0.00000743,-0.00000762,0.00000065,-0.00001128,0.00000367,0.0
 0000440,-0.00002267,0.00002064,0.00058066,0.00026265,0.00002485,0.0000
 9914,-0.00409696,0.00185910,-0.00223027,0.00070659,0.00002610,-0.02159
 987,-0.23551942,0.11789450,0.00105525,0.00010561,-0.00097370,-0.000335
 75,0.00040234,-0.00014780,-0.00004194,-0.00016437,0.00007201,-0.000457
 59,0.00023302,-0.00032825,0.00000153,0.00022012,-0.00018507,0.00019569
 ,0.00039257,-0.00008585,0.00001584,-0.00035944,0.00038856,0.00018184,0
 .00006889,-0.00009105,0.00070057,0.00399318,-0.00294091,0.02441569,0.2
 5041313,0.00000768,-0.00000254,0.00001024,-0.00001029,0.00001254,-0.00
 001155,0.00000717,-0.00002022,0.00001068,0.00000252,-0.00001091,0.0000
 0523,0.00002556,0.00006171,0.00003656,-0.00006063,-0.00007468,-0.00004
 812,-0.00000333,-0.00000062,-0.00000128,0.00000568,-0.00000606,-0.0000
 0019,-0.00000181,0.00000238,-0.00000407,-0.00000082,-0.00000380,-0.000
 00177,-0.00000229,0.00004263,0.00001027,-0.00001254,-0.00001394,-0.000
 02055,0.00000592,-0.00000208,0.00000344,-0.00000345,-0.00000022,-0.000
 00106,-0.00000177,-0.00000065,-0.00000403,-0.00000346,-0.00001238,-0.0
 0000333,-0.00000505,-0.00000639,-0.00001342,0.00002839,0.00002108,0.00
 000095,-0.00072536,-0.00078377,0.00049789,-0.00042249,0.00650030,-0.00
 564977,0.00228615,-0.00050972,-0.00013459,0.01337454,0.11774319,-0.123
 73142,-0.00003448,0.00167075,-0.00037763,-0.00041206,-0.00067805,0.000
 21552,0.00009331,-0.00010852,-0.00001314,-0.00002931,0.00002855,0.0004
 2233,0.00006544,-0.00014742,-0.00006667,-0.00006933,0.00021197,0.00008
 736,0.00021813,0.00076562,0.00013051,-0.00000486,-0.00029999,0.0003698
 1,0.00414410,0.02121058,-0.01109200,-0.01657302,-0.12927791,0.12797562
 ,0.00001969,0.00000875,0.00001826,-0.00000906,-0.00001441,-0.00001595,
 0.00002130,0.00001347,0.00003466,-0.00000274,0.00000146,0.00000939,0.0
 0006479,0.00013710,0.00010268,-0.00019185,-0.00005495,-0.00023665,-0.0
 0000529,-0.00000478,-0.00000298,-0.00000223,-0.00000259,-0.00000607,0.
 00001169,-0.00001193,-0.00001413,-0.00000407,-0.00001118,-0.00000806,0
 .00005425,0.00006968,0.00000139,-0.00001695,-0.00002393,-0.00002973,-0
 .00000148,-0.00000029,-0.00000187,-0.00000317,-0.00000240,-0.00000026,
 -0.00000008,-0.00000392,-0.00000716,-0.00002804,-0.00001991,-0.0000221
 8,-0.00000403,-0.00001923,-0.00002306,0.00004665,-0.00002602,0.0000387
 6,0.00129074,0.00108176,0.00118342,-0.01052191,0.02548450,0.01803274,0
 .00117537,0.00132290,-0.00044728,-0.07318246,0.06432579,0.04631286,-0.
 00482440,-0.00373647,-0.00085078,-0.00210053,0.00172467,0.00191395,-0.
 00038359,-0.00053959,-0.00080181,-0.00003682,-0.00007382,-0.00004432,0
 .00037536,-0.00027001,-0.00002499,0.00002149,-0.00087101,0.00002781,0.
 00012558,0.00004066,-0.00039206,-0.00002537,-0.00015207,-0.00004283,0.
 00666552,-0.01557272,-0.00944070,0.00033459,-0.00283093,-0.00252316,0.
 08044662,-0.00000478,-0.00000320,-0.00000311,-0.00000076,0.00001577,0.
 00000474,-0.00000101,-0.00001013,-0.00000798,0.00000351,-0.00000609,-0
 .00000664,-0.00004854,-0.00006304,-0.00005012,0.00009754,0.00004107,0.
 00008495,0.00000147,0.00000357,-0.00000039,0.00000215,-0.00000291,0.00
 000254,-0.00000245,0.00000599,0.00000750,0.00000543,0.00000345,-0.0000
 0023,-0.00001890,-0.00000887,0.00000327,-0.00000322,-0.00000044,0.0000
 0163,0.00000455,-0.00000215,0.00000302,0.00000155,0.00000266,-0.000000
 84,-0.00000263,0.00000245,0.00000280,0.00001811,0.00000120,0.00000846,
 -0.00000249,0.00000860,-0.00000076,-0.00002350,0.00000380,-0.00000960,
 -0.00012019,0.00023137,0.00032162,-0.00246211,0.00321302,0.00354263,-0
 .00055962,0.00112250,0.00070025,0.06565984,-0.20520263,-0.11475891,-0.
 00049195,-0.00003631,0.00047821,0.00000483,0.00055036,0.00003793,0.000
 37231,0.00017394,0.00020068,0.00000314,-0.00008361,-0.00012142,0.00002
 884,0.00014299,0.00022183,-0.00009619,0.00014240,-0.00023881,0.0001210
 9,0.00015751,0.00002399,0.00009321,-0.00005446,0.00001069,-0.00021429,
 0.00002897,0.00106086,0.00784546,-0.01704685,-0.01568378,-0.06979302,0
 .21623259,-0.00000775,0.00000053,-0.00001083,-0.00000111,0.00000097,0.
 00000537,-0.00000678,0.00001059,-0.00002226,0.00000075,0.00000112,-0.0
 0000693,-0.00006573,-0.00006613,-0.00003357,0.00013342,0.00001257,0.00
 012308,0.00000547,0.00000390,-0.00000160,0.00000110,-0.00000063,0.0000
 0394,-0.00000664,0.00000576,0.00001001,0.00001695,0.00000539,-0.000003
 32,-0.00002750,-0.00003747,0.00001159,0.00000217,-0.00000390,0.0000115
 8,0.00000158,-0.00000135,0.00000195,0.00000462,0.00000320,-0.00000259,
 -0.00000224,-0.00000087,0.00000318,0.00002278,0.00000568,0.00000770,-0
 .00000378,0.00000482,-0.00000285,-0.00002177,0.00001699,-0.00001596,-0
 .00094953,0.00074101,0.00058388,0.00203206,-0.00661115,-0.00618038,-0.
 00030340,-0.00075610,0.00000690,0.04704513,-0.11430642,-0.13157403,0.0
 0125675,0.00182046,0.00012059,0.00094666,-0.00070467,0.00011555,-0.000
 03883,-0.00008041,0.00040504,-0.00002106,0.00009121,-0.00001445,0.0000
 1908,0.00014618,-0.00004002,0.00034978,0.00061218,0.00003272,-0.000180
 97,0.00019036,0.00014419,0.00001526,-0.00010149,-0.00012598,0.00952033
 ,-0.01891593,-0.01206179,-0.00638573,0.01370740,0.01134574,-0.05306813
 ,0.12421589,0.13692646,0.00005354,0.00006447,0.00001329,0.00005084,-0.
 00013132,0.00003945,0.00010917,-0.00000989,0.00015174,-0.00002261,0.00
 007955,-0.00003327,-0.00001130,-0.00004967,0.00005011,-0.00001561,0.00
 055718,-0.00042594,0.00000183,-0.00000962,-0.00001038,-0.00004423,0.00
 001179,-0.00002112,0.00003658,-0.00006069,-0.00001536,-0.00008103,-0.0
 0003578,-0.00003360,0.00027193,0.00038415,0.00005686,-0.00006150,-0.00
 005228,-0.00008580,-0.00003930,0.00000410,-0.00002364,0.00001625,0.000
 00466,0.00000686,0.00000466,-0.00001215,-0.00000479,-0.00002327,0.0000
 1569,-0.00003309,0.00000109,-0.00001917,-0.00000124,-0.00008120,-0.000
 19615,0.00012120,-0.00010091,-0.00072945,0.00023448,0.00204668,0.00490
 819,-0.00364867,-0.00043821,0.00182608,0.00140988,0.00042418,0.0012930
 4,-0.00036902,-0.05512847,-0.02389339,0.00858990,-0.02426507,-0.031374
 41,0.02450677,-0.00000750,0.00008919,-0.00005485,0.00006218,-0.0001634
 1,-0.00014973,0.00007284,0.00009880,0.00010780,0.00032237,0.00067490,-
 0.00014851,0.00003715,0.00011774,0.00002472,0.00009855,-0.00027703,0.0
 0024658,0.00006410,-0.00004015,-0.00013888,-0.00022952,0.00024359,0.00
 054860,0.00003241,-0.00011980,-0.00015348,0.06938731,0.00001375,0.0000
 3999,-0.00001397,0.00002865,-0.00007426,0.00003454,0.00004368,0.000046
 02,0.00004924,-0.00000993,0.00004907,-0.00002194,-0.00010252,-0.000070
 44,-0.00002125,-0.00009818,0.00029804,-0.00046106,0.00000732,-0.000002
 99,-0.00000685,-0.00002864,0.00001391,-0.00000733,0.00001543,-0.000026
 79,0.00000046,-0.00001784,-0.00000451,-0.00001593,0.00009700,0.0000444
 8,-0.00004352,0.00000328,-0.00000254,0.00000689,-0.00002551,0.00000575
 ,-0.00001329,0.00001446,0.00000302,0.00000197,0.00000371,-0.00000847,0
 .00000429,-0.00002077,0.00001148,-0.00002075,0.00000205,-0.00001874,0.
 00000982,-0.00001564,-0.00013288,0.00011485,0.00018672,0.00074956,0.00
 166445,-0.00210487,-0.02385941,0.01477778,0.00182351,-0.00304825,-0.00
 494315,-0.00109679,0.00018873,0.00103060,-0.02553477,-0.22712208,0.100
 68895,-0.00723502,0.00559142,-0.00064255,0.00012218,0.00042507,-0.0001
 1588,-0.00040775,0.00027657,-0.00116900,0.00005352,0.00007415,0.000005
 69,-0.00023311,-0.00170569,0.00072798,-0.00011735,0.00033913,0.0000228
 8,0.00010474,0.00031394,-0.00005319,0.00005502,-0.00005236,-0.00007109
 ,0.00088964,0.00050739,-0.00080251,-0.00000482,0.00047767,-0.00029221,
 0.03301714,0.24424657,-0.00003043,-0.00002856,-0.00001546,-0.00001844,
 0.00007470,0.00000718,-0.00011674,-0.00001265,-0.00010413,0.00001589,-
 0.00003799,-0.00000707,-0.00006946,-0.00017395,-0.00012624,0.00053285,
 -0.00023297,0.00063899,0.00000455,0.00000921,0.00000092,0.00002916,-0.
 00001096,0.00001961,-0.00003295,0.00004236,0.00002387,0.00004442,0.000
 02422,0.00001455,-0.00016868,-0.00022967,-0.00001345,0.00004062,0.0000
 2413,0.00004741,0.00002425,-0.00000703,0.00001648,-0.00000089,0.000006
 58,-0.00000472,-0.00000654,0.00000525,0.00000369,0.00007874,0.00001953
 ,0.00004948,-0.00000561,0.00001958,-0.00000243,0.00006318,0.00018048,-
 0.00007253,0.00018764,-0.00084806,0.00150508,-0.00144547,-0.01669041,0
 .00697868,0.00096190,-0.00220273,-0.00187629,-0.00063440,-0.00063724,0
 .00069377,0.01180800,0.10247877,-0.11293741,0.01270253,0.00815517,-0.0
 0307724,0.00007627,0.00017010,0.00021129,0.00005384,0.00026440,-0.0001
 2526,-0.00016554,-0.00008246,-0.00013657,-0.00000768,-0.00085128,0.000
 80258,-0.00015021,-0.00001544,-0.00005391,0.00022185,-0.00016561,0.000
 22007,0.00010601,0.00014193,-0.00007250,0.00012650,0.00008846,-0.00003
 570,-0.00028766,0.00003577,0.00008614,-0.02589495,-0.11052257,0.117961
 74,0.00002881,-0.00000809,0.00003447,0.00003576,-0.00004018,-0.0000438
 4,0.00003658,-0.00002611,0.00016643,-0.00002450,0.00000617,0.00004961,
 0.00036779,0.00057559,0.00032521,-0.00128314,0.00029853,-0.00145339,-0
 .00003443,-0.00002456,0.00000062,-0.00000990,0.00000795,-0.00001320,0.
 00003374,-0.00001838,-0.00006678,-0.00008870,-0.00006906,-0.00002501,0
 .00010610,0.00023099,-0.00013592,-0.00002306,-0.00002435,-0.00004004,-
 0.00001192,0.00000585,-0.00001388,-0.00001823,-0.00001983,0.00000248,0
 .00000847,-0.00000016,-0.00000863,-0.00016856,-0.00007755,-0.00009760,
 -0.00000977,-0.00005570,-0.00002054,0.00006886,-0.00018379,0.00006735,
 -0.00007475,0.00133492,0.00135452,0.00391128,0.00032103,0.00488043,0.0
 0009830,0.00005350,0.00014506,0.00088410,0.00021634,0.00097006,-0.1205
 8487,-0.00240668,-0.11276255,-0.03734486,0.00326072,-0.02616001,0.0004
 6877,0.00010895,0.00035372,-0.00012462,0.00005174,-0.00010786,0.000081
 03,0.00014155,0.00002278,0.00006888,-0.00010194,0.00016905,-0.00001375
 ,0.00012281,-0.00008713,0.00009087,-0.00026256,-0.00000287,-0.00012849
 ,0.00031036,0.00006965,-0.00000900,-0.00004011,0.00000675,0.00018051,-
 0.00014687,-0.00007490,0.00469722,0.00075203,0.00343565,0.15229988,-0.
 00000519,-0.00000153,-0.00000509,0.00001829,0.00002552,0.00002449,-0.0
 0000548,-0.00004548,0.00000404,0.00000649,-0.00000229,-0.00001359,-0.0
 0006814,-0.00012282,-0.00012272,0.00004420,0.00016996,0.00002088,0.000
 00135,0.00000359,0.00000073,0.00000025,-0.00000049,0.00000423,-0.00000
 298,0.00000753,0.00000807,-0.00001572,0.00000595,0.00000692,-0.0000205
 4,-0.00000206,-0.00004694,0.00001459,0.00002317,0.00001507,0.00000127,
 -0.00000087,0.00000277,0.00000228,0.00000386,0.00000135,-0.00000027,0.
 00000244,0.00000353,0.00001240,0.00001060,0.00001726,0.00000888,0.0000
 1282,0.00002268,-0.00006716,-0.00000216,0.00001210,0.00227628,-0.00376
 113,-0.00223582,-0.01336238,-0.00159332,-0.02319808,-0.00097900,0.0012
 3085,-0.00123059,-0.00116649,0.00039017,0.00032282,-0.00021494,-0.0535
 2530,0.00290028,-0.00027577,0.00246994,-0.00152394,-0.00090969,0.00005
 823,-0.00139518,0.00006929,0.00019166,-0.00021827,-0.00003723,0.000058
 50,0.00021581,0.00012986,0.00033697,0.00020750,-0.00004739,-0.00007762
 ,0.00007500,0.00044549,-0.00057276,0.00038827,0.00050947,0.00023490,0.
 00017486,0.00016782,-0.00003635,0.00003872,-0.00008412,-0.00004472,0.0
 0026933,0.01477379,0.00180732,0.02207414,-0.00083839,0.05203170,-0.000
 01068,-0.00001017,0.00000225,0.00000666,0.00000211,-0.00000224,0.00000
 068,-0.00002536,-0.00001068,-0.00000064,-0.00000043,0.00000889,0.00010
 398,-0.00002642,-0.00001540,0.00011684,-0.00015017,0.00032300,-0.00000
 818,-0.00000549,0.00000736,-0.00000356,0.00000718,-0.00000314,0.000010
 50,-0.00000191,-0.00000695,-0.00003399,0.00000098,0.00001637,0.0000251
 7,-0.00000559,-0.00001295,0.00001818,0.00004242,0.00001732,-0.00000489
 ,0.00000570,-0.00000445,-0.00000677,-0.00000694,0.00000518,0.00000655,
 0.00000679,0.00000470,-0.00001405,0.00002297,0.00001619,0.00001680,0.0
 0001946,0.00004001,-0.00000188,-0.00000043,-0.00003819,0.00229727,-0.0
 0375736,-0.00148592,-0.01082472,0.00102246,-0.01614250,-0.00004578,0.0
 0145346,0.00091261,-0.00102497,0.00025923,-0.00002143,-0.12261937,0.00
 086108,-0.23582724,0.00972393,-0.00047485,0.01530499,-0.00081727,-0.00
 046784,-0.00101811,0.00023337,-0.00000133,0.00046333,-0.00004213,0.000
 01747,0.00014344,0.00024945,0.00015999,0.00020442,0.00004012,-0.000056
 33,-0.00003167,0.00018631,-0.00068243,0.00062003,0.00114504,-0.0002586
 9,0.00008641,-0.00004767,-0.00009339,0.00001911,0.00027099,0.00001301,
 0.00038817,-0.00725707,-0.00110761,-0.01016209,0.12528949,0.00339618,0
 .24559447,-0.00018047,0.00030134,-0.00042992,-0.00039931,-0.00021823,0
 .00050168,-0.00019650,-0.00019971,-0.00016773,0.00003777,0.00030565,-0
 .00062055,-0.00524764,-0.00698227,-0.00429916,0.00071004,0.00160372,0.
 00676445,0.00036296,0.00018176,-0.00001750,0.00000700,0.00001506,0.000
 12042,-0.00020825,0.00004924,0.00078496,0.00016758,0.00040742,0.000004
 08,0.00045325,-0.00162807,0.00038185,0.00021692,0.00031853,0.00028792,
 -0.00004994,-0.00004514,0.00002267,0.00026297,0.00019888,0.00002161,-0
 .00003680,-0.00000006,0.00011810,0.00183069,0.00089798,0.00093153,0.00
 024328,0.00069244,0.00042544,-0.00121029,0.00338765,-0.00105608,0.0003
 8651,0.00021888,0.00059059,0.00059831,0.00102344,-0.00017468,-0.000038
 13,-0.00012230,-0.00055562,-0.00006149,-0.00089713,-0.00056080,-0.0363
 3422,0.00824663,-0.02816228,-0.18301375,0.04839575,-0.16146853,0.00013
 347,-0.00022959,-0.00031808,0.00009129,0.00009892,0.00022960,0.0005309
 0,0.00013642,0.00041166,0.00019925,-0.00033192,-0.00007082,0.00009498,
 0.00031718,0.00010299,-0.00002715,0.00002518,0.00008718,0.00007134,0.0
 0004461,0.00012367,-0.00009598,0.00004459,0.00007956,0.00047752,-0.000
 15071,-0.00005456,0.00275888,-0.00018034,-0.00147819,-0.00351438,-0.00
 038114,0.00302228,0.22097939,0.00009917,-0.00024524,0.00039244,-0.0008
 3801,0.00072052,-0.00058943,-0.00070722,0.00004990,-0.00109267,0.00015
 128,-0.00061789,0.00041891,0.00058408,0.00583790,0.00036219,-0.0023271
 6,-0.01044035,-0.00409270,-0.00015349,-0.00006568,0.00001177,0.0002197
 8,-0.00011922,-0.00003814,0.00006019,0.00015502,-0.00022858,0.00079841
 ,0.00028108,0.00034265,-0.00168846,-0.00210929,0.00111711,0.00013289,-
 0.00002320,0.00005139,0.00025565,0.00000982,0.00012926,-0.00017624,-0.
 00010373,-0.00002833,-0.00001045,0.00002840,-0.00007641,-0.00107734,-0
 .00094962,-0.00053626,-0.00008475,-0.00040593,-0.00046336,0.00371476,-
 0.00128546,0.00246000,0.00116038,0.00084449,-0.00066499,0.00107334,-0.
 00018466,0.00147773,0.00022801,-0.00038366,-0.00024524,0.00001635,0.00
 021550,-0.00039419,-0.00243799,0.00031232,-0.00318289,0.06284990,-0.03
 432496,0.08336438,-0.00059134,-0.00019337,0.00043838,-0.00029156,-0.00
 024871,0.00037439,-0.00050480,-0.00119460,-0.00141758,-0.00008197,0.00
 002577,0.00005068,0.00019111,-0.00039956,0.00024341,-0.00026894,0.0000
 4334,-0.00007292,-0.00014728,-0.00006823,-0.00004859,-0.00007260,-0.00
 009940,0.00013612,-0.00008662,0.00000355,0.00001321,-0.00098969,0.0006
 2010,-0.00106519,-0.00345473,0.00071322,-0.00015777,-0.05554465,0.0436
 0183,0.00024961,0.00061442,0.00021567,0.00011356,-0.00021599,0.0009784
 4,0.00069726,0.00002851,0.00004838,0.00008714,0.00039270,-0.00068586,-
 0.00338538,-0.00595966,-0.00267976,0.00116472,0.00250995,-0.00416037,0
 .00007124,0.00000761,-0.00018351,-0.00025281,-0.00001502,-0.00003722,0
 .00017101,-0.00027742,0.00004010,-0.00010611,0.00007247,-0.00020029,0.
 00034333,0.00054590,0.00080985,-0.00019435,-0.00023688,-0.00017311,-0.
 00014310,-0.00002951,-0.00002651,0.00024230,0.00018566,0.00003578,-0.0
 0006330,-0.00010099,0.00000397,0.00154372,0.00087480,0.00063856,0.0000
 2111,0.00032723,-0.00008177,0.00268539,-0.00008714,0.00320808,0.000675
 65,-0.00003977,0.00036225,0.00281569,0.00032956,0.00108183,-0.00019078
 ,-0.00008424,-0.00047031,-0.00011237,-0.00077294,-0.00092193,0.0091458
 9,-0.00498017,0.01506914,-0.20584295,0.08382893,-0.29856193,-0.0006322
 7,0.00022955,-0.00016905,0.00046444,0.00041060,-0.00053379,-0.00021844
 ,-0.00178531,-0.00071270,0.00009344,-0.00024306,-0.00002735,0.00003487
 ,0.00023719,0.00009246,-0.00008036,0.00018706,-0.00012693,-0.00034480,
 0.00003829,-0.00001431,0.00001348,0.00010767,0.00006904,0.00034493,-0.
 00009968,-0.00023723,0.00239513,0.00120526,-0.00045848,0.00377082,-0.0
 0021681,0.00060470,0.18442227,-0.07698877,0.28720414\\-0.00000012,-0.0
 0000020,0.00000011,-0.00000032,-0.00000004,0.00000016,0.00000026,0.000
 00001,-0.00000032,-0.00000005,0.,-0.00000024,0.00000087,0.00000074,0.0
 0000023,-0.00000042,0.00000037,0.00000100,0.00000006,-0.00000043,0.,0.
 00000006,-0.00000024,0.00000031,-0.00000003,-0.00000040,0.00000026,0.0
 0000001,-0.00000031,-0.00000044,0.00000002,-0.00000029,-0.00000011,-0.
 00000004,0.00000004,-0.00000041,0.00000004,0.00000025,-0.00000002,0.00
 000004,0.00000007,-0.00000036,0.00000003,0.00000041,-0.00000028,0.0000
 0005,0.00000033,0.00000023,-0.00000010,0.00000025,0.00000007,-0.000000
 39,0.00000005,0.00000004,0.00000002,0.00000017,-0.00000011,0.00000017,
 0.00000009,-0.00000028,0.,-0.00000019,-0.00000021,0.00000015,0.0000001
 3,-0.00000003,-0.00000078,-0.00000035,0.00000090,0.00000070,0.00000032
 ,-0.00000038,0.00000005,0.00000049,-0.00000017,-0.00000003,0.00000038,
 0.00000020,0.00000001,0.00000019,0.00000004,-0.00000003,0.,-0.00000051
 ,-0.00000005,-0.00000025,-0.00000045,0.,-0.00000034,-0.00000037,-0.000
 00003,-0.00000007,0.00000008,-0.00000004,0.00000018,0.00000030,0.,0.00
 000025,-0.00000008,0.00000007,-0.00000005,0.00000036,0.00000009,-0.000
 00046,0.00000020,-0.00000026,-0.00000111,0.00000030\\\@


 OUR LITTLE SYSTEMS HAVE THEIR DAY,    
   THEY HAVE THEIR DAY AND CEASE TO BE.
   THEY ARE BUT BROKEN LIGHTS OF THEE, 
 AND THOU, OH LORD, ART MORE THAN THEY.
          -------------------          
 LET KNOWLEDGE GROW FROM MORE TO MORE, 
   BUT MORE OF REVERENCE IN US DWELL.  
   THAT MIND AND SOUL, ACCORDING WELL, 
 MAY MAKE ONE MUSIC AS BEFORE.....     
          -------------------          
                    LORD TENNYSON      
 File lengths (MBytes):  RWF=    206 Int=      0 D2E=      0 Chk=      5 Scr=      1
 Normal termination of Gaussian 16 at Tue Aug  9 17:37:14 2022.
real 5563.08
user 22044.37
sys 29.21
