 Entering Gaussian System, Link 0=g16
 Input=gaussian_test.inp
 Output=gaussian_test.log
 Initial command:
 /sw/restricted/lms/sw/Gaussian/g16_B01/g16/l1.exe "/scratch/user/peterchao1/peterchao1/8625374_1689034718000000470887160/Gau-138286.inp" -scrdir="/scratch/user/peterchao1/peterchao1/8625374_1689034718000000470887160/"
 Entering Link 1 = /sw/restricted/lms/sw/Gaussian/g16_B01/g16/l1.exe PID=    138290.
  
 Copyright (c) 1988-2017, Gaussian, Inc.  All Rights Reserved.
  
 This is part of the Gaussian(R) 16 program.  It is based on
 the Gaussian(R) 09 system (copyright 2009, Gaussian, Inc.),
 the Gaussian(R) 03 system (copyright 2003, Gaussian, Inc.),
 the Gaussian(R) 98 system (copyright 1998, Gaussian, Inc.),
 the Gaussian(R) 94 system (copyright 1995, Gaussian, Inc.),
 the Gaussian 92(TM) system (copyright 1992, Gaussian, Inc.),
 the Gaussian 90(TM) system (copyright 1990, Gaussian, Inc.),
 the Gaussian 88(TM) system (copyright 1988, Gaussian, Inc.),
 the Gaussian 86(TM) system (copyright 1986, Carnegie Mellon
 University), and the Gaussian 82(TM) system (copyright 1983,
 Carnegie Mellon University). Gaussian is a federally registered
 trademark of Gaussian, Inc.
  
 This software contains proprietary and confidential information,
 including trade secrets, belonging to Gaussian, Inc.
  
 This software is provided under written license and may be
 used, copied, transmitted, or stored only in accord with that
 written license.
  
 The following legend is applicable only to US Government
 contracts under FAR:
  
                    RESTRICTED RIGHTS LEGEND
  
 Use, reproduction and disclosure by the US Government is
 subject to restrictions as set forth in subparagraphs (a)
 and (c) of the Commercial Computer Software - Restricted
 Rights clause in FAR 52.227-19.
  
 Gaussian, Inc.
 340 Quinnipiac St., Bldg. 40, Wallingford CT 06492
  
  
 ---------------------------------------------------------------
 Warning -- This program may not be used in any manner that
 competes with the business of Gaussian, Inc. or will provide
 assistance to any competitor of Gaussian, Inc.  The licensee
 of this program is prohibited from giving any competitor of
 Gaussian, Inc. access to this program.  By using this program,
 the user acknowledges that Gaussian, Inc. is engaged in the
 business of creating and licensing software in the field of
 computational chemistry and represents and warrants to the
 licensee that it is not a competitor of Gaussian, Inc. and that
 it will not use this program in any manner prohibited above.
 ---------------------------------------------------------------
  

 Cite this work as:
 Gaussian 16, Revision B.01,
 M. J. Frisch, G. W. Trucks, H. B. Schlegel, G. E. Scuseria, 
 M. A. Robb, J. R. Cheeseman, G. Scalmani, V. Barone, 
 G. A. Petersson, H. Nakatsuji, X. Li, M. Caricato, A. V. Marenich, 
 J. Bloino, B. G. Janesko, R. Gomperts, B. Mennucci, H. P. Hratchian, 
 J. V. Ortiz, A. F. Izmaylov, J. L. Sonnenberg, D. Williams-Young, 
 F. Ding, F. Lipparini, F. Egidi, J. Goings, B. Peng, A. Petrone, 
 T. Henderson, D. Ranasinghe, V. G. Zakrzewski, J. Gao, N. Rega, 
 G. Zheng, W. Liang, M. Hada, M. Ehara, K. Toyota, R. Fukuda, 
 J. Hasegawa, M. Ishida, T. Nakajima, Y. Honda, O. Kitao, H. Nakai, 
 T. Vreven, K. Throssell, J. A. Montgomery, Jr., J. E. Peralta, 
 F. Ogliaro, M. J. Bearpark, J. J. Heyd, E. N. Brothers, K. N. Kudin, 
 V. N. Staroverov, T. A. Keith, R. Kobayashi, J. Normand, 
 K. Raghavachari, A. P. Rendell, J. C. Burant, S. S. Iyengar, 
 J. Tomasi, M. Cossi, J. M. Millam, M. Klene, C. Adamo, R. Cammi, 
 J. W. Ochterski, R. L. Martin, K. Morokuma, O. Farkas, 
 J. B. Foresman, and D. J. Fox, Gaussian, Inc., Wallingford CT, 2016.
 
 ******************************************
 Gaussian 16:  ES64L-G16RevB.01 20-Dec-2017
                10-Jul-2023 
 ******************************************
 %nprocshared=4
 Will use up to    4 processors via shared memory.
 %mem=8000mb
 %chk=31.chk
 %mem=8000mb
 ----------------------------------------------------------------------
 #T wB97XD/def2svpp opt=tight freq int(grid=ultrafine) scf=(verytight,q
 c)
 ----------------------------------------------------------------------
 -------
 comment
 -------
 Symbolic Z-matrix:
 Charge =  1 Multiplicity = 2
 O                    -1.76143  -0.13552   1.5837 
 C                    -0.95087   0.7869    0.89377 
 C                     0.02165   0.01512  -0.00241 
 C                     0.92584  -0.87887   0.8707 
 O                     1.8231   -1.66246   0.11767 
 C                    -0.75649  -0.8606   -0.98214 
 F                    -1.58975  -0.09781  -1.77045 
 C                     0.88082   0.99705  -0.79777 
 F                     1.5231    1.87473   0.0487 
 H                    -2.40343   0.34748   2.11798 
 H                    -0.36904   1.41651   1.59417 
 H                    -1.55977   1.45991   0.25853 
 H                     0.29465  -1.49892   1.53235 
 H                     1.53609  -0.22345   1.51317 
 H                     1.41615  -2.51222  -0.08901 
 H                    -1.37733  -1.58312  -0.42581 
 H                    -0.06366  -1.40093  -1.65115 
 H                     0.2591    1.58568  -1.49334 
 H                     1.64798   0.44306  -1.36514 
 

 GradGradGradGradGradGradGradGradGradGradGradGradGradGradGradGradGradGrad
 Initialization pass.
                           ----------------------------
                           !    Initial Parameters    !
                           ! (Angstroms and Degrees)  !
 --------------------------                            --------------------------
 ! Name  Definition              Value          Derivative Info.                !
 --------------------------------------------------------------------------------
 ! R1    R(1,2)                  1.4085         estimate D2E/DX2                !
 ! R2    R(1,10)                 0.9648         estimate D2E/DX2                !
 ! R3    R(2,3)                  1.5312         estimate D2E/DX2                !
 ! R4    R(2,11)                 1.107          estimate D2E/DX2                !
 ! R5    R(2,12)                 1.1078         estimate D2E/DX2                !
 ! R6    R(3,4)                  1.5424         estimate D2E/DX2                !
 ! R7    R(3,6)                  1.5272         estimate D2E/DX2                !
 ! R8    R(3,8)                  1.5281         estimate D2E/DX2                !
 ! R9    R(4,5)                  1.4093         estimate D2E/DX2                !
 ! R10   R(4,13)                 1.1048         estimate D2E/DX2                !
 ! R11   R(4,14)                 1.1021         estimate D2E/DX2                !
 ! R12   R(5,15)                 0.9646         estimate D2E/DX2                !
 ! R13   R(6,7)                  1.3775         estimate D2E/DX2                !
 ! R14   R(6,16)                 1.1032         estimate D2E/DX2                !
 ! R15   R(6,17)                 1.1043         estimate D2E/DX2                !
 ! R16   R(8,9)                  1.3782         estimate D2E/DX2                !
 ! R17   R(8,18)                 1.1031         estimate D2E/DX2                !
 ! R18   R(8,19)                 1.1033         estimate D2E/DX2                !
 ! A1    A(2,1,10)             109.0464         estimate D2E/DX2                !
 ! A2    A(1,2,3)              108.7902         estimate D2E/DX2                !
 ! A3    A(1,2,11)             111.4083         estimate D2E/DX2                !
 ! A4    A(1,2,12)             111.2497         estimate D2E/DX2                !
 ! A5    A(3,2,11)             108.8536         estimate D2E/DX2                !
 ! A6    A(3,2,12)             108.6447         estimate D2E/DX2                !
 ! A7    A(11,2,12)            107.8282         estimate D2E/DX2                !
 ! A8    A(2,3,4)              109.4607         estimate D2E/DX2                !
 ! A9    A(2,3,6)              109.9306         estimate D2E/DX2                !
 ! A10   A(2,3,8)              109.7464         estimate D2E/DX2                !
 ! A11   A(4,3,6)              109.2371         estimate D2E/DX2                !
 ! A12   A(4,3,8)              109.7234         estimate D2E/DX2                !
 ! A13   A(6,3,8)              108.7267         estimate D2E/DX2                !
 ! A14   A(3,4,5)              113.1428         estimate D2E/DX2                !
 ! A15   A(3,4,13)             109.2304         estimate D2E/DX2                !
 ! A16   A(3,4,14)             108.0517         estimate D2E/DX2                !
 ! A17   A(5,4,13)             111.819          estimate D2E/DX2                !
 ! A18   A(5,4,14)             106.8343         estimate D2E/DX2                !
 ! A19   A(13,4,14)            107.5162         estimate D2E/DX2                !
 ! A20   A(4,5,15)             109.6162         estimate D2E/DX2                !
 ! A21   A(3,6,7)              110.9655         estimate D2E/DX2                !
 ! A22   A(3,6,16)             109.8033         estimate D2E/DX2                !
 ! A23   A(3,6,17)             110.4596         estimate D2E/DX2                !
 ! A24   A(7,6,16)             108.1099         estimate D2E/DX2                !
 ! A25   A(7,6,17)             107.6824         estimate D2E/DX2                !
 ! A26   A(16,6,17)            109.7633         estimate D2E/DX2                !
 ! A27   A(3,8,9)              110.5841         estimate D2E/DX2                !
 ! A28   A(3,8,18)             110.7448         estimate D2E/DX2                !
 ! A29   A(3,8,19)             109.6306         estimate D2E/DX2                !
 ! A30   A(9,8,18)             108.0669         estimate D2E/DX2                !
 ! A31   A(9,8,19)             108.1535         estimate D2E/DX2                !
 ! A32   A(18,8,19)            109.6063         estimate D2E/DX2                !
 ! D1    D(10,1,2,3)          -177.3587         estimate D2E/DX2                !
 ! D2    D(10,1,2,11)           62.6389         estimate D2E/DX2                !
 ! D3    D(10,1,2,12)          -57.7127         estimate D2E/DX2                !
 ! D4    D(1,2,3,4)            -61.4348         estimate D2E/DX2                !
 ! D5    D(1,2,3,6)             58.5539         estimate D2E/DX2                !
 ! D6    D(1,2,3,8)            178.0923         estimate D2E/DX2                !
 ! D7    D(11,2,3,4)            60.1394         estimate D2E/DX2                !
 ! D8    D(11,2,3,6)          -179.8719         estimate D2E/DX2                !
 ! D9    D(11,2,3,8)           -60.3336         estimate D2E/DX2                !
 ! D10   D(12,2,3,4)           177.3108         estimate D2E/DX2                !
 ! D11   D(12,2,3,6)           -62.7005         estimate D2E/DX2                !
 ! D12   D(12,2,3,8)            56.8379         estimate D2E/DX2                !
 ! D13   D(2,3,4,5)            177.8937         estimate D2E/DX2                !
 ! D14   D(2,3,4,13)            52.6409         estimate D2E/DX2                !
 ! D15   D(2,3,4,14)           -64.0358         estimate D2E/DX2                !
 ! D16   D(6,3,4,5)             57.4811         estimate D2E/DX2                !
 ! D17   D(6,3,4,13)           -67.7718         estimate D2E/DX2                !
 ! D18   D(6,3,4,14)           175.5516         estimate D2E/DX2                !
 ! D19   D(8,3,4,5)            -61.6194         estimate D2E/DX2                !
 ! D20   D(8,3,4,13)           173.1278         estimate D2E/DX2                !
 ! D21   D(8,3,4,14)            56.4511         estimate D2E/DX2                !
 ! D22   D(2,3,6,7)             59.1375         estimate D2E/DX2                !
 ! D23   D(2,3,6,16)           -60.32           estimate D2E/DX2                !
 ! D24   D(2,3,6,17)           178.4866         estimate D2E/DX2                !
 ! D25   D(4,3,6,7)            179.2618         estimate D2E/DX2                !
 ! D26   D(4,3,6,16)            59.8044         estimate D2E/DX2                !
 ! D27   D(4,3,6,17)           -61.389          estimate D2E/DX2                !
 ! D28   D(8,3,6,7)            -61.021          estimate D2E/DX2                !
 ! D29   D(8,3,6,16)           179.5215         estimate D2E/DX2                !
 ! D30   D(8,3,6,17)            58.3281         estimate D2E/DX2                !
 ! D31   D(2,3,8,9)             55.1688         estimate D2E/DX2                !
 ! D32   D(2,3,8,18)           -64.5993         estimate D2E/DX2                !
 ! D33   D(2,3,8,19)           174.3324         estimate D2E/DX2                !
 ! D34   D(4,3,8,9)            -65.1447         estimate D2E/DX2                !
 ! D35   D(4,3,8,18)           175.0872         estimate D2E/DX2                !
 ! D36   D(4,3,8,19)            54.0189         estimate D2E/DX2                !
 ! D37   D(6,3,8,9)            175.4414         estimate D2E/DX2                !
 ! D38   D(6,3,8,18)            55.6733         estimate D2E/DX2                !
 ! D39   D(6,3,8,19)           -65.395          estimate D2E/DX2                !
 ! D40   D(3,4,5,15)           -90.6647         estimate D2E/DX2                !
 ! D41   D(13,4,5,15)           33.1806         estimate D2E/DX2                !
 ! D42   D(14,4,5,15)          150.558          estimate D2E/DX2                !
 --------------------------------------------------------------------------------
 Number of steps in this run=    102 maximum allowed number of steps=    114.
 GradGradGradGradGradGradGradGradGradGradGradGradGradGradGradGradGradGrad

                    Distance matrix (angstroms):
                    1          2          3          4          5
     1  O    0.000000
     2  C    1.408495   0.000000
     3  C    2.391191   1.531202   0.000000
     4  C    2.877909   2.509458   1.542432   0.000000
     5  O    4.162882   3.781082   2.464527   1.409300   0.000000
     6  C    2.849418   2.504214   1.527174   2.502713   2.916641
     7  F    3.358752   2.879053   2.394854   3.730134   4.202452
     8  C    3.733037   2.502110   1.528057   2.510954   2.966296
     9  F    4.145528   2.831612   2.390624   2.935079   3.550555
    10  H    0.964833   1.949798   3.238444   3.760807   5.089653
    11  H    2.085097   1.107021   2.160001   2.732931   4.057781
    12  H    2.083777   1.107805   2.157870   3.467408   4.605738
    13  H    2.467579   2.680313   2.173089   1.104830   2.089067
    14  H    3.299438   2.754891   2.155780   1.102146   2.024972
    15  H    4.306236   4.177659   2.887830   1.956855   0.964580
    16  H    2.506236   2.745934   2.165820   2.735231   3.247207
    17  H    3.866258   3.471363   2.175045   2.758875   2.599418
    18  H    4.063642   2.792911   2.178510   3.479543   3.948650
    19  H    4.544718   3.460480   2.164514   2.695918   2.581207
                    6          7          8          9         10
     6  C    0.000000
     7  F    1.377536   0.000000
     8  C    2.483073   2.872027   0.000000
     9  F    3.706904   4.109742   1.378160   0.000000
    10  H    3.712494   3.997532   4.439575   4.693829   0.000000
    11  H    3.460164   3.886382   2.731203   2.485688   2.357104
    12  H    2.751235   2.558152   2.699350   3.117721   2.325260
    13  H    2.799099   4.052467   3.464522   3.884818   3.321408
    14  H    3.447953   4.535276   2.694329   2.558750   4.026354
    15  H    2.871557   4.206183   3.619929   4.390409   5.257170
    16  H    1.103164   2.014774   3.448893   4.538094   3.354245
    17  H    1.104328   2.010293   2.714885   4.017108   4.768417
    18  H    2.697596   2.515780   1.103105   2.014723   4.654441
    19  H    2.761828   3.307519   1.103336   2.015983   5.343705
                   11         12         13         14         15
    11  H    0.000000
    12  H    1.789878   0.000000
    13  H    2.990662   3.717009   0.000000
    14  H    2.515068   3.740610   1.779989   0.000000
    15  H    4.631948   4.975408   2.216606   2.796391   0.000000
    16  H    3.754297   3.124360   2.576227   3.754501   2.963131
    17  H    4.308519   3.750948   3.205096   3.736109   2.421791
    18  H    3.155295   2.528466   4.320970   3.733995   4.483709
    19  H    3.711268   3.736301   3.741423   2.956588   3.227374
                   16         17         18         19
    16  H    0.000000
    17  H    1.805653   0.000000
    18  H    3.722737   3.008134   0.000000
    19  H    3.760349   2.532152   1.803051   0.000000
 Framework group  C1[X(C5H10F2O2)]
 Deg. of freedom    51
                         Standard orientation:                         
 ---------------------------------------------------------------------
 Center     Atomic      Atomic             Coordinates (Angstroms)
 Number     Number       Type             X           Y           Z
 ---------------------------------------------------------------------
      1          8           0        1.761426   -0.135516   -1.583702
      2          6           0        0.950871    0.786901   -0.893771
      3          6           0       -0.021651    0.015120    0.002406
      4          6           0       -0.925843   -0.878869   -0.870702
      5          8           0       -1.823096   -1.662459   -0.117674
      6          6           0        0.756486   -0.860604    0.982136
      7          9           0        1.589745   -0.097814    1.770448
      8          6           0       -0.880821    0.997052    0.797765
      9          9           0       -1.523096    1.874726   -0.048696
     10          1           0        2.403427    0.347474   -2.117984
     11          1           0        0.369043    1.416512   -1.594172
     12          1           0        1.559773    1.459908   -0.258529
     13          1           0       -0.294647   -1.498922   -1.532347
     14          1           0       -1.536086   -0.223454   -1.513166
     15          1           0       -1.416149   -2.512219    0.089012
     16          1           0        1.377324   -1.583120    0.425808
     17          1           0        0.063656   -1.400926    1.651150
     18          1           0       -0.259097    1.585677    1.493337
     19          1           0       -1.647979    0.443064    1.365140
 ---------------------------------------------------------------------
 Rotational constants (GHZ):           1.5583956           1.2417722           1.2040412
   146 basis functions,   265 primitive gaussians,   155 cartesian basis functions
    37 alpha electrons       36 beta electrons
       nuclear repulsion energy       524.4723313621 Hartrees.
 NAtoms=   19 NActive=   19 NUniq=   19 SFac= 1.00D+00 NAtFMM=   60 NAOKFM=F Big=F
 Nuclear repulsion after empirical dispersion term =      524.4594013535 Hartrees.
   1 Symmetry operations used in ECPInt.
 ECPInt:  NShTT=    2775 NPrTT=   11173 LenC2=    2741 LenP2D=    8660.
 LDataN:  DoStor=T MaxTD1= 4 Len=   56
 ExpMin= 1.22D-01 ExpMax= 2.89D+03 ExpMxC= 4.35D+02 IAcc=3 IRadAn=         5 AccDes= 0.00D+00
 Harris functional with IExCor= 4639 and IRadAn=       5 diagonalized for initial guess.
 HarFok:  IExCor= 4639 AccDes= 0.00D+00 IRadAn=         5 IDoV= 1 UseB2=F ITyADJ=14
 ICtDFT=  3500011 ScaDFX=  1.000000  1.000000  1.000000  1.000000
 FoFCou: FMM=F IPFlag=           0 FMFlag=      100000 FMFlg1=           0
         NFxFlg=           0 DoJE=T BraDBF=F KetDBF=T FulRan=T
         wScrn=  0.000000 ICntrl=       500 IOpCl=  0 I1Cent=   200000004 NGrid=           0
         NMat0=    1 NMatS0=      1 NMatT0=    0 NMatD0=    1 NMtDS0=    0 NMtDT0=    0
 Petite list used in FoFCou.
 Initial guess <Sx>= 0.0000 <Sy>= 0.0000 <Sz>= 0.5000 <S**2>= 0.7500 S= 0.5000
     Accept linear search using points  3 and  4.
     Accept linear search using points  2 and  3.
     Accept linear search using points  2 and  3.
     Accept linear search using points  1 and  2.
     Accept linear search using points  1 and  2.
     Accept linear search using points  1 and  2.
     Minimum is close to point  2 DX= -1.79D-02 DF= -2.13D-07 DXR=  1.83D-02 DFR=  3.38D-04 which will be used.
     Minimum is close to point  2 DX=  1.09D-04 DF=  0.00D+00 DXR=  1.09D-04 DFR=  0.00D+00 which will be used.
 SCF Done:  E(UwB97XD) =  -545.688636821     a.u. after   10 cycles
            Convg  =    0.3529D-08                    75 Fock formations.
              S**2 =  0.7543                  -V/T =  2.0073
 <Sx>= 0.0000 <Sy>= 0.0000 <Sz>= 0.5000 <S**2>= 0.7543 S= 0.5022
 <L.S>=  0.00000000000    
 Annihilation of the first spin contaminant:
 S**2 before annihilation     0.7543,   after     0.7500

 **********************************************************************

            Population analysis using the SCF Density.

 **********************************************************************

 Orbital symmetries:
 Alpha Orbitals:
       Occupied  (A) (A) (A) (A) (A) (A) (A) (A) (A) (A) (A) (A)
                 (A) (A) (A) (A) (A) (A) (A) (A) (A) (A) (A) (A)
                 (A) (A) (A) (A) (A) (A) (A) (A) (A) (A) (A) (A)
                 (A)
       Virtual   (A) (A) (A) (A) (A) (A) (A) (A) (A) (A) (A) (A)
                 (A) (A) (A) (A) (A) (A) (A) (A) (A) (A) (A) (A)
                 (A) (A) (A) (A) (A) (A) (A) (A) (A) (A) (A) (A)
                 (A) (A) (A) (A) (A) (A) (A) (A) (A) (A) (A) (A)
                 (A) (A) (A) (A) (A) (A) (A) (A) (A) (A) (A) (A)
                 (A) (A) (A) (A) (A) (A) (A) (A) (A) (A) (A) (A)
                 (A) (A) (A) (A) (A) (A) (A) (A) (A) (A) (A) (A)
                 (A) (A) (A) (A) (A) (A) (A) (A) (A) (A) (A) (A)
                 (A) (A) (A) (A) (A) (A) (A) (A) (A) (A) (A) (A)
                 (A)
 Beta  Orbitals:
       Occupied  (A) (A) (A) (A) (A) (A) (A) (A) (A) (A) (A) (A)
                 (A) (A) (A) (A) (A) (A) (A) (A) (A) (A) (A) (A)
                 (A) (A) (A) (A) (A) (A) (A) (A) (A) (A) (A) (A)
       Virtual   (A) (A) (A) (A) (A) (A) (A) (A) (A) (A) (A) (A)
                 (A) (A) (A) (A) (A) (A) (A) (A) (A) (A) (A) (A)
                 (A) (A) (A) (A) (A) (A) (A) (A) (A) (A) (A) (A)
                 (A) (A) (A) (A) (A) (A) (A) (A) (A) (A) (A) (A)
                 (A) (A) (A) (A) (A) (A) (A) (A) (A) (A) (A) (A)
                 (A) (A) (A) (A) (A) (A) (A) (A) (A) (A) (A) (A)
                 (A) (A) (A) (A) (A) (A) (A) (A) (A) (A) (A) (A)
                 (A) (A) (A) (A) (A) (A) (A) (A) (A) (A) (A) (A)
                 (A) (A) (A) (A) (A) (A) (A) (A) (A) (A) (A) (A)
                 (A) (A)
 The electronic state is 2-A.
 Alpha  occ. eigenvalues --  -24.97201 -24.96749 -19.54326 -19.50568 -10.57853
 Alpha  occ. eigenvalues --  -10.56125 -10.55385 -10.54438 -10.54216  -1.45247
 Alpha  occ. eigenvalues --   -1.44739  -1.38891  -1.35802  -1.13829  -1.00457
 Alpha  occ. eigenvalues --   -0.98795  -0.96388  -0.87393  -0.84735  -0.83246
 Alpha  occ. eigenvalues --   -0.81091  -0.79300  -0.77294  -0.75622  -0.74129
 Alpha  occ. eigenvalues --   -0.73749  -0.72092  -0.71644  -0.70459  -0.67576
 Alpha  occ. eigenvalues --   -0.66175  -0.63388  -0.62470  -0.60309  -0.59630
 Alpha  occ. eigenvalues --   -0.59032  -0.58489
 Alpha virt. eigenvalues --   -0.07045  -0.04997  -0.01252   0.00315   0.01288
 Alpha virt. eigenvalues --    0.01546   0.03109   0.03885   0.04141   0.05399
 Alpha virt. eigenvalues --    0.08276   0.08402   0.09785   0.10530   0.10950
 Alpha virt. eigenvalues --    0.12936   0.14400   0.15368   0.32527   0.34268
 Alpha virt. eigenvalues --    0.37012   0.37380   0.39944   0.40433   0.40880
 Alpha virt. eigenvalues --    0.43996   0.45276   0.48084   0.48907   0.49967
 Alpha virt. eigenvalues --    0.54025   0.54460   0.55942   0.56491   0.57299
 Alpha virt. eigenvalues --    0.58600   0.59835   0.60746   0.61700   0.63166
 Alpha virt. eigenvalues --    0.63674   0.65580   0.70623   0.72279   0.82370
 Alpha virt. eigenvalues --    0.87540   0.90412   0.91381   0.95229   0.96127
 Alpha virt. eigenvalues --    0.97567   1.02067   1.08061   1.13429   1.15012
 Alpha virt. eigenvalues --    1.16899   1.20320   1.22021   1.28468   1.30314
 Alpha virt. eigenvalues --    1.35906   1.41394   1.41985   1.45983   1.54836
 Alpha virt. eigenvalues --    1.57094   1.59247   1.64264   1.67862   1.69524
 Alpha virt. eigenvalues --    1.77148   1.81224   1.83737   1.84942   1.86451
 Alpha virt. eigenvalues --    1.88222   1.89180   1.94095   1.96231   1.97021
 Alpha virt. eigenvalues --    2.02942   2.03498   2.05577   2.09032   2.28484
 Alpha virt. eigenvalues --    2.34053   2.43780   2.45972   2.47498   2.51708
 Alpha virt. eigenvalues --    2.52715   2.64858   2.72160   2.73975   2.82049
 Alpha virt. eigenvalues --    2.83580   2.90353   3.02837   3.03380   3.04140
 Alpha virt. eigenvalues --    3.04573   3.19912   3.21108   3.21756   3.24603
 Alpha virt. eigenvalues --    3.26341   3.28218   3.68829   3.71172
  Beta  occ. eigenvalues --  -24.97154 -24.96692 -19.53453 -19.49997 -10.57713
  Beta  occ. eigenvalues --  -10.56099 -10.55366 -10.54424 -10.54011  -1.45125
  Beta  occ. eigenvalues --   -1.44605  -1.36800  -1.34455  -1.12944  -0.99406
  Beta  occ. eigenvalues --   -0.98252  -0.96212  -0.86435  -0.84159  -0.82248
  Beta  occ. eigenvalues --   -0.80014  -0.78587  -0.76840  -0.74834  -0.73629
  Beta  occ. eigenvalues --   -0.72737  -0.71413  -0.70126  -0.69649  -0.65638
  Beta  occ. eigenvalues --   -0.65299  -0.61915  -0.60023  -0.59229  -0.58379
  Beta  occ. eigenvalues --   -0.54930
  Beta virt. eigenvalues --   -0.38515  -0.06718  -0.04810  -0.01091   0.00487
  Beta virt. eigenvalues --    0.01636   0.01828   0.03403   0.04097   0.04568
  Beta virt. eigenvalues --    0.05671   0.08459   0.08608   0.10038   0.10878
  Beta virt. eigenvalues --    0.11291   0.13418   0.14695   0.15954   0.32870
  Beta virt. eigenvalues --    0.34684   0.37267   0.37797   0.40134   0.40612
  Beta virt. eigenvalues --    0.41090   0.44513   0.45662   0.48267   0.49216
  Beta virt. eigenvalues --    0.50340   0.54718   0.54994   0.56346   0.56750
  Beta virt. eigenvalues --    0.57525   0.59001   0.60304   0.61150   0.62034
  Beta virt. eigenvalues --    0.63440   0.63961   0.65833   0.70965   0.72623
  Beta virt. eigenvalues --    0.82650   0.88185   0.90991   0.92113   0.95880
  Beta virt. eigenvalues --    0.97037   0.98923   1.02869   1.08512   1.13661
  Beta virt. eigenvalues --    1.15097   1.17232   1.20657   1.22382   1.28677
  Beta virt. eigenvalues --    1.30563   1.36234   1.41895   1.42356   1.46463
  Beta virt. eigenvalues --    1.55416   1.57386   1.59441   1.64892   1.68102
  Beta virt. eigenvalues --    1.69982   1.77560   1.81475   1.83999   1.85315
  Beta virt. eigenvalues --    1.86767   1.88409   1.89517   1.94499   1.96554
  Beta virt. eigenvalues --    1.97352   2.03273   2.03824   2.05973   2.09276
  Beta virt. eigenvalues --    2.29126   2.34715   2.45682   2.47447   2.49077
  Beta virt. eigenvalues --    2.52472   2.53397   2.66140   2.73486   2.75602
  Beta virt. eigenvalues --    2.83993   2.85503   2.91272   3.02966   3.03511
  Beta virt. eigenvalues --    3.04256   3.04719   3.20693   3.21197   3.21927
  Beta virt. eigenvalues --    3.24808   3.27012   3.28408   3.68910   3.71256
          Condensed to atoms (all electrons):
          Atomic-Atomic Spin Densities.
 Mulliken charges and spin densities:
               1          2
     1  O   -0.366303   0.234925
     2  C    0.009250   0.004701
     3  C   -0.456748   0.108435
     4  C    0.012900   0.072272
     5  O   -0.286351   0.360211
     6  C    0.124996   0.019879
     7  F   -0.240028   0.014922
     8  C    0.153423   0.012063
     9  F   -0.245780   0.017169
    10  H    0.383908  -0.007238
    11  H    0.208374   0.043961
    12  H    0.231856   0.081809
    13  H    0.211333   0.023621
    14  H    0.211044   0.014583
    15  H    0.386717  -0.011287
    16  H    0.167374  -0.000433
    17  H    0.148693  -0.000405
    18  H    0.181917   0.013046
    19  H    0.163426  -0.002235
 Sum of Mulliken charges =   1.00000   1.00000
 Mulliken charges and spin densities with hydrogens summed into heavy atoms:
               1          2
     1  O    0.017605   0.227687
     2  C    0.449480   0.130471
     3  C   -0.456748   0.108435
     4  C    0.435277   0.110476
     5  O    0.100366   0.348924
     6  C    0.441063   0.019041
     7  F   -0.240028   0.014922
     8  C    0.498766   0.022874
     9  F   -0.245780   0.017169
 Electronic spatial extent (au):  <R**2>=           1198.5599
 Charge=              1.0000 electrons
 Dipole moment (field-independent basis, Debye):
    X=              1.2419    Y=             -2.5303    Z=             -3.0419  Tot=              4.1471
                          Isotropic Fermi Contact Couplings
        Atom                 a.u.       MegaHertz       Gauss      10(-4) cm-1
     1  O(17)              0.09194     -55.73548     -19.88781     -18.59136
     2  C(13)             -0.02091     -23.51223      -8.38975      -7.84283
     3  C(13)              0.00482       5.42396       1.93540       1.80924
     4  C(13)             -0.00825      -9.27598      -3.30990      -3.09414
     5  O(17)              0.13603     -82.45875     -29.42333     -27.50528
     6  C(13)             -0.00266      -2.98764      -1.06606      -0.99657
     7  F(19)              0.00437      18.39881       6.56515       6.13718
     8  C(13)             -0.00560      -6.29136      -2.24491      -2.09857
     9  F(19)              0.00855      35.98148      12.83909      12.00213
    10  H(1)              -0.00314     -14.05142      -5.01390      -4.68705
    11  H(1)               0.02222      99.33594      35.44553      33.13490
    12  H(1)               0.03801     169.91565      60.63013      56.67776
    13  H(1)               0.01524      68.10997      24.30333      22.71904
    14  H(1)               0.00690      30.84590      11.00658      10.28908
    15  H(1)              -0.00499     -22.32271      -7.96530      -7.44605
    16  H(1)              -0.00019      -0.85504      -0.30510      -0.28521
    17  H(1)               0.00152       6.78690       2.42173       2.26387
    18  H(1)               0.00539      24.07723       8.59135       8.03130
    19  H(1)              -0.00028      -1.26271      -0.45057      -0.42120
 --------------------------------------------------------
       Center         ----  Spin Dipole Couplings  ----
                      3XX-RR        3YY-RR        3ZZ-RR
 --------------------------------------------------------
     1   Atom        0.091335     -0.447353      0.356018
     2   Atom        0.034408     -0.037811      0.003403
     3   Atom       -0.028772     -0.008902      0.037674
     4   Atom       -0.057496     -0.029614      0.087110
     5   Atom       -0.437177     -0.369512      0.806688
     6   Atom       -0.015275      0.005921      0.009354
     7   Atom       -0.031847     -0.042046      0.073894
     8   Atom       -0.010075      0.002657      0.007418
     9   Atom       -0.051280     -0.045859      0.097139
    10   Atom        0.008376     -0.013445      0.005069
    11   Atom       -0.005747      0.007004     -0.001257
    12   Atom       -0.003788      0.005219     -0.001431
    13   Atom        0.011565     -0.004162     -0.007403
    14   Atom       -0.001822      0.007010     -0.005189
    15   Atom       -0.023454      0.047337     -0.023883
    16   Atom        0.001111      0.000724     -0.001835
    17   Atom        0.001398     -0.004388      0.002990
    18   Atom        0.000607     -0.000525     -0.000081
    19   Atom       -0.001598      0.001896     -0.000298
 --------------------------------------------------------
                        XY            XZ            YZ
 --------------------------------------------------------
     1   Atom        0.126099      0.670513      0.155907
     2   Atom        0.017598      0.057913      0.021421
     3   Atom        0.099942      0.109807      0.127512
     4   Atom        0.063649      0.077597      0.109784
     5   Atom        0.318473      0.662945      0.718989
     6   Atom       -0.002523      0.005504     -0.026873
     7   Atom       -0.023362      0.055845     -0.048269
     8   Atom       -0.011256     -0.014591      0.022199
     9   Atom       -0.015391     -0.046549      0.051187
    10   Atom        0.025327     -0.022452     -0.019601
    11   Atom       -0.006889      0.003431     -0.012375
    12   Atom        0.010762      0.006209      0.012814
    13   Atom       -0.010591     -0.013381      0.007530
    14   Atom       -0.009748      0.006156     -0.010189
    15   Atom       -0.036831      0.018900     -0.015690
    16   Atom       -0.003114      0.000912     -0.003506
    17   Atom        0.002218      0.002790     -0.003815
    18   Atom        0.001949      0.000487      0.004651
    19   Atom        0.001210     -0.003875      0.005199
 --------------------------------------------------------


 ---------------------------------------------------------------------------------
              Anisotropic Spin Dipole Couplings in Principal Axis System
 ---------------------------------------------------------------------------------

       Atom             a.u.   MegaHertz   Gauss  10(-4) cm-1        Axes

              Baa    -0.4766    34.483    12.305    11.502 -0.0191  0.9854 -0.1692
     1 O(17)  Bbb    -0.4596    33.258    11.867    11.094  0.7778 -0.0917 -0.6218
              Bcc     0.9362   -67.742   -24.172   -22.596  0.6283  0.1434  0.7647
 
              Baa    -0.0487    -6.533    -2.331    -2.179  0.2534  0.7625 -0.5953
     2 C(13)  Bbb    -0.0361    -4.849    -1.730    -1.617 -0.5881  0.6100  0.5310
              Bcc     0.0848    11.382     4.061     3.797  0.7680  0.2156  0.6030
 
              Baa    -0.1203   -16.138    -5.758    -5.383 -0.5821  0.7811 -0.2259
     3 C(13)  Bbb    -0.1090   -14.633    -5.221    -4.881 -0.6424 -0.2714  0.7167
              Bcc     0.2293    30.771    10.980    10.264  0.4985  0.5623  0.6598
 
              Baa    -0.1099   -14.745    -5.261    -4.918 -0.6766  0.7235 -0.1367
     4 C(13)  Bbb    -0.0827   -11.103    -3.962    -3.703  0.6367  0.4817 -0.6022
              Bcc     0.1926    25.848     9.223     8.622  0.3699  0.4945  0.7866
 
              Baa    -0.7267    52.583    18.763    17.540  0.9094 -0.3457 -0.2311
     5 O(17)  Bbb    -0.7095    51.339    18.319    17.125  0.1985  0.8491 -0.4894
              Bcc     1.4362  -103.922   -37.082   -34.665  0.3654  0.3993  0.8409
 
              Baa    -0.0202    -2.705    -0.965    -0.902 -0.4100  0.6350  0.6547
     6 C(13)  Bbb    -0.0151    -2.021    -0.721    -0.674  0.9051  0.3722  0.2057
              Bcc     0.0352     4.726     1.686     1.576  0.1131 -0.6769  0.7273
 
              Baa    -0.0612   -30.716   -10.960   -10.246  0.4768  0.8715  0.1143
     7 F(19)  Bbb    -0.0549   -27.582    -9.842    -9.200  0.7934 -0.3707 -0.4829
              Bcc     0.1161    58.298    20.802    19.446  0.3784 -0.3209  0.8682
 
              Baa    -0.0187    -2.513    -0.897    -0.838  0.6933 -0.3103  0.6504
     8 C(13)  Bbb    -0.0162    -2.168    -0.774    -0.723  0.6132  0.7282 -0.3062
              Bcc     0.0349     4.681     1.670     1.561 -0.3786  0.6111  0.6951
 
              Baa    -0.0648   -32.557   -11.617   -10.860  0.9519  0.2321  0.2002
     9 F(19)  Bbb    -0.0622   -31.252   -11.151   -10.424 -0.1540  0.9268 -0.3426
              Bcc     0.1271    63.808    22.768    21.284 -0.2651  0.2953  0.9179
 
              Baa    -0.0309   -16.492    -5.885    -5.501 -0.4514  0.8712  0.1929
    10 H(1)   Bbb    -0.0154    -8.213    -2.930    -2.739  0.5998  0.1361  0.7885
              Bcc     0.0463    24.704     8.815     8.240  0.6607  0.4717 -0.5840
 
              Baa    -0.0107    -5.721    -2.042    -1.908  0.4019  0.6240  0.6701
    11 H(1)   Bbb    -0.0076    -4.054    -1.447    -1.352  0.8646 -0.0176 -0.5021
              Bcc     0.0183     9.776     3.488     3.261 -0.3015  0.7812 -0.5466
 
              Baa    -0.0123    -6.556    -2.339    -2.187 -0.4794  0.6908 -0.5412
    12 H(1)   Bbb    -0.0089    -4.764    -1.700    -1.589  0.7577  0.0146 -0.6524
              Bcc     0.0212    11.320     4.039     3.776  0.4428  0.7229  0.5304
 
              Baa    -0.0149    -7.948    -2.836    -2.651  0.3324 -0.2994  0.8944
    13 H(1)   Bbb    -0.0094    -5.024    -1.793    -1.676  0.4995  0.8603  0.1023
              Bcc     0.0243    12.972     4.629     4.327  0.8000 -0.4127 -0.4355
 
              Baa    -0.0110    -5.894    -2.103    -1.966 -0.1479  0.4243  0.8934
    14 H(1)   Bbb    -0.0081    -4.308    -1.537    -1.437  0.8636  0.4956 -0.0924
              Bcc     0.0191    10.202     3.640     3.403 -0.4820  0.7579 -0.4397
 
              Baa    -0.0462   -24.643    -8.793    -8.220  0.8166  0.2330 -0.5281
    15 H(1)   Bbb    -0.0221   -11.782    -4.204    -3.930  0.4129  0.4036  0.8165
              Bcc     0.0683    36.424    12.997    12.150 -0.4034  0.8848 -0.2334
 
              Baa    -0.0045    -2.418    -0.863    -0.807  0.2278  0.6302  0.7423
    16 H(1)   Bbb    -0.0009    -0.477    -0.170    -0.159  0.7753  0.3439 -0.5298
              Bcc     0.0054     2.895     1.033     0.966 -0.5892  0.6961 -0.4102
 
              Baa    -0.0072    -3.832    -1.367    -1.278 -0.3513  0.8409  0.4117
    17 H(1)   Bbb     0.0017     0.897     0.320     0.299  0.8152  0.4910 -0.3072
              Bcc     0.0055     2.935     1.047     0.979  0.4605 -0.2277  0.8580
 
              Baa    -0.0052    -2.759    -0.984    -0.920 -0.1926  0.7335 -0.6519
    18 H(1)   Bbb     0.0001     0.079     0.028     0.026  0.9101 -0.1148 -0.3981
              Bcc     0.0050     2.680     0.956     0.894  0.3668  0.6699  0.6455
 
              Baa    -0.0072    -3.818    -1.362    -1.273  0.5723 -0.4646  0.6757
    19 H(1)   Bbb     0.0007     0.378     0.135     0.126  0.7909  0.5303 -0.3052
              Bcc     0.0064     3.440     1.227     1.147 -0.2165  0.7091  0.6710
 

 ---------------------------------------------------------------------------------

   1 Symmetry operations used in ECPInt.
 ECPInt:  NShTT=    2775 NPrTT=   11173 LenC2=    2741 LenP2D=    8660.
 LDataN:  DoStor=T MaxTD1= 5 Len=  102
 Calling FoFJK, ICntrl=      2127 FMM=F ISym2X=0 I1Cent= 0 IOpClX= 1 NMat=1 NMatS=1 NMatT=0.

 GradGradGradGradGradGradGradGradGradGradGradGradGradGradGradGradGradGrad
 FormGI is forming the generalized inverse of G from B-inverse, IUseBI=4.
 Internal  Forces:  Max     0.031152469 RMS     0.006153475
 Step number   1 out of a maximum of  102
 All quantities printed in internal units (Hartrees-Bohrs-Radians)
 Mixed Optimization -- RFO/linear search
 Second derivative matrix not updated -- first step.
 ITU=  0
     Eigenvalues ---    0.00230   0.00353   0.00395   0.00406   0.01569
     Eigenvalues ---    0.01579   0.04684   0.04742   0.04811   0.04933
     Eigenvalues ---    0.05273   0.05655   0.05671   0.05910   0.05923
     Eigenvalues ---    0.05924   0.06067   0.11107   0.11677   0.13698
     Eigenvalues ---    0.14031   0.14355   0.14513   0.16000   0.16000
     Eigenvalues ---    0.16000   0.16000   0.16000   0.16000   0.22004
     Eigenvalues ---    0.22069   0.22389   0.22391   0.28305   0.29313
     Eigenvalues ---    0.29604   0.29686   0.32833   0.32917   0.33154
     Eigenvalues ---    0.33208   0.33316   0.33335   0.33341   0.33446
     Eigenvalues ---    0.44113   0.44241   0.49440   0.49555   0.54447
     Eigenvalues ---    0.54500
 Linear search not attempted -- first point.
 Iteration  1 RMS(Cart)=  0.04483695 RMS(Int)=  0.00120904
 Iteration  2 RMS(Cart)=  0.00148050 RMS(Int)=  0.00036157
 Iteration  3 RMS(Cart)=  0.00000099 RMS(Int)=  0.00036157
 Variable       Old X    -DE/DX   Delta X   Delta X   Delta X     New X
                                 (Linear)    (Quad)   (Total)
    R1        2.66167  -0.01635   0.00000  -0.03584  -0.03584   2.62583
    R2        1.82327   0.00993   0.00000   0.01780   0.01780   1.84107
    R3        2.89355  -0.01161   0.00000  -0.03784  -0.03784   2.85571
    R4        2.09197   0.00429   0.00000   0.01251   0.01251   2.10447
    R5        2.09345   0.00476   0.00000   0.01391   0.01391   2.10736
    R6        2.91477   0.02368   0.00000   0.07981   0.07981   2.99459
    R7        2.88594   0.00808   0.00000   0.02603   0.02603   2.91197
    R8        2.88761   0.00458   0.00000   0.01479   0.01479   2.90240
    R9        2.66319  -0.03115   0.00000  -0.06850  -0.06850   2.59469
   R10        2.08783   0.00472   0.00000   0.01367   0.01367   2.10150
   R11        2.08275   0.00079   0.00000   0.00228   0.00228   2.08503
   R12        1.82279   0.01273   0.00000   0.02278   0.02278   1.84558
   R13        2.60317  -0.01450   0.00000  -0.02847  -0.02847   2.57470
   R14        2.08468   0.00007   0.00000   0.00021   0.00021   2.08489
   R15        2.08688   0.00090   0.00000   0.00262   0.00262   2.08949
   R16        2.60435  -0.00955   0.00000  -0.01880  -0.01880   2.58554
   R17        2.08457  -0.00035   0.00000  -0.00100  -0.00100   2.08356
   R18        2.08500  -0.00019   0.00000  -0.00054  -0.00054   2.08447
    A1        1.90322   0.00760   0.00000   0.04375   0.04375   1.94697
    A2        1.89875   0.00441   0.00000   0.02457   0.02415   1.92290
    A3        1.94444  -0.00340   0.00000  -0.01062  -0.01173   1.93271
    A4        1.94167  -0.00117   0.00000  -0.01026  -0.01024   1.93143
    A5        1.89985   0.00479   0.00000   0.04142   0.04116   1.94102
    A6        1.89621  -0.00204   0.00000  -0.01326  -0.01300   1.88321
    A7        1.88196  -0.00250   0.00000  -0.03113  -0.03107   1.85089
    A8        1.91045  -0.00425   0.00000  -0.05581  -0.05569   1.85476
    A9        1.91865   0.00273   0.00000   0.03026   0.02924   1.94789
   A10        1.91544   0.00043   0.00000   0.00759   0.00575   1.92119
   A11        1.90655  -0.00063   0.00000  -0.00910  -0.00857   1.89798
   A12        1.91504   0.00011   0.00000  -0.01226  -0.01248   1.90256
   A13        1.89764   0.00165   0.00000   0.03989   0.03938   1.93702
   A14        1.97471   0.00224   0.00000  -0.00150  -0.00188   1.97284
   A15        1.90643  -0.00727   0.00000  -0.05233  -0.05269   1.85375
   A16        1.88586  -0.00313   0.00000  -0.01607  -0.01600   1.86986
   A17        1.95161   0.00134   0.00000  -0.00162  -0.00257   1.94904
   A18        1.86461   0.00010   0.00000   0.00451   0.00440   1.86901
   A19        1.87651   0.00714   0.00000   0.07281   0.07270   1.94921
   A20        1.91316   0.00805   0.00000   0.04636   0.04636   1.95952
   A21        1.93671  -0.01143   0.00000  -0.05057  -0.05063   1.88608
   A22        1.91643   0.00398   0.00000   0.02285   0.02289   1.93932
   A23        1.92788   0.00015   0.00000  -0.00147  -0.00174   1.92614
   A24        1.88687   0.00319   0.00000   0.00981   0.01005   1.89693
   A25        1.87941   0.00464   0.00000   0.01394   0.01354   1.89296
   A26        1.91573  -0.00046   0.00000   0.00565   0.00550   1.92123
   A27        1.93006  -0.00737   0.00000  -0.03097  -0.03121   1.89885
   A28        1.93286  -0.00338   0.00000  -0.02477  -0.02503   1.90783
   A29        1.91342   0.00283   0.00000   0.01799   0.01814   1.93155
   A30        1.88612   0.00438   0.00000   0.01411   0.01344   1.89956
   A31        1.88764   0.00306   0.00000   0.02001   0.02019   1.90783
   A32        1.91299   0.00067   0.00000   0.00471   0.00483   1.91782
    D1       -3.09549   0.00113   0.00000  -0.01963  -0.01976  -3.11525
    D2        1.09326  -0.00557   0.00000  -0.08036  -0.08000   1.01326
    D3       -1.00728   0.00072   0.00000  -0.02655  -0.02678  -1.03406
    D4       -1.07224  -0.00014   0.00000   0.01331   0.01322  -1.05902
    D5        1.02196  -0.00188   0.00000  -0.01395  -0.01445   1.00751
    D6        3.10830   0.00211   0.00000   0.05853   0.05815  -3.11674
    D7        1.04963   0.00133   0.00000   0.04058   0.04119   1.09082
    D8       -3.13936  -0.00042   0.00000   0.01332   0.01351  -3.12585
    D9       -1.05302   0.00357   0.00000   0.08580   0.08612  -0.96690
   D10        3.09466  -0.00013   0.00000   0.01901   0.01919   3.11385
   D11       -1.09433  -0.00187   0.00000  -0.00825  -0.00848  -1.10281
   D12        0.99201   0.00211   0.00000   0.06423   0.06412   1.05613
   D13        3.10483  -0.00017   0.00000  -0.02929  -0.02905   3.07579
   D14        0.91876   0.00205   0.00000   0.01423   0.01397   0.93273
   D15       -1.11764  -0.00077   0.00000  -0.03516  -0.03511  -1.15275
   D16        1.00323  -0.00052   0.00000  -0.02659  -0.02661   0.97662
   D17       -1.18284   0.00170   0.00000   0.01693   0.01641  -1.16643
   D18        3.06395  -0.00112   0.00000  -0.03246  -0.03268   3.03127
   D19       -1.07546  -0.00222   0.00000  -0.06239  -0.06191  -1.13737
   D20        3.02165   0.00000   0.00000  -0.01887  -0.01889   3.00275
   D21        0.98526  -0.00282   0.00000  -0.06826  -0.06798   0.91728
   D22        1.03214   0.00210   0.00000   0.00936   0.00955   1.04170
   D23       -1.05278   0.00278   0.00000   0.01432   0.01480  -1.03798
   D24        3.11518   0.00065   0.00000  -0.00673  -0.00628   3.10890
   D25        3.12871  -0.00184   0.00000  -0.04627  -0.04650   3.08221
   D26        1.04378  -0.00116   0.00000  -0.04131  -0.04126   1.00253
   D27       -1.07144  -0.00329   0.00000  -0.06236  -0.06234  -1.13378
   D28       -1.06502  -0.00109   0.00000  -0.04275  -0.04325  -1.10827
   D29        3.13324  -0.00042   0.00000  -0.03779  -0.03800   3.09524
   D30        1.01802  -0.00255   0.00000  -0.05883  -0.05908   0.95893
   D31        0.96288  -0.00418   0.00000  -0.06751  -0.06738   0.89550
   D32       -1.12747  -0.00267   0.00000  -0.04891  -0.04923  -1.17670
   D33        3.04267  -0.00318   0.00000  -0.05064  -0.05076   2.99192
   D34       -1.13699   0.00072   0.00000   0.00421   0.00454  -1.13245
   D35        3.05585   0.00223   0.00000   0.02281   0.02269   3.07854
   D36        0.94281   0.00172   0.00000   0.02108   0.02116   0.96397
   D37        3.06203   0.00043   0.00000  -0.00152  -0.00128   3.06075
   D38        0.97168   0.00194   0.00000   0.01709   0.01687   0.98856
   D39       -1.14136   0.00143   0.00000   0.01535   0.01534  -1.12601
   D40       -1.58240   0.00154   0.00000   0.02030   0.02034  -1.56206
   D41        0.57911  -0.00538   0.00000  -0.05181  -0.05205   0.52706
   D42        2.62773   0.00404   0.00000   0.03803   0.03824   2.66598
         Item               Value     Threshold  Converged?
 Maximum Force            0.031152     0.000015     NO 
 RMS     Force            0.006153     0.000010     NO 
 Maximum Displacement     0.124467     0.000060     NO 
 RMS     Displacement     0.044787     0.000040     NO 
 GradGradGradGradGradGradGradGradGradGradGradGradGradGradGradGradGradGrad

                    Distance matrix (angstroms):
                    1          2          3          4          5
     1  O    0.000000
     2  C    1.389529   0.000000
     3  C    2.379661   1.511177   0.000000
     4  C    2.828068   2.477227   1.584666   0.000000
     5  O    4.075137   3.719911   2.469662   1.373052   0.000000
     6  C    2.881056   2.524500   1.540948   2.540710   2.917362
     7  F    3.352922   2.857348   2.352211   3.731561   4.198193
     8  C    3.725895   2.497203   1.535883   2.540778   3.006649
     9  F    4.052464   2.760622   2.363279   2.913662   3.567479
    10  H    0.974253   1.968399   3.247982   3.711784   5.003384
    11  H    2.065614   1.113639   2.177537   2.737505   4.035954
    12  H    2.065908   1.115167   2.136160   3.456565   4.575094
    13  H    2.361171   2.602853   2.175283   1.112065   2.061485
    14  H    3.257621   2.723540   2.181475   1.103353   1.998221
    15  H    4.252111   4.145264   2.916426   1.963559   0.976636
    16  H    2.579173   2.790783   2.194680   2.764017   3.209576
    17  H    3.900657   3.481494   2.186941   2.817529   2.645580
    18  H    4.066364   2.795669   2.166703   3.504197   3.986122
    19  H    4.546738   3.456826   2.184418   2.739827   2.662865
                    6          7          8          9         10
     6  C    0.000000
     7  F    1.362471   0.000000
     8  C    2.535445   2.897220   0.000000
     9  F    3.722374   4.097499   1.368210   0.000000
    10  H    3.768046   4.029081   4.457041   4.615147   0.000000
    11  H    3.501825   3.868899   2.723604   2.401736   2.343960
    12  H    2.769472   2.535084   2.714751   3.079292   2.350860
    13  H    2.785195   3.991657   3.472512   3.843476   3.207556
    14  H    3.476096   4.519110   2.677069   2.495698   3.979793
    15  H    2.882107   4.217791   3.680575   4.422378   5.201354
    16  H    1.103275   2.009160   3.500914   4.546796   3.440748
    17  H    1.105712   2.008207   2.748106   4.033169   4.823542
    18  H    2.742269   2.549320   1.102574   2.015392   4.691441
    19  H    2.827218   3.358856   1.103052   2.021602   5.365675
                   11         12         13         14         15
    11  H    0.000000
    12  H    1.780568   0.000000
    13  H    2.972087   3.645267   0.000000
    14  H    2.515621   3.724159   1.833220   0.000000
    15  H    4.640782   4.965485   2.215745   2.810325   0.000000
    16  H    3.821020   3.161274   2.554704   3.791196   2.925835
    17  H    4.341694   3.759488   3.237110   3.770647   2.485650
    18  H    3.142103   2.549928   4.312622   3.715853   4.540571
    19  H    3.705483   3.755051   3.778535   2.939411   3.326187
                   16         17         18         19
    16  H    0.000000
    17  H    1.810364   0.000000
    18  H    3.772436   3.026320   0.000000
    19  H    3.819419   2.588755   1.805453   0.000000
 Framework group  C1[X(C5H10F2O2)]
 Deg. of freedom    51
                         Standard orientation:                         
 ---------------------------------------------------------------------
 Center     Atomic      Atomic             Coordinates (Angstroms)
 Number     Number       Type             X           Y           Z
 ---------------------------------------------------------------------
      1          8           0        1.626222   -0.081869   -1.673022
      2          6           0        0.867594    0.796596   -0.909102
      3          6           0       -0.010286    0.027832    0.051099
      4          6           0       -0.956671   -0.877925   -0.840599
      5          8           0       -1.764568   -1.703999   -0.098861
      6          6           0        0.821093   -0.883532    0.974541
      7          9           0        1.682577   -0.097809    1.679388
      8          6           0       -0.873581    0.999421    0.869436
      9          9           0       -1.511293    1.852785    0.010896
     10          1           0        2.217853    0.393889   -2.283592
     11          1           0        0.261702    1.464917   -1.562120
     12          1           0        1.526885    1.466737   -0.309231
     13          1           0       -0.287748   -1.455569   -1.515551
     14          1           0       -1.618271   -0.199269   -1.405487
     15          1           0       -1.343525   -2.565786    0.085162
     16          1           0        1.406249   -1.613833    0.390188
     17          1           0        0.162473   -1.410086    1.689775
     18          1           0       -0.225044    1.587563    1.539629
     19          1           0       -1.624257    0.449251    1.461484
 ---------------------------------------------------------------------
 Rotational constants (GHZ):           1.5484617           1.2613921           1.2181128
   146 basis functions,   265 primitive gaussians,   155 cartesian basis functions
    37 alpha electrons       36 beta electrons
       nuclear repulsion energy       525.8694620633 Hartrees.
 NAtoms=   19 NActive=   19 NUniq=   19 SFac= 1.00D+00 NAtFMM=   60 NAOKFM=F Big=F
 Nuclear repulsion after empirical dispersion term =      525.8565660673 Hartrees.
   1 Symmetry operations used in ECPInt.
 ECPInt:  NShTT=    2775 NPrTT=   11173 LenC2=    2742 LenP2D=    8665.
 LDataN:  DoStor=T MaxTD1= 4 Len=   56
 Initial guess from the checkpoint file:  "31.chk"
 B after Tr=    -0.000000    0.000000   -0.000000
         Rot=    0.999668   -0.006344   -0.023851   -0.007416 Ang=  -2.95 deg.
 Initial guess <Sx>= 0.0000 <Sy>= 0.0000 <Sz>= 0.5000 <S**2>= 0.7544 S= 0.5022
 ExpMin= 1.22D-01 ExpMax= 2.89D+03 ExpMxC= 4.35D+02 IAcc=3 IRadAn=         5 AccDes= 0.00D+00
 Harris functional with IExCor= 4639 and IRadAn=       5 diagonalized for initial guess.
 HarFok:  IExCor= 4639 AccDes= 0.00D+00 IRadAn=         5 IDoV= 1 UseB2=F ITyADJ=14
 ICtDFT=  3500011 ScaDFX=  1.000000  1.000000  1.000000  1.000000
 FoFCou: FMM=F IPFlag=           0 FMFlag=      100000 FMFlg1=           0
         NFxFlg=           0 DoJE=T BraDBF=F KetDBF=T FulRan=T
         wScrn=  0.000000 ICntrl=       500 IOpCl=  0 I1Cent=   200000004 NGrid=           0
         NMat0=    1 NMatS0=      1 NMatT0=    0 NMatD0=    1 NMtDS0=    0 NMtDT0=    0
 Petite list used in FoFCou.
     Minimum is close to point  4 DX=  9.59D-03 DF= -2.91D-07 DXR=  7.93D-03 DFR=  6.28D-05 which will be used.
     Accept linear search using points  2 and  3.
     Accept linear search using points  1 and  2.
     Minimum is close to point  2 DX= -5.74D-02 DF= -1.66D-06 DXR=  5.51D-02 DFR=  3.57D-03 which will be used.
     Accept linear search using points  1 and  2.
     Accept linear search using points  1 and  2.
     Accept linear search using points  1 and  2.
     Minimum is close to point  2 DX=  6.91D-04 DF= -2.55D-10 DXR=  6.91D-04 DFR=  4.77D-07 which will be used.
     Minimum is close to point  2 DX=  9.92D-04 DF= -1.71D-12 DXR=  9.91D-04 DFR=  1.02D-06 which will be used.
 SCF Done:  E(UwB97XD) =  -545.698346175     a.u. after   12 cycles
            Convg  =    0.1542D-08                    75 Fock formations.
              S**2 =  0.7544                  -V/T =  2.0073
 <Sx>= 0.0000 <Sy>= 0.0000 <Sz>= 0.5000 <S**2>= 0.7544 S= 0.5022
 <L.S>=  0.00000000000    
 Annihilation of the first spin contaminant:
 S**2 before annihilation     0.7544,   after     0.7500
   1 Symmetry operations used in ECPInt.
 ECPInt:  NShTT=    2775 NPrTT=   11173 LenC2=    2742 LenP2D=    8665.
 LDataN:  DoStor=T MaxTD1= 5 Len=  102
 Calling FoFJK, ICntrl=      2127 FMM=F ISym2X=0 I1Cent= 0 IOpClX= 1 NMat=1 NMatS=1 NMatT=0.

 GradGradGradGradGradGradGradGradGradGradGradGradGradGradGradGradGradGrad
 Using GEDIIS/GDIIS optimizer.
 FormGI is forming the generalized inverse of G from B-inverse, IUseBI=4.
 Internal  Forces:  Max     0.017550434 RMS     0.002976547
 Step number   2 out of a maximum of  102
 All quantities printed in internal units (Hartrees-Bohrs-Radians)
 Mixed Optimization -- RFO/linear search
 Trust test= 1.28D+00 RLast= 3.37D-01 DXMaxT set to 5.05D-01
 ITU=  1  0
 Use linear search instead of GDIIS.
     Eigenvalues ---    0.00229   0.00357   0.00395   0.00410   0.01516
     Eigenvalues ---    0.01570   0.03823   0.04776   0.04940   0.05003
     Eigenvalues ---    0.05340   0.05819   0.05840   0.05904   0.05959
     Eigenvalues ---    0.06013   0.06227   0.09716   0.11765   0.13624
     Eigenvalues ---    0.13912   0.14277   0.14505   0.15816   0.16000
     Eigenvalues ---    0.16000   0.16000   0.16000   0.16435   0.21605
     Eigenvalues ---    0.22166   0.22274   0.23228   0.24658   0.29385
     Eigenvalues ---    0.29623   0.30539   0.32788   0.33048   0.33202
     Eigenvalues ---    0.33300   0.33323   0.33335   0.33413   0.33726
     Eigenvalues ---    0.41021   0.44425   0.49393   0.49935   0.54457
     Eigenvalues ---    0.56398
 Quartic linear search produced a step of  0.62144.
 Iteration  1 RMS(Cart)=  0.05691496 RMS(Int)=  0.00266554
 Iteration  2 RMS(Cart)=  0.00280140 RMS(Int)=  0.00087351
 Iteration  3 RMS(Cart)=  0.00000535 RMS(Int)=  0.00087350
 Iteration  4 RMS(Cart)=  0.00000001 RMS(Int)=  0.00087350
 Variable       Old X    -DE/DX   Delta X   Delta X   Delta X     New X
                                 (Linear)    (Quad)   (Total)
    R1        2.62583  -0.00471  -0.02227  -0.00656  -0.02883   2.59700
    R2        1.84107  -0.00130   0.01106  -0.00874   0.00232   1.84339
    R3        2.85571  -0.00307  -0.02352  -0.00510  -0.02861   2.82710
    R4        2.10447  -0.00133   0.00777  -0.01002  -0.00225   2.10223
    R5        2.10736   0.00204   0.00865   0.00566   0.01431   2.12167
    R6        2.99459   0.01755   0.04960   0.07310   0.12270   3.11728
    R7        2.91197  -0.00037   0.01618  -0.00968   0.00650   2.91847
    R8        2.90240  -0.00014   0.00919  -0.00513   0.00406   2.90646
    R9        2.59469  -0.01478  -0.04257  -0.03321  -0.07578   2.51892
   R10        2.10150   0.00018   0.00850  -0.00318   0.00532   2.10682
   R11        2.08503  -0.00065   0.00142  -0.00370  -0.00229   2.08275
   R12        1.84558   0.00062   0.01416  -0.00458   0.00958   1.85515
   R13        2.57470  -0.00218  -0.01769   0.00109  -0.01660   2.55810
   R14        2.08489   0.00002   0.00013   0.00004   0.00017   2.08506
   R15        2.08949  -0.00029   0.00163  -0.00211  -0.00049   2.08900
   R16        2.58554  -0.00292  -0.01168  -0.00400  -0.01568   2.56986
   R17        2.08356   0.00081  -0.00062   0.00410   0.00347   2.08704
   R18        2.08447  -0.00051  -0.00033  -0.00223  -0.00256   2.08190
    A1        1.94697   0.00064   0.02719  -0.00826   0.01893   1.96590
    A2        1.92290  -0.00156   0.01501  -0.01449  -0.00037   1.92253
    A3        1.93271   0.00168  -0.00729   0.04058   0.03187   1.96458
    A4        1.93143   0.00180  -0.00636   0.01537   0.00870   1.94013
    A5        1.94102   0.00136   0.02558   0.00419   0.02911   1.97013
    A6        1.88321  -0.00253  -0.00808  -0.03886  -0.04672   1.83649
    A7        1.85089  -0.00078  -0.01931  -0.00822  -0.02723   1.82366
    A8        1.85476  -0.00300  -0.03461  -0.03215  -0.06613   1.78863
    A9        1.94789   0.00067   0.01817   0.00510   0.02055   1.96845
   A10        1.92119   0.00235   0.00357   0.03853   0.03936   1.96055
   A11        1.89798   0.00062  -0.00533  -0.00691  -0.01162   1.88635
   A12        1.90256  -0.00030  -0.00776  -0.00764  -0.01471   1.88785
   A13        1.93702  -0.00049   0.02448   0.00072   0.02365   1.96067
   A14        1.97284  -0.00029  -0.00117  -0.00692  -0.00812   1.96472
   A15        1.85375  -0.00634  -0.03274  -0.06020  -0.09364   1.76011
   A16        1.86986  -0.00326  -0.00994  -0.03998  -0.05033   1.81953
   A17        1.94904   0.00422  -0.00159   0.05458   0.05041   1.99946
   A18        1.86901   0.00186   0.00273   0.02510   0.02641   1.89542
   A19        1.94921   0.00363   0.04518   0.02415   0.06475   2.01396
   A20        1.95952   0.00243   0.02881   0.00809   0.03690   1.99642
   A21        1.88608  -0.00151  -0.03147   0.00655  -0.02505   1.86104
   A22        1.93932  -0.00087   0.01423  -0.01786  -0.00366   1.93566
   A23        1.92614  -0.00041  -0.00108  -0.00439  -0.00568   1.92046
   A24        1.89693   0.00115   0.00625   0.00750   0.01382   1.91075
   A25        1.89296   0.00107   0.00842   0.00802   0.01610   1.90906
   A26        1.92123   0.00060   0.00342   0.00111   0.00443   1.92566
   A27        1.89885   0.00182  -0.01939   0.02504   0.00544   1.90429
   A28        1.90783  -0.00168  -0.01556  -0.00945  -0.02515   1.88268
   A29        1.93155   0.00090   0.01127   0.00210   0.01340   1.94495
   A30        1.89956   0.00021   0.00835   0.00387   0.01183   1.91138
   A31        1.90783  -0.00088   0.01255  -0.00789   0.00463   1.91246
   A32        1.91782  -0.00036   0.00300  -0.01324  -0.01015   1.90768
    D1       -3.11525  -0.00001  -0.01228  -0.06494  -0.07703   3.09091
    D2        1.01326  -0.00182  -0.04971  -0.08819  -0.13786   0.87540
    D3       -1.03406  -0.00301  -0.01665  -0.11273  -0.12960  -1.16367
    D4       -1.05902  -0.00054   0.00822  -0.01358  -0.00567  -1.06468
    D5        1.00751  -0.00124  -0.00898  -0.03867  -0.04832   0.95918
    D6       -3.11674   0.00029   0.03614  -0.00643   0.02997  -3.08676
    D7        1.09082   0.00145   0.02560   0.03094   0.05691   1.14772
    D8       -3.12585   0.00075   0.00840   0.00584   0.01425  -3.11159
    D9       -0.96690   0.00228   0.05352   0.03809   0.09255  -0.87436
   D10        3.11385  -0.00023   0.01193   0.00046   0.01211   3.12596
   D11       -1.10281  -0.00094  -0.00527  -0.02463  -0.03054  -1.13336
   D12        1.05613   0.00059   0.03985   0.00761   0.04775   1.10388
   D13        3.07579  -0.00073  -0.01805  -0.05357  -0.07126   3.00452
   D14        0.93273  -0.00143   0.00868  -0.07584  -0.06702   0.86571
   D15       -1.15275  -0.00071  -0.02182  -0.05239  -0.07493  -1.22768
   D16        0.97662  -0.00016  -0.01654  -0.03780  -0.05440   0.92222
   D17       -1.16643  -0.00087   0.01020  -0.06006  -0.05015  -1.21659
   D18        3.03127  -0.00015  -0.02031  -0.03662  -0.05807   2.97320
   D19       -1.13737   0.00023  -0.03847  -0.02987  -0.06734  -1.20471
   D20        3.00275  -0.00047  -0.01174  -0.05213  -0.06309   2.93967
   D21        0.91728   0.00025  -0.04225  -0.02868  -0.07100   0.84627
   D22        1.04170   0.00164   0.00594   0.02283   0.02895   1.07064
   D23       -1.03798   0.00169   0.00920   0.02009   0.02963  -1.00835
   D24        3.10890   0.00180  -0.00390   0.03395   0.03041   3.13930
   D25        3.08221  -0.00125  -0.02890  -0.01777  -0.04696   3.03524
   D26        1.00253  -0.00120  -0.02564  -0.02051  -0.04628   0.95624
   D27       -1.13378  -0.00109  -0.03874  -0.00665  -0.04550  -1.17928
   D28       -1.10827  -0.00152  -0.02688  -0.03116  -0.05826  -1.16653
   D29        3.09524  -0.00147  -0.02361  -0.03390  -0.05758   3.03766
   D30        0.95893  -0.00136  -0.03672  -0.02004  -0.05680   0.90213
   D31        0.89550  -0.00177  -0.04187  -0.02406  -0.06621   0.82929
   D32       -1.17670  -0.00211  -0.03059  -0.03793  -0.06904  -1.24574
   D33        2.99192  -0.00115  -0.03154  -0.01663  -0.04852   2.94339
   D34       -1.13245   0.00069   0.00282  -0.00264   0.00042  -1.13203
   D35        3.07854   0.00035   0.01410  -0.01652  -0.00241   3.07613
   D36        0.96397   0.00131   0.01315   0.00478   0.01811   0.98208
   D37        3.06075   0.00041  -0.00080   0.01033   0.00987   3.07062
   D38        0.98856   0.00007   0.01049  -0.00355   0.00704   0.99559
   D39       -1.12601   0.00103   0.00953   0.01775   0.02755  -1.09846
   D40       -1.56206   0.00116   0.01264   0.02817   0.04125  -1.52081
   D41        0.52706  -0.00422  -0.03235  -0.01540  -0.05021   0.47685
   D42        2.66598   0.00414   0.02377   0.06508   0.09087   2.75684
         Item               Value     Threshold  Converged?
 Maximum Force            0.017550     0.000015     NO 
 RMS     Force            0.002977     0.000010     NO 
 Maximum Displacement     0.192162     0.000060     NO 
 RMS     Displacement     0.057375     0.000040     NO 
 GradGradGradGradGradGradGradGradGradGradGradGradGradGradGradGradGradGrad

                    Distance matrix (angstroms):
                    1          2          3          4          5
     1  O    0.000000
     2  C    1.374271   0.000000
     3  C    2.354443   1.496036   0.000000
     4  C    2.766614   2.454782   1.649595   0.000000
     5  O    3.945750   3.658346   2.487131   1.332952   0.000000
     6  C    2.859155   2.532336   1.544388   2.586035   2.908529
     7  F    3.324786   2.859151   2.326842   3.762751   4.198274
     8  C    3.725084   2.520356   1.538034   2.582383   3.055525
     9  F    4.046664   2.770375   2.363102   2.938376   3.614421
    10  H    0.975480   1.967781   3.231046   3.612383   4.843914
    11  H    2.073483   1.112450   2.183991   2.740540   4.013643
    12  H    2.064744   1.122739   2.093023   3.445002   4.528764
    13  H    2.169954   2.454309   2.157846   1.114880   2.062790
    14  H    3.233356   2.694701   2.197963   1.102144   1.982074
    15  H    4.113986   4.081085   2.933825   1.954761   0.981704
    16  H    2.552949   2.790369   2.195138   2.767717   3.130577
    17  H    3.872919   3.479696   2.185615   2.867788   2.670092
    18  H    4.086516   2.840872   2.151217   3.545060   4.026065
    19  H    4.532257   3.470579   2.194967   2.783907   2.745646
                    6          7          8          9         10
     6  C    0.000000
     7  F    1.353688   0.000000
     8  C    2.560522   2.930296   0.000000
     9  F    3.736244   4.110857   1.359910   0.000000
    10  H    3.777829   4.059740   4.474869   4.610722   0.000000
    11  H    3.518409   3.863973   2.742013   2.414140   2.327708
    12  H    2.757002   2.516064   2.729805   3.084024   2.409257
    13  H    2.776451   3.935202   3.455477   3.808929   2.962152
    14  H    3.485652   4.509209   2.639980   2.455152   3.907669
    15  H    2.864735   4.204584   3.727588   4.466862   5.033644
    16  H    1.103366   2.011457   3.516662   4.549924   3.439932
    17  H    1.105453   2.011883   2.749352   4.029133   4.821352
    18  H    2.753657   2.580272   1.104412   2.018038   4.756547
    19  H    2.854534   3.402934   1.101697   2.016691   5.364512
                   11         12         13         14         15
    11  H    0.000000
    12  H    1.767211   0.000000
    13  H    2.864478   3.505452   0.000000
    14  H    2.514886   3.693142   1.873888   0.000000
    15  H    4.618955   4.908990   2.250353   2.826537   0.000000
    16  H    3.831400   3.154111   2.518223   3.789523   2.829110
    17  H    4.349845   3.740542   3.277413   3.770853   2.517563
    18  H    3.172724   2.589537   4.280309   3.685576   4.573701
    19  H    3.720651   3.766044   3.797850   2.897705   3.407447
                   16         17         18         19
    16  H    0.000000
    17  H    1.813024   0.000000
    18  H    3.788820   3.006029   0.000000
    19  H    3.830354   2.596886   1.799395   0.000000
 Framework group  C1[X(C5H10F2O2)]
 Deg. of freedom    51
                         Standard orientation:                         
 ---------------------------------------------------------------------
 Center     Atomic      Atomic             Coordinates (Angstroms)
 Number     Number       Type             X           Y           Z
 ---------------------------------------------------------------------
      1          8           0        1.512737   -0.504360   -1.641795
      2          6           0        0.750320    0.528324   -1.150973
      3          6           0        0.001828    0.083430    0.065559
      4          6           0       -0.934775   -1.141604   -0.520298
      5          8           0       -1.574612   -1.802632    0.444281
      6          6           0        0.926330   -0.499763    1.156575
      7          9           0        1.771915    0.493191    1.519205
      8          6           0       -0.928776    1.179127    0.612344
      9          9           0       -1.646176    1.707412   -0.415083
     10          1           0        1.982322   -0.266934   -2.463184
     11          1           0        0.089503    0.976599   -1.925515
     12          1           0        1.395464    1.379673   -0.805233
     13          1           0       -0.173489   -1.743990   -1.068504
     14          1           0       -1.680841   -0.633946   -1.153063
     15          1           0       -1.060600   -2.539127    0.840652
     16          1           0        1.506755   -1.352967    0.765980
     17          1           0        0.328571   -0.810864    2.032890
     18          1           0       -0.298023    1.965004    1.064310
     19          1           0       -1.615866    0.779967    1.375439
 ---------------------------------------------------------------------
 Rotational constants (GHZ):           1.5402308           1.2795461           1.2148274
   146 basis functions,   265 primitive gaussians,   155 cartesian basis functions
    37 alpha electrons       36 beta electrons
       nuclear repulsion energy       526.7664581984 Hartrees.
 NAtoms=   19 NActive=   19 NUniq=   19 SFac= 1.00D+00 NAtFMM=   60 NAOKFM=F Big=F
 Nuclear repulsion after empirical dispersion term =      526.7535308575 Hartrees.
   1 Symmetry operations used in ECPInt.
 ECPInt:  NShTT=    2775 NPrTT=   11173 LenC2=    2744 LenP2D=    8673.
 LDataN:  DoStor=T MaxTD1= 4 Len=   56
 Initial guess from the checkpoint file:  "31.chk"
 B after Tr=    -0.000000   -0.000000    0.000000
         Rot=    0.988569    0.144272   -0.026830   -0.034600 Ang=  17.34 deg.
 Initial guess <Sx>= 0.0000 <Sy>= 0.0000 <Sz>= 0.5000 <S**2>= 0.7545 S= 0.5023
 ExpMin= 1.22D-01 ExpMax= 2.89D+03 ExpMxC= 4.35D+02 IAcc=3 IRadAn=         5 AccDes= 0.00D+00
 Harris functional with IExCor= 4639 and IRadAn=       5 diagonalized for initial guess.
 HarFok:  IExCor= 4639 AccDes= 0.00D+00 IRadAn=         5 IDoV= 1 UseB2=F ITyADJ=14
 ICtDFT=  3500011 ScaDFX=  1.000000  1.000000  1.000000  1.000000
 FoFCou: FMM=F IPFlag=           0 FMFlag=      100000 FMFlg1=           0
         NFxFlg=           0 DoJE=T BraDBF=F KetDBF=T FulRan=T
         wScrn=  0.000000 ICntrl=       500 IOpCl=  0 I1Cent=   200000004 NGrid=           0
         NMat0=    1 NMatS0=      1 NMatT0=    0 NMatD0=    1 NMtDS0=    0 NMtDT0=    0
 Petite list used in FoFCou.
     Minimum is close to point  4 DX=  6.89D-02 DF= -1.83D-05 DXR=  5.43D-02 DFR=  2.96D-03 which will be used.
     Accept linear search using points  2 and  3.
     Accept linear search using points  1 and  2.
     Minimum is close to point  2 DX= -2.82D-03 DF= -5.30D-09 DXR=  2.57D-03 DFR=  7.90D-06 which will be used.
     Accept linear search using points  1 and  2.
     Minimum is close to point  2 DX=  9.56D-02 DF= -1.81D-06 DXR=  8.73D-02 DFR=  7.68D-03 which will be used.
     Accept linear search using points  1 and  2.
     Minimum is close to point  2 DX= -8.98D-04 DF= -1.34D-10 DXR=  8.99D-04 DFR=  8.08D-07 which will be used.
     Accept linear search using points  1 and  2.
     Minimum is close to point  2 DX= -8.22D-02 DF= -1.03D-06 DXR=  8.96D-02 DFR=  8.09D-03 which will be used.
     Accept linear search using points  1 and  2.
     Accept linear search using points  1 and  2.
     Minimum is close to point  2 DX=  8.34D-02 DF= -3.86D-07 DXR=  7.70D-02 DFR=  5.96D-03 which will be used.
     Accept linear search using points  1 and  2.
     Minimum is close to point  2 DX= -3.67D-02 DF= -8.21D-08 DXR=  3.81D-02 DFR=  1.45D-03 which will be used.
     Accept linear search using points  1 and  2.
     Minimum is close to point  2 DX=  6.65D-03 DF= -2.52D-08 DXR=  6.60D-03 DFR=  4.36D-05 which will be used.
     Minimum is close to point  2 DX=  3.75D-03 DF= -3.76D-11 DXR=  3.73D-03 DFR=  1.39D-05 which will be used.
 SCF Done:  E(UwB97XD) =  -545.703724509     a.u. after   17 cycles
            Convg  =    0.2108D-08                    80 Fock formations.
              S**2 =  0.7544                  -V/T =  2.0072
 <Sx>= 0.0000 <Sy>= 0.0000 <Sz>= 0.5000 <S**2>= 0.7544 S= 0.5022
 <L.S>=  0.00000000000    
 Annihilation of the first spin contaminant:
 S**2 before annihilation     0.7544,   after     0.7500
   1 Symmetry operations used in ECPInt.
 ECPInt:  NShTT=    2775 NPrTT=   11173 LenC2=    2744 LenP2D=    8673.
 LDataN:  DoStor=T MaxTD1= 5 Len=  102
 Calling FoFJK, ICntrl=      2127 FMM=F ISym2X=0 I1Cent= 0 IOpClX= 1 NMat=1 NMatS=1 NMatT=0.

 GradGradGradGradGradGradGradGradGradGradGradGradGradGradGradGradGradGrad
 Using GEDIIS/GDIIS optimizer.
 FormGI is forming the generalized inverse of G from B-inverse, IUseBI=4.
 Internal  Forces:  Max     0.013347650 RMS     0.002318516
 Step number   3 out of a maximum of  102
 All quantities printed in internal units (Hartrees-Bohrs-Radians)
 Mixed Optimization -- RFO/linear search
 Trust test= 1.09D+00 RLast= 4.48D-01 DXMaxT set to 8.49D-01
 ITU=  1  1  0
 Use linear search instead of GDIIS.
     Eigenvalues ---    0.00233   0.00357   0.00394   0.00409   0.01431
     Eigenvalues ---    0.01570   0.03347   0.04682   0.05175   0.05268
     Eigenvalues ---    0.05714   0.05856   0.05930   0.06084   0.06121
     Eigenvalues ---    0.06171   0.06476   0.08460   0.11577   0.13551
     Eigenvalues ---    0.13850   0.14014   0.14703   0.15891   0.16000
     Eigenvalues ---    0.16000   0.16000   0.16039   0.16430   0.20367
     Eigenvalues ---    0.22165   0.22491   0.22850   0.24014   0.29519
     Eigenvalues ---    0.29895   0.31177   0.32869   0.33050   0.33205
     Eigenvalues ---    0.33318   0.33334   0.33335   0.33423   0.33677
     Eigenvalues ---    0.43773   0.46350   0.49399   0.50640   0.54457
     Eigenvalues ---    0.57837
 Quartic linear search produced a step of  0.22091.
 Iteration  1 RMS(Cart)=  0.03262621 RMS(Int)=  0.00084765
 Iteration  2 RMS(Cart)=  0.00082128 RMS(Int)=  0.00038356
 Iteration  3 RMS(Cart)=  0.00000033 RMS(Int)=  0.00038356
 Variable       Old X    -DE/DX   Delta X   Delta X   Delta X     New X
                                 (Linear)    (Quad)   (Total)
    R1        2.59700   0.00611  -0.00637   0.01111   0.00474   2.60174
    R2        1.84339  -0.00430   0.00051  -0.00612  -0.00560   1.83779
    R3        2.82710   0.00800  -0.00632   0.02683   0.02051   2.84760
    R4        2.10223  -0.00261  -0.00050  -0.00692  -0.00741   2.09481
    R5        2.12167  -0.00094   0.00316  -0.00151   0.00165   2.12332
    R6        3.11728   0.01335   0.02711   0.06456   0.09166   3.20895
    R7        2.91847  -0.00266   0.00144  -0.00599  -0.00456   2.91391
    R8        2.90646  -0.00573   0.00090  -0.02043  -0.01953   2.88694
    R9        2.51892   0.00508  -0.01674   0.00458  -0.01216   2.50676
   R10        2.10682  -0.00117   0.00117  -0.00185  -0.00068   2.10614
   R11        2.08275  -0.00061  -0.00050  -0.00160  -0.00211   2.08064
   R12        1.85515  -0.00407   0.00212  -0.00502  -0.00291   1.85225
   R13        2.55810   0.00429  -0.00367   0.00572   0.00205   2.56015
   R14        2.08506  -0.00004   0.00004  -0.00010  -0.00007   2.08499
   R15        2.08900  -0.00037  -0.00011  -0.00079  -0.00090   2.08811
   R16        2.56986   0.00102  -0.00346  -0.00034  -0.00381   2.56605
   R17        2.08704   0.00096   0.00077   0.00306   0.00382   2.09086
   R18        2.08190   0.00053  -0.00057   0.00193   0.00137   2.08327
    A1        1.96590  -0.00158   0.00418  -0.00440  -0.00022   1.96567
    A2        1.92253   0.00073  -0.00008   0.00601   0.00577   1.92830
    A3        1.96458   0.00100   0.00704   0.00717   0.01401   1.97859
    A4        1.94013   0.00062   0.00192   0.00366   0.00546   1.94560
    A5        1.97013  -0.00197   0.00643  -0.01185  -0.00563   1.96450
    A6        1.83649  -0.00212  -0.01032  -0.02023  -0.03061   1.80588
    A7        1.82366   0.00158  -0.00601   0.01381   0.00763   1.83129
    A8        1.78863   0.00045  -0.01461   0.00414  -0.01016   1.77847
    A9        1.96845  -0.00010   0.00454   0.00826   0.01213   1.98058
   A10        1.96055   0.00084   0.00869   0.01109   0.01924   1.97979
   A11        1.88635  -0.00002  -0.00257  -0.00739  -0.00992   1.87644
   A12        1.88785  -0.00082  -0.00325  -0.01403  -0.01703   1.87081
   A13        1.96067  -0.00034   0.00522  -0.00351   0.00103   1.96170
   A14        1.96472  -0.00016  -0.00179  -0.00075  -0.00240   1.96233
   A15        1.76011  -0.00229  -0.02069  -0.02736  -0.04827   1.71184
   A16        1.81953  -0.00143  -0.01112  -0.01581  -0.02712   1.79242
   A17        1.99946   0.00174   0.01114   0.01469   0.02476   2.02422
   A18        1.89542   0.00114   0.00583   0.01296   0.01806   1.91348
   A19        2.01396   0.00041   0.01430   0.01003   0.02176   2.03572
   A20        1.99642  -0.00147   0.00815  -0.00426   0.00389   2.00031
   A21        1.86104   0.00357  -0.00553   0.01057   0.00501   1.86605
   A22        1.93566  -0.00081  -0.00081  -0.00055  -0.00136   1.93430
   A23        1.92046   0.00061  -0.00126   0.00593   0.00466   1.92512
   A24        1.91075  -0.00136   0.00305  -0.00662  -0.00359   1.90716
   A25        1.90906  -0.00181   0.00356  -0.00827  -0.00475   1.90430
   A26        1.92566  -0.00013   0.00098  -0.00095   0.00002   1.92568
   A27        1.90429   0.00302   0.00120   0.01119   0.01237   1.91666
   A28        1.88268   0.00016  -0.00556  -0.00196  -0.00753   1.87515
   A29        1.94495  -0.00117   0.00296  -0.00634  -0.00343   1.94152
   A30        1.91138  -0.00108   0.00261  -0.00064   0.00199   1.91338
   A31        1.91246  -0.00073   0.00102   0.00252   0.00349   1.91595
   A32        1.90768  -0.00019  -0.00224  -0.00478  -0.00709   1.90059
    D1        3.09091  -0.00089  -0.01702  -0.05066  -0.06755   3.02336
    D2        0.87540   0.00038  -0.03045  -0.04521  -0.07570   0.79970
    D3       -1.16367  -0.00267  -0.02863  -0.06965  -0.09836  -1.26203
    D4       -1.06468  -0.00025  -0.00125   0.00940   0.00811  -1.05658
    D5        0.95918  -0.00007  -0.01068   0.00682  -0.00401   0.95517
    D6       -3.08676   0.00009   0.00662   0.01853   0.02539  -3.06137
    D7        1.14772   0.00014   0.01257   0.01460   0.02711   1.17483
    D8       -3.11159   0.00033   0.00315   0.01202   0.01498  -3.09661
    D9       -0.87436   0.00048   0.02044   0.02372   0.04439  -0.82997
   D10        3.12596  -0.00015   0.00268   0.01363   0.01625  -3.14097
   D11       -1.13336   0.00003  -0.00675   0.01105   0.00413  -1.12923
   D12        1.10388   0.00019   0.01055   0.02276   0.03353   1.13742
   D13        3.00452  -0.00044  -0.01574  -0.03132  -0.04696   2.95756
   D14        0.86571  -0.00103  -0.01480  -0.03159  -0.04615   0.81956
   D15       -1.22768  -0.00002  -0.01655  -0.02572  -0.04276  -1.27044
   D16        0.92222  -0.00053  -0.01202  -0.03956  -0.05149   0.87073
   D17       -1.21659  -0.00112  -0.01108  -0.03983  -0.05068  -1.26727
   D18        2.97320  -0.00012  -0.01283  -0.03396  -0.04729   2.92591
   D19       -1.20471   0.00038  -0.01488  -0.02272  -0.03733  -1.24204
   D20        2.93967  -0.00021  -0.01394  -0.02299  -0.03653   2.90314
   D21        0.84627   0.00079  -0.01569  -0.01712  -0.03314   0.81314
   D22        1.07064  -0.00014   0.00639  -0.02578  -0.01940   1.05124
   D23       -1.00835  -0.00021   0.00655  -0.02387  -0.01734  -1.02569
   D24        3.13930   0.00008   0.00672  -0.02635  -0.01964   3.11967
   D25        3.03524   0.00033  -0.01038  -0.02078  -0.03120   3.00404
   D26        0.95624   0.00026  -0.01022  -0.01888  -0.02914   0.92710
   D27       -1.17928   0.00055  -0.01005  -0.02136  -0.03144  -1.21072
   D28       -1.16653  -0.00091  -0.01287  -0.04511  -0.05794  -1.22447
   D29        3.03766  -0.00098  -0.01272  -0.04320  -0.05588   2.98178
   D30        0.90213  -0.00069  -0.01255  -0.04569  -0.05818   0.84395
   D31        0.82929   0.00002  -0.01463  -0.02067  -0.03544   0.79385
   D32       -1.24574  -0.00047  -0.01525  -0.02504  -0.04039  -1.28613
   D33        2.94339   0.00037  -0.01072  -0.01411  -0.02496   2.91843
   D34       -1.13203  -0.00048   0.00009  -0.02333  -0.02319  -1.15522
   D35        3.07613  -0.00097  -0.00053  -0.02770  -0.02814   3.04800
   D36        0.98208  -0.00013   0.00400  -0.01677  -0.01271   0.96937
   D37        3.07062   0.00029   0.00218  -0.00287  -0.00065   3.06996
   D38        0.99559  -0.00019   0.00155  -0.00724  -0.00560   0.98999
   D39       -1.09846   0.00064   0.00609   0.00369   0.00983  -1.08863
   D40       -1.52081   0.00046   0.00911   0.01375   0.02307  -1.49774
   D41        0.47685  -0.00143  -0.01109  -0.01215  -0.02441   0.45244
   D42        2.75684   0.00160   0.02007   0.02551   0.04654   2.80338
         Item               Value     Threshold  Converged?
 Maximum Force            0.013348     0.000015     NO 
 RMS     Force            0.002319     0.000010     NO 
 Maximum Displacement     0.099180     0.000060     NO 
 RMS     Displacement     0.032565     0.000040     NO 
[...]
 5,0.01387413,0.53909385,-0.00234143,-0.01172804,0.01244443,0.00741542,
 0.00379564,-0.00213041,-0.02939494,0.02401704,-0.02817611,0.13492400,0
 .52924279,0.00411160,0.00140327,-0.00366497,0.00580842,-0.00430410,-0.
 00903865,0.00396433,-0.02063270,-0.00998469,-0.16380761,0.19102586,0.4
 3242169,-0.00247096,-0.00057846,0.00141369,-0.00437531,0.00483024,-0.0
 0025229,-0.01613288,0.01969074,-0.00144661,-0.18443997,0.06572353,0.11
 956619,0.34444626,0.00167596,0.00571717,-0.00460951,0.00626811,-0.0115
 6766,0.00324871,0.01566289,-0.02259830,0.00285697,0.10777098,-0.232016
 78,-0.16555188,0.05824953,0.63020733,-0.00031721,0.00192906,-0.0001325
 2,0.00116535,-0.00353228,0.00538700,0.00618394,0.00242352,0.00244460,0
 .10128117,-0.12158245,-0.16427204,-0.11654114,0.21140653,0.19562006,-0
 .00139461,-0.00284244,0.00127205,0.01768683,0.01695724,0.00850671,-0.0
 9425271,-0.04112149,-0.00363234,-0.01120409,-0.00130761,-0.01348291,-0
 .00082039,-0.00131673,-0.00062856,0.56196752,0.00014978,-0.00412429,0.
 00200779,-0.00809256,-0.00594813,-0.02085233,-0.03931509,-0.12102568,-
 0.04368648,0.00247155,-0.00636218,0.01090390,0.00183830,-0.00279804,-0
 .00233416,-0.00988187,0.56523328,-0.00214068,-0.00082200,0.00129078,-0
 .00833278,-0.01619918,-0.01414286,-0.00435488,-0.04862073,-0.12000051,
 -0.01211219,-0.00172329,-0.00782015,0.00076374,-0.00208940,-0.00378186
 ,-0.09457723,-0.03242469,0.55710984,0.00151243,0.00232488,-0.00181141,
 0.00152572,-0.00349415,0.00502598,-0.02817154,0.00809034,-0.02792720,-
 0.00077410,0.00270390,-0.00145952,0.00061455,-0.00112747,-0.00058456,-
 0.17953776,0.10189240,-0.07597767,0.22218887,-0.00036023,0.00079574,-0
 .00002284,0.00136653,-0.00109706,-0.00113734,-0.00105996,0.01150675,0.
 00101889,-0.00147030,-0.00055464,-0.00314750,-0.00043335,0.00148994,0.
 00116635,0.08418865,-0.13944941,0.06090621,-0.12896273,0.15249486,0.00
 090814,0.00203163,-0.00157782,0.00276645,-0.00363294,0.00394665,-0.031
 07742,0.00980630,-0.02335826,-0.00032074,0.00135065,-0.00323539,0.0003
 4450,-0.00007922,0.00175442,-0.07767269,0.07488674,-0.12784185,0.12673
 788,-0.09200335,0.14664978,-0.00119370,0.00741068,-0.00146929,-0.00906
 329,-0.02060950,0.02260182,-0.11348411,-0.03387500,0.04777248,-0.00600
 316,-0.00053996,-0.00009765,-0.00054452,0.00357086,-0.00076069,-0.0076
 9944,-0.01563856,-0.00224167,0.00226173,-0.00055635,0.00178967,0.55896
 901,0.00417043,-0.00460075,-0.00614128,-0.00039123,0.02290258,-0.00068
 424,-0.04048558,-0.11994658,0.03236470,0.00178329,-0.01298326,0.013536
 83,-0.00184155,-0.00107548,-0.00047806,-0.01519833,-0.00948151,0.00119
 460,0.00021672,-0.00182255,0.00043923,-0.06011744,0.53161092,0.0027130
 0,0.00254457,-0.00752114,0.02342647,0.00245836,-0.00528798,0.04453345,
 0.01972706,-0.10333842,-0.00404488,0.01577555,-0.00858293,0.00118037,0
 .00196864,-0.00107181,-0.01183895,-0.02184076,0.01701281,0.00163384,0.
 00393821,-0.00018125,-0.00163110,0.03769585,0.54593284,-0.00019444,-0.
 00097740,-0.00006335,0.00059701,0.00043429,-0.00073974,-0.01663450,-0.
 02753015,-0.02361382,-0.00040115,0.00225547,-0.00242751,0.00072189,-0.
 00129560,-0.00016821,-0.00167420,-0.00253250,0.00608309,-0.00039413,0.
 00025397,-0.00031643,-0.10606733,-0.06030550,-0.06167423,0.11719991,-0
 .00019873,-0.00010389,0.00152065,0.00024531,0.00163911,-0.00143966,-0.
 02353286,-0.03190061,-0.02693591,-0.00077103,-0.00036262,-0.00174007,-
 0.00005587,-0.00028010,0.00031586,-0.00221226,-0.00285337,0.00773372,-
 0.00146902,0.00119442,-0.00111030,-0.05563034,-0.16730507,-0.10508731,
 0.10232843,0.20994268,0.00038965,-0.00034804,0.00302882,-0.00223160,0.
 00189117,-0.00431260,-0.00383516,0.00201094,0.00543954,0.00157404,0.00
 040598,-0.00278464,0.00032546,-0.00009505,0.00115206,0.00095312,0.0031
 1410,-0.00036161,-0.00059056,-0.00092831,0.00049830,-0.05650931,-0.106
 32936,-0.16935771,0.08874472,0.14845048,0.20278788,-0.15184616,0.08219
 919,0.19296437,-0.01221298,0.00832655,0.01273565,-0.00443031,-0.002616
 66,0.00353234,-0.00038501,0.00005880,0.00010959,0.00034706,-0.00074482
 ,-0.00030193,0.00055635,-0.00027473,0.00043423,-0.00046028,0.00010788,
 -0.00037966,0.00103923,0.00095169,0.00057852,0.00022191,0.00010032,-0.
 00043800,0.16608733,0.11719376,-0.12340006,-0.16318991,-0.02212931,0.0
 1019654,0.03085844,-0.00193984,-0.00502879,0.00124101,0.00052737,0.000
 07630,0.00029086,0.00008729,0.00009969,-0.00005418,0.00033384,-0.00055
 308,-0.00031735,-0.00002633,0.00012983,-0.00003270,-0.00118442,0.00115
 915,0.00095286,0.00020457,-0.00009816,-0.00023087,-0.09098110,0.116948
 85,0.20205855,-0.12663367,-0.26659105,0.00565227,-0.00343840,-0.019501
 36,-0.00372370,0.00682301,-0.00083187,0.00263977,-0.00595336,0.0027962
 9,-0.00165068,0.00261987,0.00029521,-0.00076021,-0.00111974,0.00002792
 ,0.00085503,-0.00001325,0.00096795,0.00336063,-0.00122377,0.00226642,-
 0.00042531,-0.00040647,-0.00079352,-0.20955456,0.13071371,0.27900116,-
 0.01068432,-0.01496472,-0.00452877,-0.11202434,-0.07894665,-0.08095848
 ,0.01477260,0.01178096,0.01483914,-0.00251672,0.00335716,0.00003642,0.
 00071765,-0.00157837,-0.00089516,-0.00436494,0.00242752,0.00213493,-0.
 00031662,-0.00072348,-0.00109423,-0.00137067,0.00128216,-0.00152082,-0
 .00232306,-0.00118622,0.00162584,0.00042956,-0.00110131,-0.00015057,0.
 12352457,-0.02008891,-0.02201413,-0.00594097,-0.07604007,-0.13065824,-
 0.09357947,-0.00355719,-0.00859703,-0.01503300,0.00187570,-0.00225556,
 -0.00030218,-0.00089982,0.00221961,0.00120410,0.00260250,-0.00010385,-
 0.00117951,-0.00015286,0.00080889,0.00074913,0.00116914,-0.00136116,0.
 00260016,-0.00130638,-0.00082668,0.00092092,0.00156840,0.00007418,-0.0
 0079027,0.08890336,0.15325957,0.01413633,0.01832098,0.01558184,-0.0821
 0065,-0.09881546,-0.16487185,-0.01261518,-0.00739459,-0.01226003,0.000
 20125,-0.00138672,0.00036887,-0.00035707,0.00117215,0.00040468,0.00330
 081,-0.00171632,-0.00152801,0.00081285,-0.00009116,0.00074576,-0.00073
 704,-0.00230387,-0.00181974,0.00063955,0.00153790,0.00160716,-0.000376
 27,-0.00020430,0.00204543,0.08384756,0.10145408,0.16952401,0.01179827,
 -0.01736315,0.01519923,-0.13259036,0.08271701,-0.08611828,-0.01482852,
 0.01066791,-0.00450870,-0.00317012,0.00543214,-0.00235168,0.00059454,-
 0.00120657,0.00011137,0.00016912,0.00094376,0.00046063,-0.00035125,-0.
 00133001,-0.00140554,0.00024445,0.00063907,-0.00091604,0.00013273,-0.0
 0008857,0.00034680,0.00104479,-0.00027535,0.00100631,-0.00722948,0.008
 23025,-0.00658166,0.14438302,0.00324354,-0.02206824,0.01959167,0.07900
 670,-0.10984888,0.07807364,0.01755494,-0.01307626,-0.00054418,0.001347
 06,-0.00073704,-0.00003258,-0.00034091,0.00088039,0.00062050,0.0021087
 0,-0.00052835,0.00007168,-0.00152412,0.00134738,-0.00050190,-0.0021591
 4,0.00003315,0.00234930,0.00048376,-0.00079541,-0.00059753,0.00070720,
 -0.00033649,-0.00045718,-0.01021407,0.00964367,-0.01010641,-0.08723473
 ,0.13426638,0.00033257,0.02303373,-0.01520873,-0.07774306,0.06226008,-
 0.10429125,0.01224671,-0.01185453,0.00541052,-0.00236175,0.00078809,0.
 00319015,0.00054142,-0.00117416,-0.00195366,0.00160586,0.00171101,0.00
 012820,-0.00288937,-0.00045845,-0.00402148,-0.00273852,0.00170115,-0.0
 0351224,0.00007166,-0.00005362,0.00120450,-0.00043776,0.00082961,0.001
 38031,-0.01522111,0.01163235,-0.00936536,0.08222150,-0.08734116,0.1251
 5619,-0.00064616,-0.00328735,0.00031026,-0.00108997,0.01202764,-0.0094
 1259,-0.00334355,-0.00231314,-0.00015743,-0.17761834,-0.07459632,0.101
 28561,-0.00498231,-0.00189393,0.02309098,0.00073761,0.00373552,0.00025
 404,-0.00084738,-0.00018452,-0.00103020,0.00216361,0.00028788,-0.00051
 785,0.00015706,0.00021762,0.00017844,-0.00023140,-0.00089100,0.0015818
 6,0.00042005,-0.00157728,-0.00000623,-0.00082971,-0.00172501,0.0029897
 5,0.19173524,-0.00159999,0.00138687,-0.00099504,0.00113489,-0.00620955
 ,0.00506663,0.00062632,-0.00989905,0.01127936,-0.09549647,-0.09459809,
 0.05221885,0.02784736,0.00694204,-0.02399899,-0.00039275,0.00111382,-0
 .00075334,-0.00001117,-0.00026645,-0.00047013,-0.00091839,-0.00036837,
 -0.00111162,0.00069090,0.00012491,0.00102489,0.00019288,0.00030538,-0.
 00055058,-0.00029598,0.00021587,-0.00007326,-0.00046012,0.00033279,-0.
 00077144,0.07392710,0.09901302,0.00150191,-0.00251358,-0.00139200,-0.0
 0184163,0.00376692,-0.00126833,0.00064520,0.01358089,-0.01142167,0.116
 46483,0.04085784,-0.13505291,0.01320879,0.00084578,-0.00350174,0.00056
 409,0.00085114,-0.00061315,0.00072789,-0.00056980,0.00088534,-0.000467
 66,0.00063530,-0.00115914,0.00026304,-0.00062416,0.00021816,0.00066501
 ,-0.00079566,-0.00025738,0.00054687,-0.00048612,-0.00019451,0.00093481
 ,0.00005645,0.00036454,-0.12336253,-0.05325662,0.14271273,-0.00045011,
 0.00075194,0.00072837,-0.00040177,-0.00120859,0.00029013,-0.01177332,-
 0.00177038,-0.01002427,-0.16806775,-0.14322268,-0.05844696,0.01560918,
 0.02553093,0.01059614,-0.00061328,0.00074561,-0.00040698,-0.00027041,0
 .00005726,-0.00054858,0.00117824,-0.00154004,0.00086392,-0.00008091,-0
 .00014089,0.00099587,-0.00024407,0.00014567,-0.00032673,-0.00045811,0.
 00079000,0.00028345,0.00054033,0.00007081,-0.00019865,-0.00300942,-0.0
 0758788,-0.00931670,0.16834189,0.00028824,0.00229532,-0.00265191,0.003
 11879,-0.00465803,0.00309150,0.00619954,-0.00338200,0.00659001,-0.1229
 6843,-0.16703145,-0.07389773,-0.00485219,-0.02850411,-0.01036338,0.000
 73572,0.00122011,0.00074110,-0.00044331,0.00008235,-0.00021040,0.00371
 038,0.00120421,0.00412385,-0.00122845,-0.00073767,-0.00175858,-0.00001
 130,0.00004060,0.00122227,0.00004276,0.00049496,0.00036541,-0.00075401
 ,0.00046143,-0.00085000,-0.00593255,-0.00080900,-0.00332305,0.12394960
 ,0.19806823,0.00038191,-0.00266569,0.00127856,-0.00136621,0.00385025,-
 0.00157946,-0.01109426,0.00233082,-0.00880658,-0.05084671,-0.08056861,
 -0.08459498,-0.01238465,-0.01519071,-0.00791594,-0.00090984,-0.0002152
 1,-0.00080547,0.00036311,-0.00030118,0.00025064,-0.00400921,-0.0005168
 2,-0.00370486,0.00151804,-0.00019222,0.00182006,0.00011619,-0.00013524
 ,-0.00079891,0.00062344,-0.00053545,0.00000908,0.00084822,-0.00022965,
 0.00075300,0.01026791,0.01148410,0.01256514,0.06209143,0.08604429,0.08
 823602,0.00033086,-0.00111470,0.00006615,-0.00063894,0.00156796,-0.000
 83682,-0.00002151,-0.00211278,0.00099698,0.01437613,0.03013919,0.00469
 760,-0.14957595,-0.21029285,-0.02130369,0.00008369,0.00354765,-0.00067
 253,0.00007657,-0.00131245,0.00005624,-0.00002657,0.00061874,-0.000891
 77,0.00000194,-0.00010068,-0.00001297,0.00005186,-0.00007296,0.0000210
 3,0.00023112,-0.00031567,-0.00008836,0.00001283,-0.00013259,0.00033736
 ,-0.00162466,0.00178848,0.00028564,-0.00043824,-0.00105867,0.00356623,
 0.13819732,-0.00113430,-0.00211032,0.00193285,-0.00237820,0.00452244,-
 0.00177188,0.00329153,-0.00298386,0.00056897,-0.01722395,-0.02678315,-
 0.00333980,-0.16869829,-0.34912509,-0.05780900,0.00077293,0.00019117,0
 .00045187,-0.00049162,0.00011416,-0.00030542,-0.00149693,0.00028885,-0
 .00149434,0.00057438,0.00011716,0.00045715,0.00029015,0.00009524,-0.00
 115081,0.00056113,-0.00072599,-0.00026044,0.00062045,-0.00036953,0.000
 85372,0.00273477,0.00270340,0.00121947,0.00333080,0.00189544,-0.002833
 36,0.17891645,0.37161875,0.00049124,0.00031417,-0.00089101,-0.00026798
 ,-0.00038551,-0.00050997,-0.00078835,-0.00429733,0.00141704,-0.0062266
 1,-0.01904237,-0.00892021,-0.00410262,-0.03508814,-0.02573169,-0.00110
 348,0.00341983,0.00145140,0.00009210,-0.00102141,-0.00090147,0.0004375
 2,0.00061719,-0.00133418,0.00006172,0.00010303,0.00009918,0.00009033,-
 0.00006936,0.00040563,0.00013112,-0.00004898,0.00005676,-0.00021333,0.
 00000651,0.00021555,-0.00547931,0.00063198,-0.00132157,0.00357627,-0.0
 0821200,0.00274697,0.01377755,0.06248559,0.03324786,-0.00029249,0.0006
 9615,0.00067933,-0.00022689,0.00043657,0.00022671,-0.00600788,-0.00982
 951,0.00719530,-0.00024465,-0.00145202,0.00035821,-0.00017812,0.000840
 52,0.00038217,-0.12260600,-0.10284001,0.07355796,0.00944555,0.03078691
 ,-0.02283276,-0.00036311,-0.00018836,-0.00288481,-0.00063281,-0.001033
 40,0.00004565,0.00019830,0.00023126,0.00007783,-0.00005286,-0.00007090
 ,0.00001236,-0.00000613,-0.00009290,-0.00007880,-0.00001476,0.00000264
 ,-0.00056570,0.00016450,0.00006946,-0.00016088,-0.00106471,0.00008112,
 -0.00028270,0.12670360,0.00024020,0.00127967,0.00003000,-0.00097029,-0
 .00142631,0.00122534,-0.01226518,-0.01497104,0.00890311,0.00029539,0.0
 0054155,0.00021658,0.00007236,0.00046307,-0.00003741,-0.09057480,-0.18
 566725,0.09122348,0.00176385,-0.01709832,0.01646770,0.00092417,-0.0001
 4155,-0.00328495,-0.00106629,-0.00116988,0.00000631,0.00032285,0.00044
 735,0.00010299,0.00000378,0.00022886,-0.00002591,-0.00020969,0.0001246
 7,-0.00001621,-0.00029903,0.00034475,-0.00043791,0.00029965,-0.0001978
 8,0.00004728,-0.00029890,0.00036164,-0.00011151,0.09614977,0.20418789,
 0.00108199,-0.00054792,-0.00143554,0.00010121,-0.00047756,-0.00001506,
 -0.01244670,-0.01653701,0.01384268,-0.00096146,-0.00007600,0.00077330,
 0.00013257,-0.00059825,-0.00033796,0.06842491,0.09270017,-0.12049382,-
 0.00160469,0.02042868,-0.01071765,-0.00008289,-0.00057717,-0.00428266,
 -0.00148961,-0.00175329,0.00013479,-0.00004486,0.00025026,-0.00005226,
 -0.00019218,0.00038689,0.00004258,-0.00010486,0.00014997,0.00001142,-0
 .00026049,0.00004534,-0.00037813,0.00013650,-0.00014354,0.00001230,0.0
 0047115,0.00008604,0.00040179,-0.06357805,-0.10773359,0.12875902,0.000
 13989,0.00094625,0.00015487,-0.00281461,-0.00300405,0.00024556,0.01227
 056,-0.00841259,-0.01461602,0.00144942,0.00020169,0.00133025,-0.000384
 58,0.00056570,-0.00029150,-0.15813198,0.05823867,0.11576105,-0.0243688
 4,0.02051386,0.00529046,0.00023327,-0.00062441,-0.00097500,0.00017568,
 0.00035968,0.00042931,0.00000086,0.00002366,0.00021722,0.00058404,-0.0
 0049572,-0.00054262,0.00006812,-0.00049798,-0.00066442,-0.00041232,0.0
 0006131,-0.00012956,0.00011188,-0.00022067,0.00016217,-0.00007092,0.00
 001610,-0.00009626,-0.00519974,0.00564758,0.01040036,0.17675214,0.0000
 1573,0.00091165,0.00049311,-0.00367007,-0.00214413,-0.00102607,0.01184
 542,-0.00879145,-0.01710474,0.00066457,0.00019114,0.00004413,0.0000714
 1,0.00005334,0.00087783,0.05566245,-0.08931220,-0.06000174,0.02118108,
 -0.01054149,-0.00666582,0.00156914,-0.00050401,-0.00041157,0.00001793,
 0.00066073,0.00056606,0.00007572,0.00011085,0.00010818,0.00083237,-0.0
 0036947,-0.00060682,-0.00011137,0.00010739,0.00016908,-0.00022391,-0.0
 0008368,-0.00008926,0.00004735,-0.00009274,-0.00000411,0.00017529,0.00
 015848,0.00051913,-0.01398531,0.01257503,0.01449804,-0.07328404,0.0973
 9183,-0.00021647,-0.00064207,0.00043931,-0.00383909,-0.00056052,-0.001
 98446,0.01332562,-0.00772520,-0.01208553,0.00127381,-0.00143008,-0.001
 01352,-0.00028661,0.00148400,0.00152169,0.12078426,-0.06720739,-0.1793
 0900,-0.02210883,0.01385408,0.01666559,0.00077744,0.00081087,0.0003896
 9,-0.00002919,0.00037400,0.00013440,-0.00015552,-0.00008231,-0.0001514
 5,0.00098663,-0.00051366,-0.00064358,0.00009201,-0.00009929,0.00036695
 ,-0.00002875,-0.00010119,-0.00009405,-0.00002278,0.00004591,0.00006670
 ,-0.00068072,0.00036868,-0.00113726,0.00775746,-0.00663892,-0.00632054
 ,-0.11685601,0.06868573,0.18282874,-0.00031280,-0.00239963,0.00141313,
 -0.00318998,0.00467039,-0.00255912,0.00684794,-0.01034076,0.01239044,0
 .00250808,-0.00062678,0.00091454,0.00005765,-0.00059591,-0.00019081,0.
 00109907,0.00168568,0.00043722,-0.00226207,-0.00046622,-0.00098811,-0.
 11244829,0.06921558,-0.08064043,-0.00819038,-0.00198437,-0.01828252,-0
 .00014787,0.00010789,-0.00107253,0.00082794,-0.00084736,0.00005732,-0.
 00024949,-0.00043839,0.00246495,-0.00054131,0.00037776,-0.00012829,-0.
 00040330,-0.00051597,0.00061491,0.00012139,0.00026940,-0.00000684,0.00
 020807,0.00012555,0.00020601,-0.00002232,-0.00008256,-0.00025933,0.124
 70118,-0.00021531,-0.00058471,0.00015785,-0.00011350,0.00109726,-0.001
 01857,0.00822867,-0.00989699,0.01289517,0.00052999,-0.00203060,0.00229
 084,-0.00058147,0.00037839,0.00022968,0.00103426,-0.00038926,0.0011793
 8,-0.00083768,0.00083939,-0.00083717,0.07912571,-0.12595533,0.09791402
 ,-0.02027823,0.01040869,-0.02782707,-0.00011998,0.00003509,-0.00032094
 ,0.00007230,-0.00039868,-0.00013763,-0.00016629,0.00049480,0.00017720,
 -0.00013152,-0.00032695,0.00020118,-0.00039643,-0.00032889,-0.00030797
 ,-0.00000038,0.00008529,0.00003558,0.00012332,0.00010615,-0.00007493,-
 0.00003809,-0.00012619,-0.00019910,-0.07218709,0.13134847,0.00001687,-
 0.00014640,0.00024471,-0.00102004,0.00109366,0.00098416,-0.00219782,0.
 01460108,-0.01375796,0.00080709,0.00048832,-0.00049535,-0.00000219,-0.
 00099970,-0.00004700,0.00007587,0.00047993,-0.00047850,-0.00067772,-0.
 00119527,-0.00006440,-0.09009328,0.08620801,-0.15537292,-0.01721160,0.
 00084110,-0.02242765,0.00024496,-0.00009522,0.00006872,-0.00021202,-0.
 00009218,0.00010657,0.00063834,-0.00042802,-0.00025715,0.00025292,0.00
 034137,-0.00002482,-0.00012670,-0.00057433,0.00050477,0.00020022,0.000
 32978,0.00031127,0.00011450,0.00005375,-0.00000511,0.00014034,0.000000
 16,0.00002755,0.10118820,-0.09391349,0.17930585,-0.00070381,0.00065845
 ,0.00086158,0.00012218,-0.00391943,0.00056166,-0.01290985,0.00956595,0
 .00803478,-0.00089053,0.00127044,-0.00010890,0.00079620,-0.00008323,-0
 .00082767,-0.00000079,0.00089887,0.00092972,0.00012894,-0.00041546,-0.
 00022699,-0.20782536,0.10152688,0.09260629,0.01738477,-0.01484713,-0.0
 1370878,-0.00001918,-0.00025370,0.00019379,-0.00016643,0.00021283,0.00
 011361,0.00026688,-0.00016285,-0.00047834,-0.00002228,0.00011311,0.000
 00399,0.00026467,-0.00012894,0.00021819,-0.00002222,-0.00003590,-0.000
 09038,0.00017013,-0.00016098,-0.00018891,-0.00038057,-0.00080120,-0.00
 051394,-0.00860350,0.00595171,0.00786206,0.21241076,-0.00114439,0.0014
 1034,0.00107241,0.00002190,-0.00601415,0.00120728,-0.01765567,0.012465
 31,0.01218884,-0.00103080,-0.00042106,0.00101743,-0.00012885,-0.000485
 42,0.00001649,0.00045200,0.00083819,0.00062917,0.00036730,0.00002622,0
 .00011796,0.09524595,-0.11165324,-0.05881786,0.00927680,-0.01765426,-0
 .02073320,-0.00015305,-0.00030247,0.00046842,-0.00025271,0.00036518,0.
 00027237,-0.00005071,0.00006815,-0.00063646,0.00012502,0.00007829,0.00
 008119,0.00014727,-0.00002089,-0.00006050,0.00005887,-0.00005408,0.000
 14363,0.00007467,0.00001160,-0.00002615,0.00000304,-0.00019508,-0.0004
 2354,0.01403278,-0.00475592,-0.00699255,-0.09938943,0.12629330,0.00055
 048,-0.00093800,-0.00015318,-0.00111989,0.00447325,0.00070057,0.016120
 38,-0.00375183,-0.01106003,0.00183885,-0.00106734,-0.00008987,-0.00045
 287,-0.00012662,0.00016651,-0.00088148,0.00132247,0.00015585,-0.000617
 16,-0.00042254,-0.00046486,0.08409875,-0.05694916,-0.09907479,0.010777
 18,-0.02153373,-0.01808711,0.00021736,0.00007035,-0.00027723,0.0000014
 0,-0.00044584,0.00019031,0.00034089,-0.00058181,0.00042853,0.00004361,
 -0.00001033,-0.00006651,-0.00014374,-0.00023944,-0.00003706,0.00001073
 ,0.00021094,0.00039390,-0.00002379,0.00000986,0.00006083,0.00003981,-0
 .00005133,0.00029878,-0.01555874,0.00955598,0.01137729,-0.09524176,0.0
 7047510,0.11553807\\0.00000034,-0.00000194,0.00000069,0.00000014,-0.00
 000010,-0.00000069,0.00000121,0.00000027,-0.00000026,-0.00000033,0.000
 00066,0.,0.00000096,0.00000187,-0.00000110,-0.00000061,-0.00000025,-0.
 00000026,-0.00000001,-0.00000123,0.00000075,-0.00000100,0.00000138,0.0
 0000088,-0.00000157,0.,-0.00000052,0.00000020,-0.00000146,0.00000085,-
 0.00000054,-0.00000043,0.00000056,-0.00000080,-0.00000089,0.00000112,0
 .00000161,-0.00000039,-0.00000015,0.00000057,0.00000056,-0.00000039,0.
 00000140,0.00000040,-0.00000056,0.00000066,-0.00000051,0.,0.00000015,0
 .00000035,-0.00000036,-0.00000172,0.00000029,-0.00000009,-0.00000066,0
 .00000142,-0.00000046\\\@


 NATURE REVEALS EVERY SECRET ONCE.
                    - RALPH WALDO EMERSON
 Job cpu time:       0 days  0 hours 12 minutes 15.6 seconds.
 Elapsed time:       0 days  0 hours  3 minutes  5.3 seconds.
 File lengths (MBytes):  RWF=    107 Int=      0 D2E=      0 Chk=      4 Scr=      1
 Normal termination of Gaussian 16 at Mon Jul 10 19:43:50 2023.
real 1511.64
user 5657.33
sys 20.52
