      -----------------------------------------------------------      
     |                   =====================                   |     
     |                           x T B                           |     
     |                   =====================                   |     
     |                         S. Grimme                         |     
     |          Mulliken Center for Theoretical Chemistry        |     
     |                    University of Bonn                     |     
      -----------------------------------------------------------      

   * xtb version 6.5.1 (b24c23e) compiled by 'conda@728c89f4b128' on 2022-07-12

   xtb is free software: you can redistribute it and/or modify it under
   the terms of the GNU Lesser General Public License as published by
   the Free Software Foundation, either version 3 of the License, or
   (at your option) any later version.
   
   xtb is distributed in the hope that it will be useful,
   but WITHOUT ANY WARRANTY; without even the implied warranty of
   MERCHANTABILITY or FITNESS FOR A PARTICULAR PURPOSE.  See the
   GNU Lesser General Public License for more details.
   
   Cite this work as:
   * C. Bannwarth, E. Caldeweyher, S. Ehlert, A. Hansen, P. Pracht,
     J. Seibert, S. Spicher, S. Grimme, WIREs Comput. Mol. Sci., 2020, 11,
     e01493. DOI: 10.1002/wcms.1493
   
   for GFN2-xTB:
   * C. Bannwarth, S. Ehlert and S. Grimme., J. Chem. Theory Comput., 2019,
     15, 1652-1671. DOI: 10.1021/acs.jctc.8b01176
   for GFN1-xTB:
   * S. Grimme, C. Bannwarth, P. Shushkov, J. Chem. Theory Comput., 2017,
     13, 1989-2009. DOI: 10.1021/acs.jctc.7b00118
   for GFN0-xTB:
   * P. Pracht, E. Caldeweyher, S. Ehlert, S. Grimme, ChemRxiv, 2019, preprint.
     DOI: 10.26434/chemrxiv.8326202.v1
   for GFN-FF:
   * S. Spicher and S. Grimme, Angew. Chem. Int. Ed., 2020, 59, 15665-15673.
     DOI: 10.1002/anie.202004239
   
   for ALPB and GBSA implicit solvation:
   * S. Ehlert, M. Stahn, S. Spicher, S. Grimme, J. Chem. Theory Comput.,
     2021, 17, 4250-4261. DOI: 10.1021/acs.jctc.1c00471
   
   for DFT-D4:
   * E. Caldeweyher, C. Bannwarth and S. Grimme, J. Chem. Phys., 2017,
     147, 034112. DOI: 10.1063/1.4993215
   * E. Caldeweyher, S. Ehlert, A. Hansen, H. Neugebauer, S. Spicher,
     C. Bannwarth and S. Grimme, J. Chem. Phys., 2019, 150, 154122.
     DOI: 10.1063/1.5090222
   * E. Caldeweyher, J.-M. Mewes, S. Ehlert and S. Grimme, Phys. Chem. Chem. Phys.
     2020, 22, 8499-8512. DOI: 10.1039/D0CP00502A
   
   for sTDA-xTB:
   * S. Grimme and C. Bannwarth, J. Chem. Phys., 2016, 145, 054103.
     DOI: 10.1063/1.4959605
   
   in the mass-spec context:
   * V. Asgeirsson, C. Bauer and S. Grimme, Chem. Sci., 2017, 8, 4879.
     DOI: 10.1039/c7sc00601b
   * J. Koopman and S. Grimme, ACS Omega 2019, 4, 12, 15120-15133.
     DOI: 10.1021/acsomega.9b02011
   
   for metadynamics refer to:
   * S. Grimme, J. Chem. Theory Comput., 2019, 155, 2847-2862
     DOI: 10.1021/acs.jctc.9b00143
   
   for SPH calculations refer to:
   * S. Spicher and S. Grimme, J. Chem. Theory Comput., 2021, 17, 1701-1714
     DOI: 10.1021/acs.jctc.0c01306
   
   with help from (in alphabetical order)
   P. Atkinson, C. Bannwarth, F. Bohle, G. Brandenburg, E. Caldeweyher
   M. Checinski, S. Dohm, S. Ehlert, S. Ehrlich, I. Gerasimov, C. Hölzer
   A. Katbashev, J. Koopman, C. Lavigne, S. Lehtola, F. März, M. Müller,
   F. Musil, H. Neugebauer, J. Pisarek, C. Plett, P. Pracht, F. Pultar,
   J. Seibert, P. Shushkov, S. Spicher, M. Stahn, M. Steiner, T. Strunk,
   J. Stückrath, T. Rose, and J. Unsleber
   
 * started run on 2022/08/08 at 16:16:33.518     

           -------------------------------------------------
          |                Calculation Setup                |
           -------------------------------------------------

          program call               : xtb tmpcoord --gfn2 --opt
          hostname                   : c447
          coordinate file            : tmpcoord
          omp threads                :                     1

   ID    Z sym.   atoms
    1    6 c      1, 2, 9, 10
    2   17 cl     3-5, 11-13
    3    1 h      6-8, 14-16

           -------------------------------------------------
          |                 G F N 2 - x T B                 |
           -------------------------------------------------

        Reference                      10.1021/acs.jctc.8b01176
      * Hamiltonian:
        H0-scaling (s, p, d)           1.850000    2.230000    2.230000
        zeta-weighting                 0.500000
      * Dispersion:
        s8                             2.700000
        a1                             0.520000
        a2                             5.000000
        s9                             5.000000
      * Repulsion:
        kExp                           1.500000    1.000000
        rExp                           1.000000
      * Coulomb:
        alpha                          2.000000
        third order                    shell-resolved
        anisotropic                    true
        a3                             3.000000
        a5                             4.000000
        cn-shift                       1.200000
        cn-exp                         4.000000
        max-rad                        5.000000


          ...................................................
          :                      SETUP                      :
          :.................................................:
          :  # basis functions                  82          :
          :  # atomic orbitals                  76          :
          :  # shells                           32          :
          :  # electrons                        64          :
          :  max. iterations                   250          :
          :  Hamiltonian                  GFN2-xTB          :
          :  restarted?                      false          :
          :  GBSA solvation                  false          :
          :  PC potential                    false          :
          :  electronic temp.          300.0000000     K    :
          :  accuracy                    1.0000000          :
          :  -> integral cutoff          0.2500000E+02      :
          :  -> integral neglect         0.1000000E-07      :
          :  -> SCF convergence          0.1000000E-05 Eh   :
          :  -> wf. convergence          0.1000000E-03 e    :
          :  Broyden damping             0.4000000          :
          ...................................................

 iter      E             dE          RMSdq      gap      omega  full diag
   1    -38.7845813 -0.387846E+02  0.490E+00    4.72       0.0  T
   2    -38.9393066 -0.154725E+00  0.415E+00    3.73       1.0  T
   3    -39.0069186 -0.676120E-01  0.211E+00    3.99       1.0  T
   4    -39.0070022 -0.836138E-04  0.417E-01    3.93       1.0  T
   5    -39.0078889 -0.886670E-03  0.220E-01    3.97       1.0  T
   6    -39.0080199 -0.130935E-03  0.125E-01    4.03       1.0  T
   7    -39.0081034 -0.835488E-04  0.731E-02    4.02       1.0  T
   8    -39.0081287 -0.252944E-04  0.329E-02    4.03       1.0  T
   9    -39.0081338 -0.508083E-05  0.158E-02    4.03       1.6  T
  10    -39.0081352 -0.141338E-05  0.857E-03    4.03       2.9  T
  11    -39.0081357 -0.502186E-06  0.372E-03    4.03       6.7  T
  12    -39.0081357 -0.541455E-07  0.129E-03    4.03      19.5  T
  13    -39.0081358 -0.812148E-08  0.745E-04    4.03      33.6  T
  14    -39.0081358 -0.344534E-08  0.394E-04    4.03      63.5  T

   *** convergence criteria satisfied after 14 iterations ***

         #    Occupation            Energy/Eh            Energy/eV
      -------------------------------------------------------------
         1        2.0000           -1.1012483             -29.9665
       ...           ...                  ...                  ...
        26        2.0000           -0.4481453             -12.1947
        27        2.0000           -0.4460214             -12.1369
        28        2.0000           -0.4431524             -12.0588
        29        2.0000           -0.4419231             -12.0253
        30        2.0000           -0.4405173             -11.9871
        31        2.0000           -0.4398216             -11.9682
        32        2.0000           -0.3847042             -10.4683 (HOMO)
        33                         -0.2365217              -6.4361 (LUMO)
        34                         -0.2311027              -6.2886
        35                         -0.1834940              -4.9931
        36                         -0.1832636              -4.9869
        37                         -0.1782146              -4.8495
       ...                                ...                  ...
        76                          0.1968165               5.3556
      -------------------------------------------------------------
                  HL-Gap            0.1481825 Eh            4.0323 eV
             Fermi-level           -0.3106130 Eh           -8.4522 eV

 SCC (total)                   0 d,  0 h,  0 min,  0.038 sec
 SCC setup                      ...        0 min,  0.000 sec (  0.633%)
 Dispersion                     ...        0 min,  0.000 sec (  0.321%)
 classical contributions        ...        0 min,  0.000 sec (  0.109%)
 integral evaluation            ...        0 min,  0.005 sec ( 14.171%)
 iterations                     ...        0 min,  0.021 sec ( 54.690%)
 molecular gradient             ...        0 min,  0.011 sec ( 29.465%)
 printout                       ...        0 min,  0.000 sec (  0.581%)

         :::::::::::::::::::::::::::::::::::::::::::::::::::::
         ::                     SUMMARY                     ::
         :::::::::::::::::::::::::::::::::::::::::::::::::::::
         :: total energy             -38.864288852695 Eh    ::
         :: gradient norm              0.153347480064 Eh/a0 ::
         :: HOMO-LUMO gap              4.032251862904 eV    ::
         ::.................................................::
         :: SCC energy               -39.008135758377 Eh    ::
         :: -> isotropic ES            0.027220618577 Eh    ::
         :: -> anisotropic ES         -0.002291171917 Eh    ::
         :: -> anisotropic XC          0.002551213630 Eh    ::
         :: -> dispersion             -0.018785804190 Eh    ::
         :: repulsion energy           0.143748064376 Eh    ::
         :: add. restraining           0.000000000000 Eh    ::
         :: total charge               0.000000000000 e     ::
         :::::::::::::::::::::::::::::::::::::::::::::::::::::

      ----------------------------------------------------------- 
     |                   =====================                   |
     |                        A N C O P T                        |
     |                   =====================                   |
     |               Approximate Normal Coordinate               |
     |                Rational Function Optimizer                |
      ----------------------------------------------------------- 

          ...................................................
          :                      SETUP                      :
          :.................................................:
          :   optimization level            normal          :
          :   max. optcycles                   200          :
          :   ANC micro-cycles                  20          :
          :   degrees of freedom                42          :
          :.................................................:
          :   RF solver                   davidson          :
          :   write xtbopt.log                true          :
          :   linear?                        false          :
          :   energy convergence         0.5000000E-05 Eh   :
          :   grad. convergence          0.1000000E-02 Eh/α :
          :   maximium RF displ.         1.0000000          :
          :   Hlow (freq-cutoff)         0.1000000E-01      :
          :   Hmax (freq-cutoff)         5.0000000          :
          :   S6 in model hess.         20.0000000          :
          ...................................................

generating ANC from model Hessian ...
Using Lindh-Hessian (1995)
 Shifting diagonal of input Hessian by    9.4597620428067877E-003
 Lowest  eigenvalues of input Hessian
    0.000000    0.000000    0.000000    0.000000    0.000000    0.000000
    0.010000    0.010144    0.010547    0.011368    0.012277    0.018714
    0.020558    0.025190    0.034875    0.034891    0.035084    0.039339
 Highest eigenvalues
    1.119091    1.119179    1.119405    1.121790    1.170786    1.171122


........................................................................
.............................. CYCLE    1 ..............................
........................................................................
   1    -39.0081358 -0.390081E+02  0.165E-04    4.03       0.0  T
   2    -39.0081358 -0.721982E-10  0.132E-04    4.03     188.7  T
   3    -39.0081358 -0.495604E-10  0.116E-04    4.03     215.8  T
     SCC iter.                  ...        0 min,  0.005 sec
     gradient                   ...        0 min,  0.011 sec
 * total energy  :   -38.8642889 Eh     change       -0.1269186E-08 Eh
   gradient norm :     0.1533461 Eh/α   predicted     0.0000000E+00 (-100.00%)
   displ. norm   :     0.6308411 α      lambda       -0.8897722E-01
   maximum displ.:     0.4286637 α      in ANC's #28, #22, #18, ...

........................................................................
.............................. CYCLE    2 ..............................
........................................................................
   1    -39.0631669 -0.390632E+02  0.124E+00    5.26       0.0  T
   2    -39.0644258 -0.125895E-02  0.792E-01    5.11       1.0  T
   3    -39.0643467  0.791426E-04  0.439E-01    5.10       1.0  T
   4    -39.0656047 -0.125804E-02  0.252E-01    5.00       1.0  T
   5    -39.0658607 -0.255945E-03  0.132E-01    5.01       1.0  T
   6    -39.0659533 -0.926515E-04  0.416E-02    4.99       1.0  T
   7    -39.0659597 -0.637206E-05  0.318E-02    4.99       1.0  T
   8    -39.0659641 -0.438704E-05  0.204E-02    4.99       1.2  T
   9    -39.0659677 -0.364389E-05  0.894E-03    4.98       2.8  T
  10    -39.0659682 -0.470745E-06  0.394E-03    4.99       6.3  T
  11    -39.0659683 -0.670629E-07  0.283E-03    4.99       8.8  T
  12    -39.0659683 -0.662835E-07  0.127E-03    4.99      19.7  T
  13    -39.0659684 -0.119888E-07  0.577E-04    4.99      43.4  T
  14    -39.0659684 -0.194073E-08  0.414E-04    4.99      60.3  T
     SCC iter.                  ...        0 min,  0.019 sec
     gradient                   ...        0 min,  0.011 sec
 * total energy  :   -38.9121128 Eh     change       -0.4782399E-01 Eh
   gradient norm :     0.0308117 Eh/α   predicted    -0.6219332E-01 (  30.05%)
   displ. norm   :     0.4423812 α      lambda       -0.9774147E-02
   maximum displ.:     0.3214644 α      in ANC's #8, #6, #12, ...

........................................................................
.............................. CYCLE    3 ..............................
........................................................................
   1    -39.0750900 -0.390751E+02  0.315E-01    5.17       0.0  T
   2    -39.0751020 -0.119885E-04  0.186E-01    5.17       1.0  T
   3    -39.0751046 -0.261503E-05  0.363E-02    5.17       1.0  T
   4    -39.0751130 -0.833180E-05  0.264E-02    5.17       1.0  T
   5    -39.0751156 -0.269184E-05  0.192E-02    5.17       1.3  T
   6    -39.0751185 -0.285417E-05  0.839E-03    5.17       3.0  T
   7    -39.0751190 -0.544155E-06  0.486E-03    5.17       5.1  T
   8    -39.0751192 -0.142337E-06  0.330E-03    5.17       7.6  T
   9    -39.0751193 -0.110039E-06  0.172E-03    5.17      14.5  T
  10    -39.0751193 -0.245214E-07  0.855E-04    5.17      29.3  T
  11    -39.0751193 -0.430712E-08  0.605E-04    5.17      41.3  T
     SCC iter.                  ...        0 min,  0.016 sec
     gradient                   ...        0 min,  0.011 sec
 * total energy  :   -38.9190850 Eh     change       -0.6972178E-02 Eh
   gradient norm :     0.0200777 Eh/α   predicted    -0.5843487E-02 ( -16.19%)
   displ. norm   :     0.4316190 α      lambda       -0.5552763E-02
   maximum displ.:     0.3487159 α      in ANC's #8, #6, #28, ...

........................................................................
.............................. CYCLE    4 ..............................
........................................................................
   1    -39.0800675 -0.390801E+02  0.273E-01    5.28       0.0  T
   2    -39.0800734 -0.594251E-05  0.161E-01    5.29       1.0  T
   3    -39.0800647  0.872277E-05  0.348E-02    5.27       1.0  T
   4    -39.0800790 -0.142458E-04  0.158E-02    5.28       1.6  T
   5    -39.0800802 -0.125426E-05  0.102E-02    5.28       2.5  T
   6    -39.0800811 -0.843145E-06  0.512E-03    5.28       4.9  T
   7    -39.0800813 -0.208364E-06  0.345E-03    5.28       7.2  T
   8    -39.0800814 -0.873236E-07  0.213E-03    5.28      11.8  T
   9    -39.0800814 -0.443463E-07  0.112E-03    5.28      22.4  T
  10    -39.0800814 -0.969144E-08  0.598E-04    5.28      41.8  T
  11    -39.0800814 -0.210262E-08  0.444E-04    5.28      56.3  T
     SCC iter.                  ...        0 min,  0.015 sec
     gradient                   ...        0 min,  0.011 sec
 * total energy  :   -38.9231520 Eh     change       -0.4067014E-02 Eh
   gradient norm :     0.0121875 Eh/α   predicted    -0.3293607E-02 ( -19.02%)
   displ. norm   :     0.3814595 α      lambda       -0.2722483E-02
   maximum displ.:     0.2917901 α      in ANC's #8, #6, #28, ...

........................................................................
.............................. CYCLE    5 ..............................
........................................................................
   1    -39.0812373 -0.390812E+02  0.228E-01    5.37       0.0  T
   2    -39.0812407 -0.338264E-05  0.134E-01    5.37       1.0  T
   3    -39.0812382  0.241266E-05  0.216E-02    5.36       1.2  T
   4    -39.0812432 -0.492867E-05  0.111E-02    5.37       2.3  T
   5    -39.0812436 -0.445324E-06  0.834E-03    5.37       3.0  T
   6    -39.0812441 -0.509709E-06  0.452E-03    5.37       5.5  T
   7    -39.0812443 -0.185850E-06  0.243E-03    5.37      10.3  T
   8    -39.0812443 -0.273953E-07  0.191E-03    5.37      13.1  T
   9    -39.0812444 -0.344213E-07  0.887E-04    5.37      28.2  T
  10    -39.0812444 -0.607191E-08  0.374E-04    5.37      66.8  T
     SCC iter.                  ...        0 min,  0.014 sec
     gradient                   ...        0 min,  0.011 sec
 * total energy  :   -38.9250753 Eh     change       -0.1923295E-02 Eh
   gradient norm :     0.0083496 Eh/α   predicted    -0.1559316E-02 ( -18.92%)
   displ. norm   :     0.2918417 α      lambda       -0.1120001E-02
   maximum displ.:     0.1888616 α      in ANC's #8, #6, #28, ...

........................................................................
.............................. CYCLE    6 ..............................
........................................................................
   1    -39.0820568 -0.390821E+02  0.170E-01    5.45       0.0  T
   2    -39.0820585 -0.162181E-05  0.998E-02    5.44       1.0  T
   3    -39.0820569  0.159845E-05  0.143E-02    5.44       1.8  T
   4    -39.0820593 -0.243664E-05  0.579E-03    5.43       4.3  T
   5    -39.0820594 -0.103023E-06  0.377E-03    5.43       6.6  T
   6    -39.0820595 -0.656405E-07  0.215E-03    5.43      11.6  T
   7    -39.0820595 -0.350215E-07  0.110E-03    5.43      22.6  T
   8    -39.0820595 -0.885320E-08  0.708E-04    5.43      35.3  T
   9    -39.0820595 -0.390848E-08  0.478E-04    5.43      52.3  T
     SCC iter.                  ...        0 min,  0.012 sec
     gradient                   ...        0 min,  0.011 sec
 * total energy  :   -38.9258837 Eh     change       -0.8083297E-03 Eh
   gradient norm :     0.0057288 Eh/α   predicted    -0.6077004E-03 ( -24.82%)
   displ. norm   :     0.2699097 α      lambda       -0.5870316E-03
   maximum displ.:     0.1461470 α      in ANC's #6, #8, #5, ...

........................................................................
.............................. CYCLE    7 ..............................
........................................................................
   1    -39.0825202 -0.390825E+02  0.153E-01    5.50       0.0  T
   2    -39.0825225 -0.232259E-05  0.903E-02    5.49       1.0  T
   3    -39.0825176  0.495382E-05  0.218E-02    5.49       1.1  T
   4    -39.0825239 -0.634354E-05  0.579E-03    5.48       4.3  T
   5    -39.0825240 -0.994396E-07  0.370E-03    5.48       6.8  T
   6    -39.0825241 -0.864340E-07  0.162E-03    5.48      15.5  T
   7    -39.0825241 -0.189790E-07  0.110E-03    5.48      22.7  T
   8    -39.0825241 -0.106959E-07  0.654E-04    5.48      38.2  T
   9    -39.0825241 -0.289312E-08  0.474E-04    5.48      52.7  T
     SCC iter.                  ...        0 min,  0.013 sec
     gradient                   ...        0 min,  0.011 sec
 * total energy  :   -38.9263101 Eh     change       -0.4264048E-03 Eh
   gradient norm :     0.0040142 Eh/α   predicted    -0.3148995E-03 ( -26.15%)
   displ. norm   :     0.2679895 α      lambda       -0.3276943E-03
   maximum displ.:     0.1455099 α      in ANC's #6, #5, #8, ...

........................................................................
.............................. CYCLE    8 ..............................
........................................................................
   1    -39.0825425 -0.390825E+02  0.146E-01    5.50       0.0  T
   2    -39.0825435 -0.959567E-06  0.858E-02    5.50       1.0  T
   3    -39.0825434  0.105586E-06  0.843E-03    5.50       3.0  T
   4    -39.0825439 -0.553768E-06  0.500E-03    5.50       5.0  T
   5    -39.0825440 -0.114746E-06  0.350E-03    5.50       7.2  T
   6    -39.0825441 -0.112423E-06  0.196E-03    5.50      12.8  T
   7    -39.0825442 -0.470106E-07  0.980E-04    5.50      25.5  T
   8    -39.0825442 -0.754338E-08  0.447E-04    5.50      55.9  T
     SCC iter.                  ...        0 min,  0.011 sec
     gradient                   ...        0 min,  0.011 sec
 * total energy  :   -38.9265488 Eh     change       -0.2387820E-03 Eh
   gradient norm :     0.0034941 Eh/α   predicted    -0.1756154E-03 ( -26.45%)
   displ. norm   :     0.2647668 α      lambda       -0.1948851E-03
   maximum displ.:     0.1402107 α      in ANC's #6, #5, #8, ...

........................................................................
.............................. CYCLE    9 ..............................
........................................................................
   1    -39.0825368 -0.390825E+02  0.138E-01    5.51       0.0  T
   2    -39.0825374 -0.596985E-06  0.812E-02    5.51       1.0  T
   3    -39.0825377 -0.260726E-06  0.510E-03    5.50       4.9  T
   4    -39.0825378 -0.642470E-07  0.367E-03    5.50       6.8  T
   5    -39.0825378 -0.563218E-07  0.299E-03    5.50       8.4  T
   6    -39.0825379 -0.849954E-07  0.171E-03    5.50      14.6  T
   7    -39.0825379 -0.369381E-07  0.865E-04    5.50      28.9  T
   8    -39.0825379 -0.618148E-08  0.396E-04    5.50      63.2  T
     SCC iter.                  ...        0 min,  0.011 sec
     gradient                   ...        0 min,  0.011 sec
 * total energy  :   -38.9266907 Eh     change       -0.1418863E-03 Eh
   gradient norm :     0.0032506 Eh/α   predicted    -0.1042738E-03 ( -26.51%)
   displ. norm   :     0.2556807 α      lambda       -0.1247727E-03
   maximum displ.:     0.1287655 α      in ANC's #5, #6, #4, ...

........................................................................
.............................. CYCLE   10 ..............................
........................................................................
   1    -39.0826844 -0.390827E+02  0.129E-01    5.50       0.0  T
   2    -39.0826848 -0.495090E-06  0.760E-02    5.50       1.0  T
   3    -39.0826843  0.533935E-06  0.839E-03    5.49       3.0  T
   4    -39.0826852 -0.860341E-06  0.353E-03    5.50       7.1  T
   5    -39.0826852 -0.491099E-07  0.244E-03    5.50      10.3  T
   6    -39.0826853 -0.497213E-07  0.133E-03    5.50      18.8  T
   7    -39.0826853 -0.172432E-07  0.820E-04    5.50      30.5  T
   8    -39.0826853 -0.449748E-08  0.536E-04    5.50      46.6  T
     SCC iter.                  ...        0 min,  0.011 sec
     gradient                   ...        0 min,  0.011 sec
 * total energy  :   -38.9267838 Eh     change       -0.9309328E-04 Eh
   gradient norm :     0.0032905 Eh/α   predicted    -0.6646396E-04 ( -28.60%)
   displ. norm   :     0.2788128 α      lambda       -0.1099325E-03
   maximum displ.:     0.1370570 α      in ANC's #5, #6, #4, ...

........................................................................
.............................. CYCLE   11 ..............................
........................................................................
   1    -39.0829289 -0.390829E+02  0.135E-01    5.50       0.0  T
   2    -39.0829292 -0.266945E-06  0.791E-02    5.50       1.0  T
   3    -39.0829292 -0.289253E-07  0.434E-03    5.50       5.8  T
   4    -39.0829294 -0.150535E-06  0.268E-03    5.50       9.3  T
   5    -39.0829294 -0.246948E-07  0.168E-03    5.50      14.9  T
   6    -39.0829294 -0.155419E-07  0.989E-04    5.50      25.3  T
   7    -39.0829294 -0.734025E-08  0.506E-04    5.50      49.5  T
     SCC iter.                  ...        0 min,  0.010 sec
     gradient                   ...        0 min,  0.011 sec
 * total energy  :   -38.9268689 Eh     change       -0.8507446E-04 Eh
   gradient norm :     0.0031761 Eh/α   predicted    -0.5923758E-04 ( -30.37%)
   displ. norm   :     0.3535230 α      lambda       -0.1237872E-03
   maximum displ.:     0.1779625 α      in ANC's #5, #4, #6, ...

........................................................................
.............................. CYCLE   12 ..............................
........................................................................
   1    -39.0829612 -0.390830E+02  0.169E-01    5.47       0.0  T
   2    -39.0829623 -0.112942E-05  0.998E-02    5.47       1.0  T
   3    -39.0829598  0.254469E-05  0.154E-02    5.46       1.6  T
   4    -39.0829631 -0.331410E-05  0.446E-03    5.47       5.6  T
   5    -39.0829631 -0.563989E-07  0.297E-03    5.47       8.4  T
   6    -39.0829632 -0.494118E-07  0.147E-03    5.47      17.0  T
   7    -39.0829632 -0.148205E-07  0.781E-04    5.47      32.0  T
   8    -39.0829632 -0.302703E-08  0.563E-04    5.47      44.4  T
     SCC iter.                  ...        0 min,  0.011 sec
     gradient                   ...        0 min,  0.011 sec
 * total energy  :   -38.9269634 Eh     change       -0.9448394E-04 Eh
   gradient norm :     0.0033766 Eh/α   predicted    -0.6963083E-04 ( -26.30%)
   displ. norm   :     0.3901671 α      lambda       -0.1668573E-03
   maximum displ.:     0.2437831 α      in ANC's #4, #5, #1, ...

........................................................................
.............................. CYCLE   13 ..............................
........................................................................
   1    -39.0844833 -0.390845E+02  0.177E-01    5.49       0.0  T
   2    -39.0844850 -0.168122E-05  0.104E-01    5.48       1.0  T
   3    -39.0844832  0.179655E-05  0.153E-02    5.48       1.6  T
   4    -39.0844860 -0.279627E-05  0.641E-03    5.48       3.9  T
   5    -39.0844861 -0.134490E-06  0.470E-03    5.48       5.3  T
   6    -39.0844862 -0.138627E-06  0.290E-03    5.48       8.6  T
   7    -39.0844863 -0.858675E-07  0.146E-03    5.48      17.1  T
   8    -39.0844863 -0.124683E-07  0.985E-04    5.48      25.4  T
   9    -39.0844863 -0.851664E-08  0.572E-04    5.48      43.7  T
     SCC iter.                  ...        0 min,  0.012 sec
     gradient                   ...        0 min,  0.011 sec
 * total energy  :   -38.9270660 Eh     change       -0.1026627E-03 Eh
   gradient norm :     0.0030453 Eh/α   predicted    -0.9612722E-04 (  -6.37%)
   displ. norm   :     0.5160287 α      lambda       -0.1271346E-03
   maximum displ.:     0.2777176 α      in ANC's #4, #5, #6, ...

........................................................................
.............................. CYCLE   14 ..............................
........................................................................
   1    -39.0801791 -0.390802E+02  0.248E-01    5.39       0.0  T
   2    -39.0801907 -0.116001E-04  0.148E-01    5.40       1.0  T
   3    -39.0801682  0.224990E-04  0.465E-02    5.39       1.0  T
   4    -39.0801969 -0.286830E-04  0.101E-02    5.40       2.5  T
   5    -39.0801971 -0.212918E-06  0.765E-03    5.40       3.3  T
   6    -39.0801974 -0.283974E-06  0.321E-03    5.41       7.8  T
   7    -39.0801975 -0.513688E-07  0.204E-03    5.41      12.2  T
   8    -39.0801975 -0.249923E-07  0.152E-03    5.41      16.5  T
   9    -39.0801975 -0.207396E-07  0.908E-04    5.41      27.5  T
  10    -39.0801975 -0.916481E-08  0.360E-04    5.41      69.5  T
     SCC iter.                  ...        0 min,  0.014 sec
     gradient                   ...        0 min,  0.011 sec
 * total energy  :   -38.9269945 Eh     change        0.7151078E-04 Eh
   gradient norm :     0.0085396 Eh/α   predicted    -0.8049145E-04 (-212.56%)
   displ. norm   :     0.2516191 α      lambda       -0.3080111E-03
   maximum displ.:     0.1213701 α      in ANC's #6, #5, #4, ...

........................................................................
.............................. CYCLE   15 ..............................
........................................................................
   1    -39.0847020 -0.390847E+02  0.127E-01    5.46       0.0  T
   2    -39.0847093 -0.727808E-05  0.767E-02    5.45       1.0  T
   3    -39.0847016  0.763653E-05  0.310E-02    5.46       1.0  T
   4    -39.0847125 -0.108653E-04  0.610E-03    5.45       4.1  T
   5    -39.0847126 -0.803535E-07  0.444E-03    5.45       5.6  T
   6    -39.0847127 -0.705738E-07  0.163E-03    5.45      15.3  T
   7    -39.0847127 -0.634422E-08  0.858E-04    5.45      29.1  T
   8    -39.0847127 -0.537191E-08  0.505E-04    5.45      49.5  T
     SCC iter.                  ...        0 min,  0.011 sec
     gradient                   ...        0 min,  0.011 sec
 * total energy  :   -38.9271269 Eh     change       -0.1323705E-03 Eh
   gradient norm :     0.0027113 Eh/α   predicted    -0.1637552E-03 (  23.71%)
   displ. norm   :     0.0433016 α      lambda       -0.2006928E-04
   maximum displ.:     0.0300060 α      in ANC's #4, #5, #1, ...

........................................................................
.............................. CYCLE   16 ..............................
........................................................................
   1    -39.0842892 -0.390843E+02  0.200E-02    5.46       0.0  T
   2    -39.0842896 -0.326154E-06  0.126E-02    5.46       2.0  T
   3    -39.0842895  0.102866E-06  0.664E-03    5.46       3.8  T
   4    -39.0842898 -0.324549E-06  0.175E-03    5.46      14.3  T
   5    -39.0842898 -0.806175E-08  0.111E-03    5.46      22.6  T
   6    -39.0842898 -0.608216E-08  0.519E-04    5.46      48.2  T
   7    -39.0842898 -0.182235E-08  0.337E-04    5.46      74.2  T
     SCC iter.                  ...        0 min,  0.010 sec
     gradient                   ...        0 min,  0.011 sec
 * total energy  :   -38.9271410 Eh     change       -0.1411303E-04 Eh
   gradient norm :     0.0015681 Eh/α   predicted    -0.1005364E-04 ( -28.76%)
   displ. norm   :     0.2287757 α      lambda       -0.3868075E-04
   maximum displ.:     0.1297530 α      in ANC's #5, #4, #1, ...

........................................................................
.............................. CYCLE   17 ..............................
........................................................................
   1    -39.0839386 -0.390839E+02  0.105E-01    5.44       0.0  T
   2    -39.0839391 -0.522585E-06  0.622E-02    5.44       1.0  T
   3    -39.0839386  0.551522E-06  0.842E-03    5.43       3.0  T
   4    -39.0839394 -0.872081E-06  0.363E-03    5.44       6.9  T
   5    -39.0839395 -0.427587E-07  0.272E-03    5.44       9.2  T
   6    -39.0839395 -0.509722E-07  0.162E-03    5.44      15.4  T
   7    -39.0839396 -0.277394E-07  0.801E-04    5.44      31.2  T
   8    -39.0839396 -0.402395E-08  0.568E-04    5.44      44.0  T
     SCC iter.                  ...        0 min,  0.011 sec
     gradient                   ...        0 min,  0.011 sec
 * total energy  :   -38.9271674 Eh     change       -0.2635482E-04 Eh
   gradient norm :     0.0028409 Eh/α   predicted    -0.1978946E-04 ( -24.91%)
   displ. norm   :     0.0495763 α      lambda       -0.2309946E-04
   maximum displ.:     0.0321403 α      in ANC's #6, #4, #8, ...

........................................................................
.............................. CYCLE   18 ..............................
........................................................................
   1    -39.0841154 -0.390841E+02  0.216E-02    5.45       0.0  T
   2    -39.0841155 -0.152778E-06  0.133E-02    5.44       1.9  T
   3    -39.0841153  0.220948E-06  0.541E-03    5.45       4.6  T
   4    -39.0841156 -0.334787E-06  0.182E-03    5.44      13.7  T
   5    -39.0841157 -0.131299E-07  0.127E-03    5.44      19.7  T
   6    -39.0841157 -0.122090E-07  0.747E-04    5.44      33.5  T
   7    -39.0841157 -0.571455E-08  0.468E-04    5.44      53.5  T
     SCC iter.                  ...        0 min,  0.010 sec
     gradient                   ...        0 min,  0.011 sec
 * total energy  :   -38.9271867 Eh     change       -0.1929600E-04 Eh
   gradient norm :     0.0023018 Eh/α   predicted    -0.1157863E-04 ( -39.99%)
   displ. norm   :     0.1974121 α      lambda       -0.6908139E-04
   maximum displ.:     0.1317618 α      in ANC's #6, #4, #8, ...

........................................................................
.............................. CYCLE   19 ..............................
........................................................................
   1    -39.0844067 -0.390844E+02  0.812E-02    5.45       0.0  T
   2    -39.0844076 -0.875529E-06  0.484E-02    5.45       1.0  T
   3    -39.0844065  0.109515E-05  0.123E-02    5.46       2.0  T
   4    -39.0844082 -0.172152E-05  0.525E-03    5.46       4.8  T
   5    -39.0844083 -0.102574E-06  0.369E-03    5.46       6.8  T
   6    -39.0844084 -0.939383E-07  0.229E-03    5.46      10.9  T
   7    -39.0844085 -0.568347E-07  0.130E-03    5.46      19.2  T
   8    -39.0844085 -0.153916E-07  0.752E-04    5.46      33.3  T
   9    -39.0844085 -0.468574E-08  0.484E-04    5.46      51.7  T
     SCC iter.                  ...        0 min,  0.013 sec
     gradient                   ...        0 min,  0.011 sec
 * total energy  :   -38.9272323 Eh     change       -0.4560494E-04 Eh
   gradient norm :     0.0023449 Eh/α   predicted    -0.3588542E-04 ( -21.31%)
   displ. norm   :     0.1553114 α      lambda       -0.3294390E-04
   maximum displ.:     0.0997157 α      in ANC's #6, #4, #8, ...

........................................................................
.............................. CYCLE   20 ..............................
........................................................................
   1    -39.0843233 -0.390843E+02  0.644E-02    5.46       0.0  T
   2    -39.0843235 -0.207127E-06  0.381E-02    5.46       1.0  T
   3    -39.0843233  0.241365E-06  0.614E-03    5.47       4.1  T
   4    -39.0843237 -0.421118E-06  0.287E-03    5.47       8.7  T
   5    -39.0843238 -0.361898E-07  0.149E-03    5.47      16.8  T
   6    -39.0843238 -0.139635E-07  0.875E-04    5.47      28.6  T
   7    -39.0843238 -0.545214E-08  0.569E-04    5.47      43.9  T
     SCC iter.                  ...        0 min,  0.010 sec
     gradient                   ...        0 min,  0.011 sec
 * total energy  :   -38.9272556 Eh     change       -0.2334460E-04 Eh
   gradient norm :     0.0026635 Eh/α   predicted    -0.1687033E-04 ( -27.73%)
   displ. norm   :     0.1630967 α      lambda       -0.3336003E-04
   maximum displ.:     0.1035569 α      in ANC's #6, #8, #4, ...
 * RMSD in coord.:     0.8725214 α      energy gain  -0.6296677E-01 Eh

generating ANC from model Hessian ...
Using Lindh-Hessian (1995)
 Shifting diagonal of input Hessian by    9.5081839438654649E-003
 Lowest  eigenvalues of input Hessian
    0.000000    0.000000    0.000000    0.000000    0.000000    0.000000
    0.010000    0.010052    0.010377    0.010495    0.010684    0.011282
    0.021770    0.021879    0.036492    0.036914    0.037078    0.037357
 Highest eigenvalues
    1.166819    1.169976    1.171472    1.172307    1.216706    1.218855


........................................................................
.............................. CYCLE   21 ..............................
........................................................................
   1    -39.0841137 -0.390841E+02  0.715E-02    5.46       0.0  T
   2    -39.0841140 -0.325165E-06  0.422E-02    5.46       1.0  T
   3    -39.0841134  0.634573E-06  0.795E-03    5.46       3.1  T
   4    -39.0841142 -0.846225E-06  0.250E-03    5.46      10.0  T
   5    -39.0841142 -0.201350E-07  0.166E-03    5.46      15.0  T
   6    -39.0841142 -0.150563E-07  0.949E-04    5.46      26.4  T
   7    -39.0841142 -0.693155E-08  0.478E-04    5.46      52.3  T
     SCC iter.                  ...        0 min,  0.010 sec
     gradient                   ...        0 min,  0.011 sec
 * total energy  :   -38.9272780 Eh     change       -0.2237316E-04 Eh
   gradient norm :     0.0023844 Eh/α   predicted     0.0000000E+00 (-100.00%)
   displ. norm   :     0.0263430 α      lambda       -0.1967737E-04
   maximum displ.:     0.0129521 α      in ANC's #8, #3, #5, ...

........................................................................
.............................. CYCLE   22 ..............................
........................................................................
   1    -39.0842156 -0.390842E+02  0.173E-02    5.47       0.0  T
   2    -39.0842157 -0.133326E-06  0.108E-02    5.47       2.3  T
   3    -39.0842156  0.135494E-06  0.474E-03    5.47       5.3  T
   4    -39.0842158 -0.237158E-06  0.191E-03    5.46      13.1  T
   5    -39.0842158 -0.159430E-07  0.127E-03    5.46      19.7  T
   6    -39.0842158 -0.140188E-07  0.692E-04    5.46      36.2  T
   7    -39.0842158 -0.421979E-08  0.498E-04    5.46      50.2  T
     SCC iter.                  ...        0 min,  0.010 sec
     gradient                   ...        0 min,  0.011 sec
 * total energy  :   -38.9272935 Eh     change       -0.1549221E-04 Eh
   gradient norm :     0.0013787 Eh/α   predicted    -0.9843754E-05 ( -36.46%)
   displ. norm   :     0.1098141 α      lambda       -0.3095534E-04
   maximum displ.:     0.0559201 α      in ANC's #8, #5, #3, ...

........................................................................
.............................. CYCLE   23 ..............................
........................................................................
   1    -39.0843185 -0.390843E+02  0.679E-02    5.47       0.0  T
   2    -39.0843197 -0.124992E-05  0.414E-02    5.47       1.0  T
   3    -39.0843176  0.214746E-05  0.157E-02    5.47       1.6  T
   4    -39.0843206 -0.300550E-05  0.476E-03    5.47       5.3  T
   5    -39.0843207 -0.822046E-07  0.309E-03    5.47       8.1  T
   6    -39.0843207 -0.752398E-07  0.157E-03    5.47      16.0  T
   7    -39.0843208 -0.201234E-07  0.113E-03    5.47      22.1  T
   8    -39.0843208 -0.820371E-08  0.854E-04    5.47      29.3  T
   9    -39.0843208 -0.837126E-08  0.441E-04    5.47      56.7  T
     SCC iter.                  ...        0 min,  0.013 sec
     gradient                   ...        0 min,  0.013 sec
 * total energy  :   -38.9273161 Eh     change       -0.2265062E-04 Eh
   gradient norm :     0.0022412 Eh/α   predicted    -0.1555882E-04 ( -31.31%)
   displ. norm   :     0.0301156 α      lambda       -0.1047770E-04
   maximum displ.:     0.0148446 α      in ANC's #5, #8, #4, ...

........................................................................
.............................. CYCLE   24 ..............................
........................................................................
   1    -39.0842835 -0.390843E+02  0.177E-02    5.47       0.0  T
   2    -39.0842835 -0.285135E-07  0.104E-02    5.47       2.4  T
   3    -39.0842835  0.454657E-07  0.217E-03    5.47      11.5  T
   4    -39.0842835 -0.608498E-07  0.679E-04    5.47      36.8  T
   5    -39.0842835 -0.135626E-08  0.485E-04    5.47      51.5  T
     SCC iter.                  ...        0 min,  0.007 sec
     gradient                   ...        0 min,  0.011 sec
 * total energy  :   -38.9273254 Eh     change       -0.9280745E-05 Eh
   gradient norm :     0.0017127 Eh/α   predicted    -0.5243505E-05 ( -43.50%)
   displ. norm   :     0.1539783 α      lambda       -0.2740855E-04
   maximum displ.:     0.0786031 α      in ANC's #5, #4, #8, ...

........................................................................
.............................. CYCLE   25 ..............................
........................................................................
   1    -39.0840847 -0.390841E+02  0.905E-02    5.46       0.0  T
   2    -39.0840853 -0.609007E-06  0.534E-02    5.47       1.0  T
   3    -39.0840840  0.131058E-05  0.112E-02    5.47       2.2  T
   4    -39.0840857 -0.170098E-05  0.317E-03    5.47       7.9  T
   5    -39.0840857 -0.288505E-07  0.210E-03    5.47      11.9  T
   6    -39.0840858 -0.225382E-07  0.119E-03    5.47      21.1  T
   7    -39.0840858 -0.105660E-07  0.623E-04    5.47      40.1  T
   8    -39.0840858 -0.177295E-08  0.494E-04    5.47      50.6  T
     SCC iter.                  ...        0 min,  0.011 sec
     gradient                   ...        0 min,  0.011 sec
 * total energy  :   -38.9273447 Eh     change       -0.1924425E-04 Eh
   gradient norm :     0.0015696 Eh/α   predicted    -0.1384788E-04 ( -28.04%)
   displ. norm   :     0.0361232 α      lambda       -0.5387134E-05
   maximum displ.:     0.0221689 α      in ANC's #5, #1, #4, ...

........................................................................
.............................. CYCLE   26 ..............................
........................................................................
   1    -39.0842256 -0.390842E+02  0.208E-02    5.47       0.0  T
   2    -39.0842256 -0.206518E-07  0.122E-02    5.47       2.1  T
   3    -39.0842255  0.319192E-07  0.186E-03    5.47      13.4  T
   4    -39.0842256 -0.453715E-07  0.659E-04    5.47      37.9  T
   5    -39.0842256 -0.142712E-08  0.470E-04    5.47      53.2  T
     SCC iter.                  ...        0 min,  0.007 sec
     gradient                   ...        0 min,  0.011 sec
 * total energy  :   -38.9273517 Eh     change       -0.7026739E-05 Eh
   gradient norm :     0.0009435 Eh/α   predicted    -0.2693700E-05 ( -61.67%)
   displ. norm   :     0.0863009 α      lambda       -0.1127722E-04
   maximum displ.:     0.0528824 α      in ANC's #5, #1, #4, ...

........................................................................
.............................. CYCLE   27 ..............................
........................................................................
   1    -39.0844026 -0.390844E+02  0.462E-02    5.47       0.0  T
   2    -39.0844027 -0.101354E-06  0.272E-02    5.47       1.0  T
   3    -39.0844027  0.234308E-07  0.327E-03    5.47       7.6  T
   4    -39.0844028 -0.935807E-07  0.193E-03    5.47      12.9  T
   5    -39.0844028 -0.156824E-07  0.141E-03    5.47      17.8  T
   6    -39.0844028 -0.145398E-07  0.912E-04    5.47      27.4  T
   7    -39.0844028 -0.100741E-07  0.411E-04    5.47      60.9  T
     SCC iter.                  ...        0 min,  0.010 sec
     gradient                   ...        0 min,  0.011 sec
 * total energy  :   -38.9273645 Eh     change       -0.1286337E-04 Eh
   gradient norm :     0.0006295 Eh/α   predicted    -0.5657300E-05 ( -56.02%)
   displ. norm   :     0.1204648 α      lambda       -0.9935208E-05
   maximum displ.:     0.0730150 α      in ANC's #5, #1, #4, ...

........................................................................
.............................. CYCLE   28 ..............................
........................................................................
   1    -39.0843353 -0.390843E+02  0.637E-02    5.47       0.0  T
   2    -39.0843354 -0.108519E-06  0.374E-02    5.47       1.0  T
   3    -39.0843355 -0.346906E-07  0.278E-03    5.47       9.0  T
   4    -39.0843355 -0.422432E-07  0.202E-03    5.47      12.4  T
   5    -39.0843355 -0.172575E-07  0.147E-03    5.47      17.0  T
   6    -39.0843355 -0.154796E-07  0.922E-04    5.47      27.1  T
   7    -39.0843355 -0.941556E-08  0.461E-04    5.47      54.3  T
     SCC iter.                  ...        0 min,  0.010 sec
     gradient                   ...        0 min,  0.011 sec
 * total energy  :   -38.9273768 Eh     change       -0.1223785E-04 Eh
   gradient norm :     0.0011594 Eh/α   predicted    -0.4997654E-05 ( -59.16%)
   displ. norm   :     0.1453937 α      lambda       -0.1044336E-04
   maximum displ.:     0.0872784 α      in ANC's #5, #1, #4, ...

........................................................................
.............................. CYCLE   29 ..............................
........................................................................
   1    -39.0842256 -0.390842E+02  0.766E-02    5.47       0.0  T
   2    -39.0842258 -0.107791E-06  0.450E-02    5.47       1.0  T
   3    -39.0842258 -0.264007E-07  0.291E-03    5.47       8.6  T
   4    -39.0842258 -0.595713E-07  0.200E-03    5.47      12.5  T
   5    -39.0842259 -0.170006E-07  0.141E-03    5.47      17.7  T
   6    -39.0842259 -0.156647E-07  0.785E-04    5.47      31.9  T
   7    -39.0842259 -0.562631E-08  0.386E-04    5.47      64.8  T
     SCC iter.                  ...        0 min,  0.011 sec
     gradient                   ...        0 min,  0.011 sec
 * total energy  :   -38.9273898 Eh     change       -0.1297588E-04 Eh
   gradient norm :     0.0012127 Eh/α   predicted    -0.5270055E-05 ( -59.39%)
   displ. norm   :     0.1863996 α      lambda       -0.1146077E-04
   maximum displ.:     0.1112797 α      in ANC's #5, #1, #4, ...

........................................................................
.............................. CYCLE   30 ..............................
........................................................................
   1    -39.0840513 -0.390841E+02  0.974E-02    5.46       0.0  T
   2    -39.0840515 -0.182959E-06  0.572E-02    5.46       1.0  T
   3    -39.0840516 -0.105391E-06  0.288E-03    5.46       8.7  T
   4    -39.0840516 -0.213507E-07  0.233E-03    5.46      10.7  T
   5    -39.0840517 -0.188497E-07  0.173E-03    5.46      14.5  T
   6    -39.0840517 -0.228769E-07  0.922E-04    5.46      27.1  T
   7    -39.0840517 -0.696406E-08  0.409E-04    5.46      61.1  T
     SCC iter.                  ...        0 min,  0.010 sec
     gradient                   ...        0 min,  0.011 sec
 * total energy  :   -38.9274014 Eh     change       -0.1166804E-04 Eh
   gradient norm :     0.0012681 Eh/α   predicted    -0.5818117E-05 ( -50.14%)
   displ. norm   :     0.0848472 α      lambda       -0.5174054E-05
   maximum displ.:     0.0553366 α      in ANC's #1, #5, #4, ...

........................................................................
.............................. CYCLE   31 ..............................
........................................................................
   1    -39.0842442 -0.390842E+02  0.445E-02    5.46       0.0  T
   2    -39.0842443 -0.766738E-07  0.261E-02    5.46       1.0  T
   3    -39.0842442  0.479168E-07  0.306E-03    5.46       8.2  T
   4    -39.0842443 -0.998511E-07  0.154E-03    5.46      16.3  T
   5    -39.0842443 -0.101248E-07  0.107E-03    5.46      23.3  T
   6    -39.0842444 -0.102558E-07  0.541E-04    5.46      46.2  T
   7    -39.0842444 -0.304836E-08  0.272E-04    5.46      91.9  T
     SCC iter.                  ...        0 min,  0.010 sec
     gradient                   ...        0 min,  0.011 sec
 * total energy  :   -38.9274074 Eh     change       -0.6009738E-05 Eh
   gradient norm :     0.0009545 Eh/α   predicted    -0.2594710E-05 ( -56.82%)
   displ. norm   :     0.0749307 α      lambda       -0.4926666E-05
   maximum displ.:     0.0534899 α      in ANC's #1, #5, #4, ...

........................................................................
.............................. CYCLE   32 ..............................
........................................................................
   1    -39.0844425 -0.390844E+02  0.401E-02    5.47       0.0  T
   2    -39.0844427 -0.134729E-06  0.236E-02    5.47       1.1  T
   3    -39.0844426  0.107703E-06  0.425E-03    5.47       5.9  T
   4    -39.0844427 -0.192375E-06  0.203E-03    5.47      12.3  T
   5    -39.0844428 -0.174255E-07  0.145E-03    5.47      17.2  T
   6    -39.0844428 -0.165481E-07  0.905E-04    5.47      27.6  T
   7    -39.0844428 -0.103052E-07  0.381E-04    5.47      65.7  T
     SCC iter.                  ...        0 min,  0.010 sec
     gradient                   ...        0 min,  0.011 sec
 * total energy  :   -38.9274129 Eh     change       -0.5470233E-05 Eh
   gradient norm :     0.0004854 Eh/α   predicted    -0.2470804E-05 ( -54.83%)
   displ. norm   :     0.0598764 α      lambda       -0.2789259E-05
   maximum displ.:     0.0441239 α      in ANC's #1, #5, #4, ...

........................................................................
.............................. CYCLE   33 ..............................
........................................................................
   1    -39.0844451 -0.390844E+02  0.315E-02    5.46       0.0  T
   2    -39.0844452 -0.514097E-07  0.185E-02    5.46       1.3  T
   3    -39.0844451  0.254159E-07  0.254E-03    5.46       9.8  T
   4    -39.0844452 -0.625939E-07  0.141E-03    5.46      17.8  T
   5    -39.0844452 -0.889408E-08  0.992E-04    5.46      25.2  T
   6    -39.0844452 -0.101669E-07  0.458E-04    5.46      54.6  T
     SCC iter.                  ...        0 min,  0.009 sec
     gradient                   ...        0 min,  0.011 sec
 * total energy  :   -38.9274161 Eh     change       -0.3190076E-05 Eh
   gradient norm :     0.0005459 Eh/α   predicted    -0.1398310E-05 ( -56.17%)
   displ. norm   :     0.0426919 α      lambda       -0.1883275E-05
   maximum displ.:     0.0313408 α      in ANC's #1, #4, #2, ...

   *** GEOMETRY OPTIMIZATION CONVERGED AFTER 33 ITERATIONS ***

------------------------------------------------------------------------
 total energy gain   :        -0.0631272 Eh      -39.6129 kcal/mol
 total RMSD          :         0.8554786 a0        0.4527 Å
 total power (kW/mol):        -5.0224414 (step) -180.8383 (real)
------------------------------------------------------------------------

 ANCopt (total)                0 d,  0 h,  0 min,  0.917 sec
 optimizer setup                ...        0 min,  0.000 sec (  0.048%)
 model hessian                  ...        0 min,  0.004 sec (  0.446%)
 ANC generation                 ...        0 min,  0.001 sec (  0.103%)
 coordinate transformation      ...        0 min,  0.000 sec (  0.016%)
 single point calculation       ...        0 min,  0.897 sec ( 97.866%)
 optimization log               ...        0 min,  0.003 sec (  0.371%)
 hessian update                 ...        0 min,  0.000 sec (  0.036%)
 rational function              ...        0 min,  0.004 sec (  0.441%)

================
 final structure:
================
$coord
       -3.02092877687056        0.54064144247838        2.62607986839842      c
       -4.58082821477496        0.32904957049300        0.24911198699623      c
       -6.76583687861770        2.88140687458550        0.03664374237061      cl
       -2.62419953531652        0.38980784823533       -2.47608180544828      cl
       -6.32188333051055       -2.55359190528950        0.23502224457547      cl
       -1.93744076563635        2.28733349862026        2.58800376040201      h
       -1.73224926081512       -1.05681771268032        2.74111451148215      h
       -4.25843270967021        0.53956926146077        4.26697812524505      h
        5.11877080331831       -0.42443640955613        3.77909854223140      c
        4.56606140749405       -0.38661949479916        0.98123298020541      c
        3.10338135269887        2.51258999454623        0.10370322543566      cl
        7.40739739910255       -0.71201674355615       -0.79740899888110      cl
        2.50881635691976       -2.91424414793004        0.14385399900776      cl
        6.38984424055818        1.11923633596403        4.25399072359921      h
        6.00330963418881       -2.20896474552017        4.28610824834315      h
        3.37002101128663       -0.20987945591347        4.83712296659128      h
$end

 Bond Distances (Angstroems)
 ---------------------------
C1-C2=1.5087         C1-H6=1.0879         C1-H7=1.0878         C1-H8=1.0876         C2-C1=1.5087         C2-Cl3=1.7815        
C2-Cl4=1.7756        C2-Cl5=1.7821        Cl3-C2=1.7815        Cl4-C2=1.7756        Cl5-C2=1.7821        H6-C1=1.0879         
H7-C1=1.0878         H8-C1=1.0876         C9-C10=1.5093        C9-H14=1.0876        C9-H15=1.0876        C9-H16=1.0875        
C10-C9=1.5093        C10-Cl11=1.7800      C10-Cl12=1.7822      C10-Cl13=1.7806      Cl11-C10=1.7800      Cl12-C10=1.7822      
Cl13-C10=1.7806      H14-C9=1.0876        H15-C9=1.0876        H16-C9=1.0875        
 C  H  Rav=1.0877 sigma=0.0001  Rmin=1.0875  Rmax=1.0879     6
 C  C  Rav=1.5090 sigma=0.0003  Rmin=1.5087  Rmax=1.5093     2
 Cl C  Rav=1.7803 sigma=0.0023  Rmin=1.7756  Rmax=1.7822     6

 selected bond angles (degree)
 --------------------
H6-C1-C2=109.63                H7-C1-C2=109.39                H7-C1-H6=109.32                H8-C1-C2=109.64                
H8-C1-H6=109.43                H8-C1-H7=109.41                Cl3-C2-C1=110.58               Cl4-C2-C1=110.90               
Cl4-C2-Cl3=108.27              Cl5-C2-C1=110.48               Cl5-C2-Cl3=108.25              Cl5-C2-Cl4=108.27              
H14-C9-C10=109.67              H15-C9-C10=109.69              H15-C9-H14=109.21              H16-C9-C10=109.80              
H16-C9-H14=109.20              H16-C9-H15=109.26              Cl11-C10-C9=110.59             Cl12-C10-C9=110.69             
Cl12-C10-Cl11=108.20           Cl13-C10-C9=110.65             Cl13-C10-Cl11=108.46           Cl13-C10-Cl12=108.17           

 selected dihedral angles (degree)
 ---------------------------------
Cl3-C2-C1-H6=298.54           Cl3-C2-C1-H7=178.68           Cl3-C2-C1-H8= 58.69           Cl4-C2-C1-H6= 58.66           
Cl4-C2-C1-H7=298.80           Cl4-C2-C1-H8=178.81           Cl5-C2-C1-H6=178.72           Cl5-C2-C1-H7= 58.86           
Cl5-C2-C1-H8=298.87           Cl11-C10-C9-H14=299.68        Cl11-C10-C9-H15=179.75        Cl11-C10-C9-H16= 59.67        
Cl12-C10-C9-H14= 59.58        Cl12-C10-C9-H15=299.65        Cl12-C10-C9-H16=179.57        Cl13-C10-C9-H14=179.48        
Cl13-C10-C9-H15= 59.55        Cl13-C10-C9-H16=299.47        
           -------------------------------------------------
          |                Final Singlepoint                |
           -------------------------------------------------

          ...................................................
          :                      SETUP                      :
          :.................................................:
          :  # basis functions                  82          :
          :  # atomic orbitals                  76          :
          :  # shells                           32          :
          :  # electrons                        64          :
          :  max. iterations                   250          :
          :  Hamiltonian                  GFN2-xTB          :
          :  restarted?                      false          :
          :  GBSA solvation                  false          :
          :  PC potential                    false          :
          :  electronic temp.          300.0000000     K    :
          :  accuracy                    1.0000000          :
          :  -> integral cutoff          0.2500000E+02      :
          :  -> integral neglect         0.1000000E-07      :
          :  -> SCF convergence          0.1000000E-05 Eh   :
          :  -> wf. convergence          0.1000000E-03 e    :
          :  Broyden damping             0.4000000          :
          ...................................................

 iter      E             dE          RMSdq      gap      omega  full diag
   1    -39.0844452 -0.390844E+02  0.287E-04    5.46       0.0  T
   2    -39.0844452 -0.174410E-09  0.240E-04    5.46     104.2  T
   3    -39.0844452 -0.235659E-09  0.172E-04    5.46     145.7  T

   *** convergence criteria satisfied after 3 iterations ***

         #    Occupation            Energy/Eh            Energy/eV
      -------------------------------------------------------------
         1        2.0000           -1.0894072             -29.6443
       ...           ...                  ...                  ...
        26        2.0000           -0.4484108             -12.2019
        27        2.0000           -0.4480734             -12.1927
        28        2.0000           -0.4455455             -12.1239
        29        2.0000           -0.4417120             -12.0196
        30        2.0000           -0.4402836             -11.9807
        31        2.0000           -0.4386924             -11.9374
        32        2.0000           -0.4371241             -11.8948 (HOMO)
        33                         -0.2363313              -6.4309 (LUMO)
        34                         -0.2281302              -6.2077
        35                         -0.1837854              -5.0011
        36                         -0.1835990              -4.9960
        37                         -0.1763041              -4.7975
       ...                                ...                  ...
        76                          0.2166992               5.8967
      -------------------------------------------------------------
                  HL-Gap            0.2007928 Eh            5.4639 eV
             Fermi-level           -0.3367277 Eh           -9.1628 eV

 SCC (total)                   0 d,  0 h,  0 min,  0.021 sec
 SCC setup                      ...        0 min,  0.000 sec (  0.661%)
 Dispersion                     ...        0 min,  0.000 sec (  0.304%)
 classical contributions        ...        0 min,  0.000 sec (  0.143%)
 integral evaluation            ...        0 min,  0.005 sec ( 22.861%)
 iterations                     ...        0 min,  0.005 sec ( 22.654%)
 molecular gradient             ...        0 min,  0.011 sec ( 52.560%)
 printout                       ...        0 min,  0.000 sec (  0.771%)

         :::::::::::::::::::::::::::::::::::::::::::::::::::::
         ::                     SUMMARY                     ::
         :::::::::::::::::::::::::::::::::::::::::::::::::::::
         :: total energy             -38.927416103512 Eh    ::
         :: gradient norm              0.000534907874 Eh/a0 ::
         :: HOMO-LUMO gap              5.463850718074 eV    ::
         ::.................................................::
         :: SCC energy               -39.084445226256 Eh    ::
         :: -> isotropic ES            0.029420513271 Eh    ::
         :: -> anisotropic ES         -0.003436034610 Eh    ::
         :: -> anisotropic XC          0.008109919893 Eh    ::
         :: -> dispersion             -0.018177817572 Eh    ::
         :: repulsion energy           0.156942724847 Eh    ::
         :: add. restraining           0.000000000000 Eh    ::
         :: total charge               0.000000000000 e     ::
         :::::::::::::::::::::::::::::::::::::::::::::::::::::

           -------------------------------------------------
          |                Property Printout                |
           -------------------------------------------------

    * Orbital Energies and Occupations

         #    Occupation            Energy/Eh            Energy/eV
      -------------------------------------------------------------
         1        2.0000           -1.0894072             -29.6443
       ...           ...                  ...                  ...
        20        2.0000           -0.5005286             -13.6201
        21        2.0000           -0.4636031             -12.6153
        22        2.0000           -0.4632080             -12.6045
        23        2.0000           -0.4554842             -12.3944
        24        2.0000           -0.4552407             -12.3877
        25        2.0000           -0.4497243             -12.2376
        26        2.0000           -0.4484108             -12.2019
        27        2.0000           -0.4480734             -12.1927
        28        2.0000           -0.4455455             -12.1239
        29        2.0000           -0.4417120             -12.0196
        30        2.0000           -0.4402836             -11.9807
        31        2.0000           -0.4386924             -11.9374
        32        2.0000           -0.4371241             -11.8948 (HOMO)
        33                         -0.2363313              -6.4309 (LUMO)
        34                         -0.2281302              -6.2077
        35                         -0.1837854              -5.0011
        36                         -0.1835990              -4.9960
        37                         -0.1763041              -4.7975
        38                         -0.1745979              -4.7511
        39                         -0.0356351              -0.9697
        40                         -0.0274542              -0.7471
        41                         -0.0178517              -0.4858
        42                         -0.0174582              -0.4751
        43                         -0.0157729              -0.4292
       ...                                ...                  ...
        76                          0.2166992               5.8967
      -------------------------------------------------------------
                  HL-Gap            0.2007928 Eh            5.4639 eV
             Fermi-level           -0.3367277 Eh           -9.1628 eV

     #   Z          covCN         q      C6AA      α(0)
     1   6 c        3.852    -0.134    23.035     6.826
     2   6 c        3.640     0.240    17.201     5.965
     3  17 cl       1.240    -0.131   103.278    15.548
     4  17 cl       1.245    -0.121   102.972    15.525
     5  17 cl       1.240    -0.131   103.275    15.548
     6   1 h        0.925     0.093     1.852     2.128
     7   1 h        0.925     0.093     1.849     2.126
     8   1 h        0.925     0.089     1.888     2.148
     9   6 c        3.851    -0.136    23.072     6.832
    10   6 c        3.639     0.237    17.243     5.972
    11  17 cl       1.236    -0.125   103.074    15.533
    12  17 cl       1.238    -0.127   103.157    15.539
    13  17 cl       1.236    -0.125   103.078    15.533
    14   1 h        0.925     0.094     1.839     2.121
    15   1 h        0.925     0.094     1.841     2.122
    16   1 h        0.925     0.092     1.864     2.135

 Mol. C6AA /au·bohr⁶  :       7562.287872
 Mol. C8AA /au·bohr⁸  :     268370.980759
 Mol. α(0) /au        :        131.600791


Wiberg/Mayer (AO) data.
largest (>0.10) Wiberg bond orders for each atom

 ---------------------------------------------------------------------------
     #   Z sym  total        # sym  WBO       # sym  WBO       # sym  WBO
 ---------------------------------------------------------------------------
     1   6 c    3.972 --     2 c    1.017     8 h    0.972     6 h    0.970
                             7 h    0.968
     2   6 c    3.909 --     1 c    1.017     4 cl   0.966     3 cl   0.959
                             5 cl   0.959
     3  17 cl   1.072 --     2 c    0.959
     4  17 cl   1.080 --     2 c    0.966
     5  17 cl   1.072 --     2 c    0.959
     6   1 h    0.991 --     1 c    0.970
     7   1 h    0.991 --     1 c    0.968
     8   1 h    0.992 --     1 c    0.972
     9   6 c    3.972 --    10 c    1.016    16 h    0.971    15 h    0.971
                            14 h    0.971
    10   6 c    3.910 --     9 c    1.016    12 cl   0.963    11 cl   0.962
                            13 cl   0.961
    11  17 cl   1.078 --    10 c    0.962
    12  17 cl   1.076 --    10 c    0.963
    13  17 cl   1.080 --    10 c    0.961
    14   1 h    0.991 --     9 c    0.971
    15   1 h    0.991 --     9 c    0.971
    16   1 h    0.992 --     9 c    0.971
 ---------------------------------------------------------------------------

Topologies differ in total number of bonds
Writing topology from bond orders to xtbtopo.mol

molecular dipole:
                 x           y           z       tot (Debye)
 q only:        0.837       0.064       1.883
   full:        0.714       0.012       1.178       3.501
molecular quadrupole (traceless):
                xx          xy          yy          xz          yz          zz
 q only:       -6.559      -0.255      -2.523       4.900       0.057       9.081
  q+dip:       -4.177      -0.312      -3.337       3.922       0.227       7.514
   full:       -3.865      -0.348      -2.753       3.339       0.181       6.619

           -------------------------------------------------
          |                Geometry Summary                 |
           -------------------------------------------------

      molecular mass/u    :      266.8082136
   center of mass at/Å    :       -0.1240281      -0.0255112       0.0341478
  moments of inertia/u·Å² :        0.4643315E+03   0.2086583E+04   0.2218781E+04
rotational constants/cm⁻¹ :        0.3630516E-01   0.8079062E-02   0.7597698E-02

 * 14 selected distances

     #   Z          #   Z                                           value/Å
     1   6 c        2   6 c                                       1.5086688
     2   6 c        3  17 cl                                      1.7815233
     2   6 c        4  17 cl                                      1.7756061
     2   6 c        5  17 cl                                      1.7820859
     1   6 c        6   1 h                                       1.0878846
     1   6 c        7   1 h                                       1.0878170
     1   6 c        8   1 h                                       1.0875802
     9   6 c       10   6 c                                       1.5093124
    10   6 c       11  17 cl                                      1.7800273
    10   6 c       12  17 cl                                      1.7822075 (max)
    10   6 c       13  17 cl                                      1.7806125
     9   6 c       14   1 h                                       1.0875946
     9   6 c       15   1 h                                       1.0875860
     9   6 c       16   1 h                                       1.0875302 (min)

 * 3 distinct bonds (by element types)

   Z      Z             #   av. dist./Å        max./Å        min./Å
   1 H    6 C           6     1.0876654     1.0878846     1.0875302
   6 C    6 C           2     1.5089906     1.5093124     1.5086688
   6 C   17 Cl          6     1.7803438     1.7822075     1.7756061


optimized geometry written to: xtbopt.coord


           -------------------------------------------------
          | TOTAL ENERGY              -38.927416103512 Eh   |
          | GRADIENT NORM               0.000534907874 Eh/α |
          | HOMO-LUMO GAP               5.463850718074 eV   |
           -------------------------------------------------

------------------------------------------------------------------------
 * finished run on 2022/08/08 at 16:16:34.534     
------------------------------------------------------------------------
 total:
 * wall-time:     0 d,  0 h,  0 min,  1.016 sec
 *  cpu-time:     0 d,  0 h,  0 min,  0.985 sec
 * ratio c/w:     0.970 speedup
 SCF:
 * wall-time:     0 d,  0 h,  0 min,  0.038 sec
 *  cpu-time:     0 d,  0 h,  0 min,  0.038 sec
 * ratio c/w:     0.994 speedup
 ANC optimizer:
 * wall-time:     0 d,  0 h,  0 min,  0.941 sec
 *  cpu-time:     0 d,  0 h,  0 min,  0.932 sec
 * ratio c/w:     0.991 speedup

