 Entering Gaussian System, Link 0=g16
 Input=gaussian_test.inp
 Output=gaussian_test.log
 Initial command:
 /sw/restricted/lms/sw/Gaussian/g16_B01/g16/l1.exe "/scratch/user/peterchao1/peterchao1/6113323_1660079103000000798731185/Gau-109715.inp" -scrdir="/scratch/user/peterchao1/peterchao1/6113323_1660079103000000798731185/"
 Entering Link 1 = /sw/restricted/lms/sw/Gaussian/g16_B01/g16/l1.exe PID=    109716.
  
 Copyright (c) 1988-2017, Gaussian, Inc.  All Rights Reserved.
  
 This is part of the Gaussian(R) 16 program.  It is based on
 the Gaussian(R) 09 system (copyright 2009, Gaussian, Inc.),
 the Gaussian(R) 03 system (copyright 2003, Gaussian, Inc.),
 the Gaussian(R) 98 system (copyright 1998, Gaussian, Inc.),
 the Gaussian(R) 94 system (copyright 1995, Gaussian, Inc.),
 the Gaussian 92(TM) system (copyright 1992, Gaussian, Inc.),
 the Gaussian 90(TM) system (copyright 1990, Gaussian, Inc.),
 the Gaussian 88(TM) system (copyright 1988, Gaussian, Inc.),
 the Gaussian 86(TM) system (copyright 1986, Carnegie Mellon
 University), and the Gaussian 82(TM) system (copyright 1983,
 Carnegie Mellon University). Gaussian is a federally registered
 trademark of Gaussian, Inc.
  
 This software contains proprietary and confidential information,
 including trade secrets, belonging to Gaussian, Inc.
  
 This software is provided under written license and may be
 used, copied, transmitted, or stored only in accord with that
 written license.
  
 The following legend is applicable only to US Government
 contracts under FAR:
  
                    RESTRICTED RIGHTS LEGEND
  
 Use, reproduction and disclosure by the US Government is
 subject to restrictions as set forth in subparagraphs (a)
 and (c) of the Commercial Computer Software - Restricted
 Rights clause in FAR 52.227-19.
  
 Gaussian, Inc.
 340 Quinnipiac St., Bldg. 40, Wallingford CT 06492
  
  
 ---------------------------------------------------------------
 Warning -- This program may not be used in any manner that
 competes with the business of Gaussian, Inc. or will provide
 assistance to any competitor of Gaussian, Inc.  The licensee
 of this program is prohibited from giving any competitor of
 Gaussian, Inc. access to this program.  By using this program,
 the user acknowledges that Gaussian, Inc. is engaged in the
 business of creating and licensing software in the field of
 computational chemistry and represents and warrants to the
 licensee that it is not a competitor of Gaussian, Inc. and that
 it will not use this program in any manner prohibited above.
 ---------------------------------------------------------------
  

 Cite this work as:
 Gaussian 16, Revision B.01,
 M. J. Frisch, G. W. Trucks, H. B. Schlegel, G. E. Scuseria, 
 M. A. Robb, J. R. Cheeseman, G. Scalmani, V. Barone, 
 G. A. Petersson, H. Nakatsuji, X. Li, M. Caricato, A. V. Marenich, 
 J. Bloino, B. G. Janesko, R. Gomperts, B. Mennucci, H. P. Hratchian, 
 J. V. Ortiz, A. F. Izmaylov, J. L. Sonnenberg, D. Williams-Young, 
 F. Ding, F. Lipparini, F. Egidi, J. Goings, B. Peng, A. Petrone, 
 T. Henderson, D. Ranasinghe, V. G. Zakrzewski, J. Gao, N. Rega, 
 G. Zheng, W. Liang, M. Hada, M. Ehara, K. Toyota, R. Fukuda, 
 J. Hasegawa, M. Ishida, T. Nakajima, Y. Honda, O. Kitao, H. Nakai, 
 T. Vreven, K. Throssell, J. A. Montgomery, Jr., J. E. Peralta, 
 F. Ogliaro, M. J. Bearpark, J. J. Heyd, E. N. Brothers, K. N. Kudin, 
 V. N. Staroverov, T. A. Keith, R. Kobayashi, J. Normand, 
 K. Raghavachari, A. P. Rendell, J. C. Burant, S. S. Iyengar, 
 J. Tomasi, M. Cossi, J. M. Millam, M. Klene, C. Adamo, R. Cammi, 
 J. W. Ochterski, R. L. Martin, K. Morokuma, O. Farkas, 
 J. B. Foresman, and D. J. Fox, Gaussian, Inc., Wallingford CT, 2016.
 
 ******************************************
 Gaussian 16:  ES64L-G16RevB.01 20-Dec-2017
                 9-Aug-2022 
 ******************************************
 %nprocshared=4
 Will use up to    4 processors via shared memory.
 %mem=8000mb
 ----------------------------------------------------------------------
 #T wB97XD/def2svpp opt=tight freq int(grid=ultrafine) scf=(verytight,q
 c)
 ----------------------------------------------------------------------
 -----
 dimer
 -----
 Symbolic Z-matrix:
 Charge =  0 Multiplicity = 1
 C                     2.50188  -0.33932  -1.61849 
 C                     2.54421  -0.28782  -0.09629 
 C                     2.25853  -1.64543   0.52421 
 C                     3.8677    0.29589   0.40511 
 N                     1.50574   0.68184   0.35389 
 O                     0.84774   0.41242   1.33154 
 O                     1.40599   1.71986  -0.25672 
 H                     1.53443  -0.70944  -1.94789 
 H                     3.27959  -1.00299  -1.98527 
 H                     2.65693   0.65158  -2.0374 
 H                     3.02046  -2.35519   0.21487 
 H                     1.28897  -2.01058   0.19566 
 H                     2.2547   -1.58553   1.60963 
 H                     4.69003  -0.33955   0.08745 
 H                     3.87602   0.3543    1.49209 
 H                     4.02026   1.29312  -0.00294 
 C                    -1.95872   1.51929  -0.88936 
 C                    -2.47874   0.37795  -0.03153 
 C                    -2.40794   0.70725   1.45931 
 C                    -3.89151  -0.03694  -0.43814 
 N                    -1.61074  -0.82172  -0.2174 
 O                    -0.62669  -0.7235   -0.91433 
 O                    -1.93926  -1.83552   0.34911 
 H                    -0.95436   1.81129  -0.59374 
 H                    -2.61201   2.38025  -0.77867 
 H                    -1.93345   1.23409  -1.9388 
 H                    -1.38112   0.91361   1.75414 
 H                    -2.77496  -0.13147   2.04645 
 H                    -3.01669   1.58155   1.67183 
 H                    -3.94007  -0.24731  -1.50503 
 H                    -4.58815   0.7656   -0.21223 
 H                    -4.19423  -0.92695   0.10901 
 
 Add virtual bond connecting atoms O22        and H8         Dist= 4.53D+00.
 Add virtual bond connecting atoms H24        and O7         Dist= 4.51D+00.
 Add virtual bond connecting atoms H27        and O6         Dist= 4.39D+00.

 GradGradGradGradGradGradGradGradGradGradGradGradGradGradGradGradGradGrad
 Initialization pass.
                           ----------------------------
                           !    Initial Parameters    !
                           ! (Angstroms and Degrees)  !
 --------------------------                            --------------------------
 ! Name  Definition              Value          Derivative Info.                !
 --------------------------------------------------------------------------------
 ! R1    R(1,2)                  1.5237         estimate D2E/DX2                !
 ! R2    R(1,8)                  1.087          estimate D2E/DX2                !
 ! R3    R(1,9)                  1.0862         estimate D2E/DX2                !
 ! R4    R(1,10)                 1.0869         estimate D2E/DX2                !
 ! R5    R(2,3)                  1.5198         estimate D2E/DX2                !
 ! R6    R(2,4)                  1.5309         estimate D2E/DX2                !
 ! R7    R(2,5)                  1.4904         estimate D2E/DX2                !
 ! R8    R(3,11)                 1.0863         estimate D2E/DX2                !
 ! R9    R(3,12)                 1.0869         estimate D2E/DX2                !
 ! R10   R(3,13)                 1.0871         estimate D2E/DX2                !
 ! R11   R(4,14)                 1.0867         estimate D2E/DX2                !
 ! R12   R(4,15)                 1.0886         estimate D2E/DX2                !
 ! R13   R(4,16)                 1.0882         estimate D2E/DX2                !
 ! R14   R(5,6)                  1.2089         estimate D2E/DX2                !
 ! R15   R(5,7)                  1.2084         estimate D2E/DX2                !
 ! R16   R(6,27)                 2.3233         estimate D2E/DX2                !
 ! R17   R(7,24)                 2.386          estimate D2E/DX2                !
 ! R18   R(8,22)                 2.3956         estimate D2E/DX2                !
 ! R19   R(17,18)                1.5195         estimate D2E/DX2                !
 ! R20   R(17,24)                1.0869         estimate D2E/DX2                !
 ! R21   R(17,25)                1.0864         estimate D2E/DX2                !
 ! R22   R(17,26)                1.0878         estimate D2E/DX2                !
 ! R23   R(18,19)                1.5284         estimate D2E/DX2                !
 ! R24   R(18,20)                1.5275         estimate D2E/DX2                !
 ! R25   R(18,21)                1.4924         estimate D2E/DX2                !
 ! R26   R(19,27)                1.0881         estimate D2E/DX2                !
 ! R27   R(19,28)                1.0876         estimate D2E/DX2                !
 ! R28   R(19,29)                1.0863         estimate D2E/DX2                !
 ! R29   R(20,30)                1.0885         estimate D2E/DX2                !
 ! R30   R(20,31)                1.0865         estimate D2E/DX2                !
 ! R31   R(20,32)                1.0877         estimate D2E/DX2                !
 ! R32   R(21,22)                1.2098         estimate D2E/DX2                !
 ! R33   R(21,23)                1.2069         estimate D2E/DX2                !
 ! A1    A(2,1,8)              109.8155         estimate D2E/DX2                !
 ! A2    A(2,1,9)              109.7618         estimate D2E/DX2                !
 ! A3    A(2,1,10)             110.5031         estimate D2E/DX2                !
 ! A4    A(8,1,9)              109.08           estimate D2E/DX2                !
 ! A5    A(8,1,10)             108.6993         estimate D2E/DX2                !
 ! A6    A(9,1,10)             108.9509         estimate D2E/DX2                !
 ! A7    A(1,2,3)              111.8682         estimate D2E/DX2                !
 ! A8    A(1,2,4)              111.3524         estimate D2E/DX2                !
 ! A9    A(1,2,5)              107.722          estimate D2E/DX2                !
 ! A10   A(3,2,4)              111.6773         estimate D2E/DX2                !
 ! A11   A(3,2,5)              109.0792         estimate D2E/DX2                !
 ! A12   A(4,2,5)              104.7958         estimate D2E/DX2                !
 ! A13   A(2,3,11)             109.6067         estimate D2E/DX2                !
 ! A14   A(2,3,12)             110.1437         estimate D2E/DX2                !
 ! A15   A(2,3,13)             111.0448         estimate D2E/DX2                !
 ! A16   A(11,3,12)            108.6694         estimate D2E/DX2                !
 ! A17   A(11,3,13)            108.8332         estimate D2E/DX2                !
 ! A18   A(12,3,13)            108.4924         estimate D2E/DX2                !
 ! A19   A(2,4,14)             109.6031         estimate D2E/DX2                !
 ! A20   A(2,4,15)             110.738          estimate D2E/DX2                !
 ! A21   A(2,4,16)             110.3516         estimate D2E/DX2                !
 ! A22   A(14,4,15)            108.5106         estimate D2E/DX2                !
 ! A23   A(14,4,16)            108.6726         estimate D2E/DX2                !
 ! A24   A(15,4,16)            108.9151         estimate D2E/DX2                !
 ! A25   A(2,5,6)              118.5909         estimate D2E/DX2                !
 ! A26   A(2,5,7)              117.6288         estimate D2E/DX2                !
 ! A27   A(6,5,7)              123.7215         estimate D2E/DX2                !
 ! A28   A(5,6,27)             128.4058         estimate D2E/DX2                !
 ! A29   A(5,7,24)             100.7159         estimate D2E/DX2                !
 ! A30   A(1,8,22)             132.3919         estimate D2E/DX2                !
 ! A31   A(18,17,24)           111.3751         estimate D2E/DX2                !
 ! A32   A(18,17,25)           109.3861         estimate D2E/DX2                !
 ! A33   A(18,17,26)           110.833          estimate D2E/DX2                !
 ! A34   A(24,17,25)           108.3635         estimate D2E/DX2                !
 ! A35   A(24,17,26)           108.1417         estimate D2E/DX2                !
 ! A36   A(25,17,26)           108.6653         estimate D2E/DX2                !
 ! A37   A(17,18,19)           111.899          estimate D2E/DX2                !
 ! A38   A(17,18,20)           111.7312         estimate D2E/DX2                !
 ! A39   A(17,18,21)           109.5384         estimate D2E/DX2                !
 ! A40   A(19,18,20)           111.1618         estimate D2E/DX2                !
 ! A41   A(19,18,21)           105.5297         estimate D2E/DX2                !
 ! A42   A(20,18,21)           106.6448         estimate D2E/DX2                !
 ! A43   A(18,19,27)           110.4191         estimate D2E/DX2                !
 ! A44   A(18,19,28)           110.1688         estimate D2E/DX2                !
 ! A45   A(18,19,29)           109.7706         estimate D2E/DX2                !
 ! A46   A(27,19,28)           108.5686         estimate D2E/DX2                !
 ! A47   A(27,19,29)           108.8558         estimate D2E/DX2                !
 ! A48   A(28,19,29)           109.0222         estimate D2E/DX2                !
 ! A49   A(18,20,30)           110.772          estimate D2E/DX2                !
 ! A50   A(18,20,31)           109.697          estimate D2E/DX2                !
 ! A51   A(18,20,32)           110.227          estimate D2E/DX2                !
 ! A52   A(30,20,31)           108.5394         estimate D2E/DX2                !
 ! A53   A(30,20,32)           108.8127         estimate D2E/DX2                !
 ! A54   A(31,20,32)           108.7449         estimate D2E/DX2                !
 ! A55   A(18,21,22)           118.6569         estimate D2E/DX2                !
 ! A56   A(18,21,23)           117.2882         estimate D2E/DX2                !
 ! A57   A(22,21,23)           124.0542         estimate D2E/DX2                !
 ! A58   A(7,24,17)            160.4269         estimate D2E/DX2                !
 ! A59   A(6,27,19)            144.6038         estimate D2E/DX2                !
 ! A60   L(8,22,21,6,-1)       172.7114         estimate D2E/DX2                !
 ! A61   L(8,22,21,6,-2)       187.7879         estimate D2E/DX2                !
 ! D1    D(8,1,2,3)             57.1167         estimate D2E/DX2                !
 ! D2    D(8,1,2,4)           -177.1327         estimate D2E/DX2                !
 ! D3    D(8,1,2,5)            -62.7527         estimate D2E/DX2                !
 ! D4    D(9,1,2,3)            -62.7946         estimate D2E/DX2                !
 ! D5    D(9,1,2,4)             62.956          estimate D2E/DX2                !
 ! D6    D(9,1,2,5)            177.336          estimate D2E/DX2                !
 ! D7    D(10,1,2,3)           177.0222         estimate D2E/DX2                !
 ! D8    D(10,1,2,4)           -57.2272         estimate D2E/DX2                !
 ! D9    D(10,1,2,5)            57.1528         estimate D2E/DX2                !
 ! D10   D(2,1,8,22)            24.0883         estimate D2E/DX2                !
 ! D11   D(9,1,8,22)           144.414          estimate D2E/DX2                !
 ! D12   D(10,1,8,22)          -96.9098         estimate D2E/DX2                !
 ! D13   D(1,2,3,11)            61.8772         estimate D2E/DX2                !
 ! D14   D(1,2,3,12)           -57.6354         estimate D2E/DX2                !
 ! D15   D(1,2,3,13)          -177.8424         estimate D2E/DX2                !
 ! D16   D(4,2,3,11)           -63.6949         estimate D2E/DX2                !
 ! D17   D(4,2,3,12)           176.7925         estimate D2E/DX2                !
 ! D18   D(4,2,3,13)            56.5855         estimate D2E/DX2                !
 ! D19   D(5,2,3,11)          -179.0524         estimate D2E/DX2                !
 ! D20   D(5,2,3,12)            61.4349         estimate D2E/DX2                !
 ! D21   D(5,2,3,13)           -58.772          estimate D2E/DX2                !
 ! D22   D(1,2,4,14)           -61.9237         estimate D2E/DX2                !
 ! D23   D(1,2,4,15)           178.3929         estimate D2E/DX2                !
 ! D24   D(1,2,4,16)            57.7191         estimate D2E/DX2                !
 ! D25   D(3,2,4,14)            63.9325         estimate D2E/DX2                !
 ! D26   D(3,2,4,15)           -55.7508         estimate D2E/DX2                !
 ! D27   D(3,2,4,16)          -176.4246         estimate D2E/DX2                !
 ! D28   D(5,2,4,14)          -178.1107         estimate D2E/DX2                !
 ! D29   D(5,2,4,15)            62.2059         estimate D2E/DX2                !
 ! D30   D(5,2,4,16)           -58.4678         estimate D2E/DX2                !
 ! D31   D(1,2,5,6)            139.8851         estimate D2E/DX2                !
 ! D32   D(1,2,5,7)            -42.798          estimate D2E/DX2                !
 ! D33   D(3,2,5,6)             18.2648         estimate D2E/DX2                !
 ! D34   D(3,2,5,7)           -164.4183         estimate D2E/DX2                !
 ! D35   D(4,2,5,6)           -101.4452         estimate D2E/DX2                !
 ! D36   D(4,2,5,7)             75.8716         estimate D2E/DX2                !
 ! D37   D(2,5,6,27)          -145.4117         estimate D2E/DX2                !
 ! D38   D(7,5,6,27)            37.4465         estimate D2E/DX2                !
 ! D39   D(2,5,7,24)           132.2497         estimate D2E/DX2                !
 ! D40   D(6,5,7,24)           -50.583          estimate D2E/DX2                !
 ! D41   D(5,6,27,19)           68.0601         estimate D2E/DX2                !
 ! D42   D(5,7,24,17)          -54.264          estimate D2E/DX2                !
 ! D43   D(1,8,21,18)           77.0057         estimate D2E/DX2                !
 ! D44   D(1,8,21,23)          -96.025          estimate D2E/DX2                !
 ! D45   D(24,17,18,19)         54.485          estimate D2E/DX2                !
 ! D46   D(24,17,18,20)        179.8697         estimate D2E/DX2                !
 ! D47   D(24,17,18,21)        -62.1844         estimate D2E/DX2                !
 ! D48   D(25,17,18,19)        -65.2755         estimate D2E/DX2                !
 ! D49   D(25,17,18,20)         60.1091         estimate D2E/DX2                !
 ! D50   D(25,17,18,21)        178.0551         estimate D2E/DX2                !
 ! D51   D(26,17,18,19)        174.9288         estimate D2E/DX2                !
 ! D52   D(26,17,18,20)        -59.6865         estimate D2E/DX2                !
 ! D53   D(26,17,18,21)         58.2594         estimate D2E/DX2                !
 ! D54   D(18,17,24,7)          68.6876         estimate D2E/DX2                !
 ! D55   D(25,17,24,7)        -170.9479         estimate D2E/DX2                !
 ! D56   D(26,17,24,7)         -53.3272         estimate D2E/DX2                !
 ! D57   D(17,18,19,27)        -59.4043         estimate D2E/DX2                !
 ! D58   D(17,18,19,28)       -179.3202         estimate D2E/DX2                !
 ! D59   D(17,18,19,29)         60.6135         estimate D2E/DX2                !
 ! D60   D(20,18,19,27)        174.8979         estimate D2E/DX2                !
 ! D61   D(20,18,19,28)         54.982          estimate D2E/DX2                !
 ! D62   D(20,18,19,29)        -65.0843         estimate D2E/DX2                !
 ! D63   D(21,18,19,27)         59.6611         estimate D2E/DX2                !
 ! D64   D(21,18,19,28)        -60.2547         estimate D2E/DX2                !
 ! D65   D(21,18,19,29)        179.6789         estimate D2E/DX2                !
 ! D66   D(17,18,20,30)         52.8768         estimate D2E/DX2                !
 ! D67   D(17,18,20,31)        -66.9238         estimate D2E/DX2                !
 ! D68   D(17,18,20,32)        173.3624         estimate D2E/DX2                !
 ! D69   D(19,18,20,30)        178.668          estimate D2E/DX2                !
 ! D70   D(19,18,20,31)         58.8674         estimate D2E/DX2                !
 ! D71   D(19,18,20,32)        -60.8464         estimate D2E/DX2                !
 ! D72   D(21,18,20,30)        -66.7884         estimate D2E/DX2                !
 ! D73   D(21,18,20,31)        173.411          estimate D2E/DX2                !
 ! D74   D(21,18,20,32)         53.6972         estimate D2E/DX2                !
 ! D75   D(17,18,21,22)          4.0406         estimate D2E/DX2                !
 ! D76   D(17,18,21,23)       -176.2483         estimate D2E/DX2                !
 ! D77   D(19,18,21,22)       -116.5813         estimate D2E/DX2                !
 ! D78   D(19,18,21,23)         63.1299         estimate D2E/DX2                !
 ! D79   D(20,18,21,22)        125.115          estimate D2E/DX2                !
 ! D80   D(20,18,21,23)        -55.1738         estimate D2E/DX2                !
 ! D81   D(18,19,27,6)         -31.2928         estimate D2E/DX2                !
 ! D82   D(28,19,27,6)          89.5821         estimate D2E/DX2                !
 ! D83   D(29,19,27,6)        -151.8594         estimate D2E/DX2                !
 --------------------------------------------------------------------------------
 Number of steps in this run=    187 maximum allowed number of steps=    192.
 GradGradGradGradGradGradGradGradGradGradGradGradGradGradGradGradGradGrad

                    Distance matrix (angstroms):
                    1          2          3          4          5
     1  C    0.000000
     2  C    1.523661   0.000000
     3  C    2.521171   1.519782   0.000000
     4  C    2.522681   1.530930   2.524349   0.000000
     5  N    2.434207   1.490408   2.451909   2.393835   0.000000
     6  O    3.464681   2.325311   2.622383   3.161023   1.208861
     7  O    2.701043   2.313454   3.558353   2.919889   1.208431
     8  H    1.086950   2.150777   2.740738   3.462869   2.689735
     9  H    1.086193   2.149535   2.784376   2.783325   3.384800
    10  H    1.086925   2.159417   3.463640   2.749243   2.654135
    11  H    2.773790   2.144222   1.086273   2.789673   3.396654
    12  H    2.748716   2.151462   1.086894   3.466059   2.705756
    13  H    3.469136   2.162875   1.087080   2.755432   2.697912
    14  H    2.774571   2.154295   2.794329   1.086700   3.354689
    15  H    3.470607   2.170022   2.748090   1.088585   2.649718
    16  H    2.753243   2.164898   3.466499   1.088227   2.612238
    17  C    4.887024   4.916398   5.458831   6.092580   3.774848
    18  C    5.276317   5.067298   5.181185   6.361978   4.014598
    19  C    5.888511   5.285252   5.309004   6.376855   4.066878
    20  C    6.508463   6.449673   6.429336   7.811991   5.502203
    21  N    4.371434   4.190866   4.024894   5.625827   3.507065
    22  O    3.229764   3.303575   3.353184   4.793706   2.851422
    23  O    5.082696   4.763955   4.205739   6.186021   4.266745
    24  H    4.197723   4.110199   4.849887   5.152326   2.868062
    25  H    5.852628   5.845584   6.451804   6.908876   4.595996
    26  H    4.717029   5.075479   5.650729   6.326729   4.170067
    27  H    5.293602   4.502865   4.616117   5.454509   3.216892
    28  H    6.428064   5.736664   5.472231   6.855768   4.674458
    29  H    6.706013   6.127352   6.289550   7.117052   4.795711
    30  H    6.443607   6.635668   6.670473   8.056365   5.828872
    31  H    7.312113   7.210668   7.296060   8.491361   6.120704
    32  H    6.940282   6.771800   6.505905   8.159525   5.927719
                    6          7          8          9         10
     6  O    0.000000
     7  O    2.131579   0.000000
     8  H    3.533380   2.962781   0.000000
     9  H    4.349545   3.729906   1.770070   0.000000
    10  H    3.831466   2.424228   1.766467   1.768628   0.000000
    11  H    3.691530   4.408517   3.097470   2.595424   3.774334
    12  H    2.712164   3.759594   2.519526   3.119980   3.734299
    13  H    2.459404   3.889623   3.733929   3.783259   4.297355
    14  H    4.108099   3.891603   3.773230   2.593394   3.103361
    15  H    3.033096   3.320266   4.295123   3.780218   3.745916
    16  H    3.552652   2.660996   3.737973   3.122562   2.531657
    17  C    3.746163   3.429535   4.276657   5.916313   4.834777
    18  C    3.595082   4.116137   4.578249   6.235578   5.520277
    19  C    3.271495   4.303048   5.399844   6.865717   6.154915
    20  C    5.078792   5.584151   5.672069   7.399422   6.775963
    21  N    3.156967   3.944851   3.591556   5.203222   4.867853
    22  O    2.916879   3.245651   2.395588   4.060048   3.732859
    23  O    3.712917   4.919195   4.314015   5.777435   5.745086
    24  H    2.985143   2.386045   3.792348   5.270948   4.058387
    25  H    4.505016   4.105223   5.301531   6.900228   5.686334
    26  H    4.370956   3.770573   3.975370   5.672956   4.628238
    27  H    2.323273   3.530101   4.983950   6.275253   5.545294
    28  H    3.732399   5.119797   5.904198   7.326104   6.840783
    29  H    4.051724   4.826859   6.250095   7.726407   6.842015
    30  H    5.603968   5.831671   5.511787   7.274964   6.679204
    31  H    5.661874   6.069787   6.532553   8.256689   7.472309
    32  H    5.358167   6.204988   6.090621   7.762071   7.351000
                   11         12         13         14         15
    11  H    0.000000
    12  H    1.765561   0.000000
    13  H    1.767521   1.764257   0.000000
    14  H    2.620410   3.790953   3.130554   0.000000
    15  H    3.115230   3.737145   2.530900   1.765522   0.000000
    16  H    3.789095   4.291133   3.742216   1.767026   1.771240
    17  C    6.404935   4.917794   5.799801   6.972469   6.408798
    18  C    6.145894   4.466799   5.380899   7.205574   6.534907
    19  C    6.355688   4.759258   5.198039   7.304728   6.293952
    20  C    7.319566   5.579808   6.660878   8.602945   8.013325
    21  N    4.897596   3.161061   4.343161   6.326547   5.866001
    22  O    4.152013   2.560933   3.926299   5.423882   5.217941
    23  O    4.988674   3.236604   4.386415   6.801022   6.318165
    24  H    5.814866   4.501371   5.166355   6.078597   5.459497
    25  H    7.425382   5.953681   6.716857   7.840109   7.166266
    26  H    6.485559   5.046558   6.171071   7.102995   6.804043
    27  H    5.694594   4.255481   4.414268   6.419286   5.293305
    28  H    6.471977   4.844782   5.253807   7.720560   6.691695
    29  H    7.353088   5.798373   6.149941   8.099044   7.003425
    30  H    7.473300   5.774449   7.061658   8.776284   8.392613
    31  H    8.234850   6.512607   7.461334   9.348576   8.643847
    32  H    7.355467   5.589921   6.653891   8.903690   8.287553
                   16         17         18         19         20
    16  H    0.000000
    17  C    6.048554   0.000000
    18  C    6.563180   1.519527   0.000000
    19  C    6.618392   2.525368   1.528424   0.000000
    20  C    8.034579   2.522129   1.527536   2.520939   0.000000
    21  N    6.018859   2.460274   1.492371   2.405132   2.422085
    22  O    5.146986   2.608649   2.328655   3.294559   3.370042
    23  O    6.740039   3.576167   2.309845   2.813882   2.768745
    24  H    5.036307   1.086912   2.166624   2.747141   3.473753
    25  H    6.765394   1.086414   2.141305   2.801629   2.756063
    26  H    6.260803   1.087797   2.160551   3.471292   2.775153
    27  H    5.692649   2.772825   2.163407   1.088052   3.465785
    28  H    7.239082   3.465578   2.159920   1.087603   2.725584
    29  H    7.239246   2.771801   2.153946   1.086340   2.799423
    30  H    8.245968   2.725013   2.167399   3.470727   1.088515
    31  H    8.627093   2.817887   2.152332   2.747866   1.086473
    32  H    8.509939   3.460980   2.159959   2.772146   1.087720
                   21         22         23         24         25
    21  N    0.000000
    22  O    1.209845   0.000000
    23  O    1.206921   2.134414   0.000000
    24  H    2.739558   2.575909   3.893353   0.000000
    25  H    3.401495   3.686894   4.415567   1.762302   0.000000
    26  H    2.700683   2.566966   3.828455   1.760956   1.766364
    27  H    2.636489   3.220257   3.137413   2.549601   3.175095
    28  H    2.637586   3.705643   2.546204   3.749589   3.783723
    29  H    3.364756   4.208754   3.819270   3.072256   2.608951
    30  H    2.722810   3.399145   3.156501   3.739347   3.032396
    31  H    3.374105   4.289940   3.754676   3.800449   2.614016
    32  H    2.606155   3.716989   2.442963   4.299831   3.772133
                   26         27         28         29         30
    26  H    0.000000
    27  H    3.747742   0.000000
    28  H    4.295937   1.766465   0.000000
    29  H    3.785601   1.768616   1.770085   0.000000
    30  H    2.531644   4.303269   3.739506   3.780181   0.000000
    31  H    3.201246   3.764773   3.032164   2.585518   1.765601
    32  H    3.738280   3.742688   2.529985   3.181443   1.769639
                   31         32
    31  H    0.000000
    32  H    1.767230   0.000000
 Framework group  C1[X(C8H18N2O4)]
 Deg. of freedom    90
                         Standard orientation:                         
 ---------------------------------------------------------------------
 Center     Atomic      Atomic             Coordinates (Angstroms)
 Number     Number       Type             X           Y           Z
 ---------------------------------------------------------------------
      1          6           0        2.510721    0.236013    1.608332
      2          6           0        2.545632    0.230148    0.085082
      3          6           0        2.290950    1.612716   -0.492310
      4          6           0        3.852325   -0.370144   -0.440227
      5          7           0        1.481804   -0.699550   -0.389521
      6          8           0        0.826692   -0.384291   -1.355328
      7          8           0        1.359002   -1.753046    0.189594
      8          1           0        1.554005    0.619441    1.953495
      9          1           0        3.305995    0.868908    1.991474
     10          1           0        2.643021   -0.770753    1.996048
     11          1           0        3.071355    2.293813   -0.165101
     12          1           0        1.331994    1.991250   -0.148138
     13          1           0        2.281261    1.586206   -1.579023
     14          1           0        4.691318    0.234949   -0.107256
     15          1           0        3.854819   -0.395414   -1.528516
     16          1           0        3.981933   -1.382840   -0.063551
     17          6           0       -1.997170   -1.489659    0.844150
     18          6           0       -2.492406   -0.310186    0.024061
     19          6           0       -2.435743   -0.595299   -1.476466
     20          6           0       -3.892881    0.126503    0.449898
     21          7           0       -1.594402    0.861620    0.242310
     22          8           0       -0.610259    0.718042    0.931202
     23          8           0       -1.900150    1.900040   -0.291412
     24          1           0       -1.001509   -1.796955    0.534947
     25          1           0       -2.671895   -2.330576    0.710353
     26          1           0       -1.960660   -1.237441    1.901673
     27          1           0       -1.415514   -0.817597   -1.782363
     28          1           0       -2.784371    0.269746   -2.035961
     29          1           0       -3.066680   -1.447512   -1.712655
     30          1           0       -3.931948    0.305218    1.522931
     31          1           0       -4.609970   -0.651450    0.202924
     32          1           0       -4.175817    1.040002   -0.068372
 ---------------------------------------------------------------------
 Rotational constants (GHZ):           1.3071842           0.3971167           0.3748362
   232 basis functions,   422 primitive gaussians,   246 cartesian basis functions
    56 alpha electrons       56 beta electrons
       nuclear repulsion energy      1048.4920074654 Hartrees.
 NAtoms=   32 NActive=   32 NUniq=   32 SFac= 1.00D+00 NAtFMM=   60 NAOKFM=F Big=F
 Nuclear repulsion after empirical dispersion term =     1048.4674852948 Hartrees.
   1 Symmetry operations used in ECPInt.
 ECPInt:  NShTT=    7260 NPrTT=   29156 LenC2=    7045 LenP2D=   20215.
 LDataN:  DoStor=T MaxTD1= 4 Len=   56
 ExpMin= 1.22D-01 ExpMax= 2.27D+03 ExpMxC= 3.41D+02 IAcc=3 IRadAn=         5 AccDes= 0.00D+00
 Harris functional with IExCor= 4639 and IRadAn=       5 diagonalized for initial guess.
 HarFok:  IExCor= 4639 AccDes= 0.00D+00 IRadAn=         5 IDoV= 1 UseB2=F ITyADJ=14
 ICtDFT=  3500011 ScaDFX=  1.000000  1.000000  1.000000  1.000000
 FoFCou: FMM=F IPFlag=           0 FMFlag=      100000 FMFlg1=           0
         NFxFlg=           0 DoJE=T BraDBF=F KetDBF=T FulRan=T
         wScrn=  0.000000 ICntrl=       500 IOpCl=  0 I1Cent=   200000004 NGrid=           0
         NMat0=    1 NMatS0=      1 NMatT0=    0 NMatD0=    1 NMtDS0=    0 NMtDT0=    0
 Petite list used in FoFCou.
     Minimum is close to point  3 DX=  2.91D-02 DF= -1.21D-03 DXR=  5.50D-02 DFR=  3.04D-03 which will be used.
     Accept linear search using points  2 and  3.
     Accept linear search using points  1 and  2.
     Minimum is close to point  3 DX=  7.28D-02 DF= -1.13D-06 DXR=  6.21D-02 DFR=  3.87D-03 which will be used.
     Minimum is close to point  2 DX=  1.01D-03 DF= -3.02D-11 DXR=  1.01D-03 DFR=  1.01D-06 which will be used.
 SCF Done:  E(RwB97XD) =  -725.139004326     a.u. after    8 cycles
            Convg  =    0.1304D-09                    46 Fock formations.
              S**2 =  0.0000                  -V/T =  2.0078

 **********************************************************************

            Population analysis using the SCF Density.

 **********************************************************************

 Orbital symmetries:
       Occupied  (A) (A) (A) (A) (A) (A) (A) (A) (A) (A) (A) (A)
                 (A) (A) (A) (A) (A) (A) (A) (A) (A) (A) (A) (A)
                 (A) (A) (A) (A) (A) (A) (A) (A) (A) (A) (A) (A)
                 (A) (A) (A) (A) (A) (A) (A) (A) (A) (A) (A) (A)
                 (A) (A) (A) (A) (A) (A) (A) (A)
       Virtual   (A) (A) (A) (A) (A) (A) (A) (A) (A) (A) (A) (A)
                 (A) (A) (A) (A) (A) (A) (A) (A) (A) (A) (A) (A)
                 (A) (A) (A) (A) (A) (A) (A) (A) (A) (A) (A) (A)
                 (A) (A) (A) (A) (A) (A) (A) (A) (A) (A) (A) (A)
                 (A) (A) (A) (A) (A) (A) (A) (A) (A) (A) (A) (A)
                 (A) (A) (A) (A) (A) (A) (A) (A) (A) (A) (A) (A)
                 (A) (A) (A) (A) (A) (A) (A) (A) (A) (A) (A) (A)
                 (A) (A) (A) (A) (A) (A) (A) (A) (A) (A) (A) (A)
                 (A) (A) (A) (A) (A) (A) (A) (A) (A) (A) (A) (A)
                 (A) (A) (A) (A) (A) (A) (A) (A) (A) (A) (A) (A)
                 (A) (A) (A) (A) (A) (A) (A) (A) (A) (A) (A) (A)
                 (A) (A) (A) (A) (A) (A) (A) (A) (A) (A) (A) (A)
                 (A) (A) (A) (A) (A) (A) (A) (A) (A) (A) (A) (A)
                 (A) (A) (A) (A) (A) (A) (A) (A) (A) (A) (A) (A)
                 (A) (A) (A) (A) (A) (A) (A) (A)
 The electronic state is 1-A.
 Alpha  occ. eigenvalues --  -19.28725 -19.28674 -19.28584 -19.28516 -14.67458
 Alpha  occ. eigenvalues --  -14.67423 -10.36127 -10.35993 -10.29982 -10.29484
 Alpha  occ. eigenvalues --  -10.28618 -10.28614 -10.28404 -10.28294  -1.33901
 Alpha  occ. eigenvalues --   -1.33676  -1.15685  -1.15554  -0.95983  -0.95704
 Alpha  occ. eigenvalues --   -0.80391  -0.80076  -0.79340  -0.79180  -0.79141
 Alpha  occ. eigenvalues --   -0.78883  -0.65928  -0.65467  -0.64368  -0.62898
 Alpha  occ. eigenvalues --   -0.60871  -0.60525  -0.60270  -0.59998  -0.54377
 Alpha  occ. eigenvalues --   -0.53981  -0.53387  -0.53184  -0.50549  -0.50314
 Alpha  occ. eigenvalues --   -0.48957  -0.48816  -0.48635  -0.48402  -0.46222
 Alpha  occ. eigenvalues --   -0.46004  -0.43718  -0.43483  -0.43394  -0.43053
 Alpha  occ. eigenvalues --   -0.40045  -0.39153  -0.38990  -0.38326  -0.37788
 Alpha  occ. eigenvalues --   -0.37635
 Alpha virt. eigenvalues --    0.00793   0.01916   0.13360   0.13960   0.16587
 Alpha virt. eigenvalues --    0.17207   0.19625   0.19748   0.19998   0.20232
 Alpha virt. eigenvalues --    0.20672   0.21433   0.22157   0.23110   0.24087
 Alpha virt. eigenvalues --    0.24503   0.25062   0.25201   0.26010   0.26196
 Alpha virt. eigenvalues --    0.27384   0.27668   0.27804   0.28581   0.29900
 Alpha virt. eigenvalues --    0.30444   0.30950   0.31437   0.37728   0.40699
 Alpha virt. eigenvalues --    0.45820   0.46235   0.46778   0.47458   0.47875
 Alpha virt. eigenvalues --    0.50007   0.51406   0.52676   0.54765   0.56059
 Alpha virt. eigenvalues --    0.58994   0.59265   0.61499   0.61907   0.64017
 Alpha virt. eigenvalues --    0.64269   0.66618   0.67653   0.67787   0.68450
 Alpha virt. eigenvalues --    0.73471   0.73967   0.74381   0.74841   0.75546
 Alpha virt. eigenvalues --    0.76530   0.76561   0.77012   0.77188   0.78218
 Alpha virt. eigenvalues --    0.79736   0.80124   0.80178   0.80631   0.80784
 Alpha virt. eigenvalues --    0.81166   0.81418   0.81884   0.82355   0.83518
 Alpha virt. eigenvalues --    0.84111   0.84968   0.85554   0.85865   0.86928
 Alpha virt. eigenvalues --    0.88300   0.90777   0.91777   0.95580   0.97088
 Alpha virt. eigenvalues --    0.98251   1.01585   1.02763   1.05643   1.06428
 Alpha virt. eigenvalues --    1.08254   1.08787   1.11743   1.12427   1.13814
 Alpha virt. eigenvalues --    1.14820   1.17622   1.20503   1.21894   1.23614
 Alpha virt. eigenvalues --    1.25973   1.28315   1.30762   1.32613   1.33842
 Alpha virt. eigenvalues --    1.36860   1.37419   1.44837   1.47700   1.49351
 Alpha virt. eigenvalues --    1.50422   1.57321   1.64816   1.70426   1.72422
 Alpha virt. eigenvalues --    1.79060   1.80059   1.83639   1.85086   1.87321
 Alpha virt. eigenvalues --    1.87902   1.88760   1.89851   1.91806   1.92339
 Alpha virt. eigenvalues --    1.93338   1.95128   2.07425   2.07502   2.10314
 Alpha virt. eigenvalues --    2.10693   2.13747   2.14628   2.17396   2.19290
 Alpha virt. eigenvalues --    2.20236   2.20607   2.24226   2.24546   2.24713
 Alpha virt. eigenvalues --    2.24777   2.25043   2.25501   2.28859   2.30496
 Alpha virt. eigenvalues --    2.36165   2.36798   2.43378   2.43834   2.49859
 Alpha virt. eigenvalues --    2.51294   2.57923   2.58840   2.59751   2.60764
 Alpha virt. eigenvalues --    2.69300   2.69490   2.71190   2.71611   2.72772
 Alpha virt. eigenvalues --    2.73335   2.74085   2.74532   2.75149   2.75921
 Alpha virt. eigenvalues --    2.76674   2.78022   2.90179   2.90479   3.16512
 Alpha virt. eigenvalues --    3.18780   3.24963   3.26096   3.39328   3.40074
 Alpha virt. eigenvalues --    3.53742   3.55656   3.84643   3.86063   3.88186
 Alpha virt. eigenvalues --    3.88933
          Condensed to atoms (all electrons):
 Mulliken charges:
               1
     1  C   -0.259306
     2  C   -0.239154
     3  C   -0.235972
     4  C   -0.242879
     5  N    0.277186
     6  O   -0.250319
     7  O   -0.244845
     8  H    0.158303
     9  H    0.119941
    10  H    0.139946
    11  H    0.117644
    12  H    0.142407
    13  H    0.131603
    14  H    0.132108
    15  H    0.131383
    16  H    0.139171
    17  C   -0.238593
    18  C   -0.243955
    19  C   -0.266262
    20  C   -0.249877
    21  N    0.275081
    22  O   -0.261893
    23  O   -0.243959
    24  H    0.150222
    25  H    0.117623
    26  H    0.121436
    27  H    0.160955
    28  H    0.137583
    29  H    0.123630
    30  H    0.126038
    31  H    0.127575
    32  H    0.147179
 Sum of Mulliken charges =   0.00000
 Mulliken charges with hydrogens summed into heavy atoms:
               1
     1  C    0.158884
     2  C   -0.239154
     3  C    0.155681
     4  C    0.159782
     5  N    0.277186
     6  O   -0.250319
     7  O   -0.244845
    17  C    0.150688
    18  C   -0.243955
    19  C    0.155907
    20  C    0.150914
    21  N    0.275081
    22  O   -0.261893
    23  O   -0.243959
 Electronic spatial extent (au):  <R**2>=           3290.5028
 Charge=              0.0000 electrons
 Dipole moment (field-independent basis, Debye):
    X=              0.4939    Y=             -0.5363    Z=              0.5546  Tot=              0.9160
   1 Symmetry operations used in ECPInt.
 ECPInt:  NShTT=    7260 NPrTT=   29156 LenC2=    7045 LenP2D=   20215.
 LDataN:  DoStor=T MaxTD1= 5 Len=  102
 Calling FoFJK, ICntrl=      2127 FMM=F ISym2X=0 I1Cent= 0 IOpClX= 0 NMat=1 NMatS=1 NMatT=0.

 GradGradGradGradGradGradGradGradGradGradGradGradGradGradGradGradGradGrad
 FormGI is forming the generalized inverse of G from B-inverse, IUseBI=4.
 Internal  Forces:  Max     0.021257608 RMS     0.004146636
 Step number   1 out of a maximum of  187
 All quantities printed in internal units (Hartrees-Bohrs-Radians)
 Mixed Optimization -- RFO/linear search
 Second derivative matrix not updated -- first step.
 ITU=  0
     Eigenvalues ---    0.00332   0.00357   0.00368   0.00402   0.00402
     Eigenvalues ---    0.00428   0.00504   0.00735   0.01015   0.01096
     Eigenvalues ---    0.01764   0.02091   0.02472   0.02796   0.03049
     Eigenvalues ---    0.03603   0.04110   0.04170   0.04511   0.04856
     Eigenvalues ---    0.05404   0.05441   0.05528   0.05594   0.05633
     Eigenvalues ---    0.05681   0.05721   0.05741   0.05786   0.05816
     Eigenvalues ---    0.05922   0.06457   0.07066   0.07406   0.10516
     Eigenvalues ---    0.11083   0.11105   0.11300   0.11403   0.11799
     Eigenvalues ---    0.12511   0.13084   0.13960   0.14873   0.15781
     Eigenvalues ---    0.16000   0.16000   0.16000   0.16000   0.16000
     Eigenvalues ---    0.16000   0.16000   0.16000   0.16000   0.16565
     Eigenvalues ---    0.17217   0.19839   0.21816   0.22788   0.24891
     Eigenvalues ---    0.28581   0.29338   0.29426   0.29589   0.29652
     Eigenvalues ---    0.30388   0.31705   0.31924   0.33262   0.34475
     Eigenvalues ---    0.34977   0.34985   0.35018   0.35068   0.35077
     Eigenvalues ---    0.35091   0.35127   0.35152   0.35170   0.35174
     Eigenvalues ---    0.35197   0.35223   0.35230   0.35239   0.35247
     Eigenvalues ---    0.35256   0.93673   0.97420   0.98536   1.01421
 Linear search not attempted -- first point.
 Iteration  1 RMS(Cart)=  0.03191684 RMS(Int)=  0.00029879
 Iteration  2 RMS(Cart)=  0.00047669 RMS(Int)=  0.00007331
 Iteration  3 RMS(Cart)=  0.00000015 RMS(Int)=  0.00007331
 Variable       Old X    -DE/DX   Delta X   Delta X   Delta X     New X
                                 (Linear)    (Quad)   (Total)
    R1        2.87930   0.00423   0.00000   0.01449   0.01444   2.89374
    R2        2.05404   0.01001   0.00000   0.02831   0.02830   2.08234
    R3        2.05261   0.01100   0.00000   0.03039   0.03039   2.08300
    R4        2.05399   0.00882   0.00000   0.02443   0.02443   2.07842
    R5        2.87197   0.00383   0.00000   0.01222   0.01222   2.88419
    R6        2.89304   0.00364   0.00000   0.01203   0.01203   2.90507
    R7        2.81646   0.02126   0.00000   0.06156   0.06149   2.87795
    R8        2.05276   0.01118   0.00000   0.03090   0.03090   2.08366
    R9        2.05393   0.01032   0.00000   0.02859   0.02859   2.08252
   R10        2.05428   0.00875   0.00000   0.02424   0.02424   2.07852
   R11        2.05356   0.01051   0.00000   0.02909   0.02909   2.08266
   R12        2.05713   0.00996   0.00000   0.02773   0.02773   2.08486
   R13        2.05645   0.00947   0.00000   0.02636   0.02636   2.08281
   R14        2.28442   0.00611   0.00000   0.00613   0.00609   2.29050
   R15        2.28360   0.00637   0.00000   0.00634   0.00631   2.28991
   R16        4.39035   0.00063   0.00000   0.01437   0.01433   4.40468
   R17        4.50897   0.00063   0.00000   0.01484   0.01486   4.52383
   R18        4.52701   0.00047   0.00000   0.01635   0.01640   4.54341
   R19        2.87149   0.00288   0.00000   0.00889   0.00893   2.88041
   R20        2.05397   0.01033   0.00000   0.02806   0.02810   2.08207
   R21        2.05302   0.01114   0.00000   0.03082   0.03082   2.08384
   R22        2.05564   0.00934   0.00000   0.02595   0.02595   2.08158
   R23        2.88830   0.00409   0.00000   0.01330   0.01330   2.90161
   R24        2.88663   0.00359   0.00000   0.01172   0.01172   2.89835
   R25        2.82017   0.02102   0.00000   0.06211   0.06218   2.88235
   R26        2.05612   0.00990   0.00000   0.02744   0.02739   2.08351
   R27        2.05527   0.00945   0.00000   0.02623   0.02623   2.08150
   R28        2.05288   0.01090   0.00000   0.03014   0.03014   2.08303
   R29        2.05700   0.01031   0.00000   0.02870   0.02870   2.08569
   R30        2.05314   0.01060   0.00000   0.02933   0.02933   2.08247
   R31        2.05549   0.00875   0.00000   0.02429   0.02429   2.07978
   R32        2.28627   0.00708   0.00000   0.00699   0.00704   2.29332
   R33        2.28075   0.00530   0.00000   0.00518   0.00518   2.28593
    A1        1.91664   0.00122   0.00000   0.01315   0.01314   1.92978
    A2        1.91571  -0.00143   0.00000  -0.01762  -0.01755   1.89816
    A3        1.92864   0.00050   0.00000   0.00915   0.00898   1.93763
    A4        1.90380  -0.00018   0.00000  -0.00661  -0.00653   1.89728
    A5        1.89716  -0.00029   0.00000   0.00389   0.00364   1.90080
    A6        1.90155   0.00017   0.00000  -0.00205  -0.00201   1.89954
    A7        1.95247  -0.00086   0.00000  -0.01291  -0.01287   1.93960
    A8        1.94347  -0.00013   0.00000  -0.00401  -0.00418   1.93929
    A9        1.88010   0.00051   0.00000   0.01125   0.01116   1.89127
   A10        1.94914   0.00004   0.00000  -0.00374  -0.00388   1.94526
   A11        1.90379   0.00007   0.00000   0.00183   0.00187   1.90566
   A12        1.82903   0.00048   0.00000   0.00993   0.01002   1.83905
   A13        1.91300  -0.00265   0.00000  -0.01799  -0.01797   1.89503
   A14        1.92237   0.00111   0.00000   0.00823   0.00819   1.93056
   A15        1.93810   0.00139   0.00000   0.00893   0.00889   1.94699
   A16        1.89664   0.00059   0.00000   0.00212   0.00215   1.89879
   A17        1.89950   0.00025   0.00000  -0.00166  -0.00164   1.89786
   A18        1.89355  -0.00069   0.00000   0.00037   0.00027   1.89382
   A19        1.91293  -0.00114   0.00000  -0.00819  -0.00819   1.90475
   A20        1.93274   0.00022   0.00000   0.00154   0.00152   1.93427
   A21        1.92600   0.00101   0.00000   0.00721   0.00721   1.93321
   A22        1.89387   0.00016   0.00000  -0.00142  -0.00143   1.89243
   A23        1.89669   0.00001   0.00000  -0.00041  -0.00039   1.89630
   A24        1.90093  -0.00027   0.00000   0.00114   0.00112   1.90204
   A25        2.06980  -0.00022   0.00000  -0.00308  -0.00306   2.06675
   A26        2.05301   0.00018   0.00000   0.00095   0.00091   2.05392
   A27        2.15935   0.00005   0.00000   0.00242   0.00242   2.16177
   A28        2.24110  -0.00130   0.00000  -0.00671  -0.00670   2.23440
   A29        1.75782  -0.00039   0.00000  -0.00222  -0.00239   1.75543
   A30        2.31067  -0.00025   0.00000   0.00198   0.00208   2.31275
   A31        1.94386   0.00058   0.00000   0.00189   0.00187   1.94573
   A32        1.90915  -0.00187   0.00000  -0.01663  -0.01664   1.89251
   A33        1.93440   0.00073   0.00000   0.00848   0.00847   1.94287
   A34        1.89130   0.00061   0.00000   0.00406   0.00401   1.89532
   A35        1.88743  -0.00011   0.00000   0.00446   0.00442   1.89184
   A36        1.89657   0.00007   0.00000  -0.00218  -0.00216   1.89441
   A37        1.95301  -0.00104   0.00000  -0.01391  -0.01394   1.93907
   A38        1.95008   0.00029   0.00000  -0.00524  -0.00529   1.94479
   A39        1.91181  -0.00061   0.00000  -0.00309  -0.00296   1.90884
   A40        1.94014  -0.00025   0.00000  -0.00137  -0.00159   1.93855
   A41        1.84184   0.00157   0.00000   0.01902   0.01900   1.86084
   A42        1.86130   0.00016   0.00000   0.00698   0.00693   1.86823
   A43        1.92718   0.00043   0.00000   0.00137   0.00137   1.92855
   A44        1.92281   0.00075   0.00000   0.00841   0.00835   1.93116
   A45        1.91586  -0.00158   0.00000  -0.01441  -0.01441   1.90144
   A46        1.89488  -0.00010   0.00000   0.00785   0.00775   1.90263
   A47        1.89989   0.00052   0.00000  -0.00084  -0.00086   1.89903
   A48        1.90280  -0.00001   0.00000  -0.00229  -0.00226   1.90054
   A49        1.93334   0.00058   0.00000   0.00366   0.00361   1.93694
   A50        1.91457  -0.00171   0.00000  -0.01239  -0.01238   1.90220
   A51        1.92382   0.00154   0.00000   0.01119   0.01117   1.93500
   A52        1.89437   0.00004   0.00000  -0.00375  -0.00376   1.89060
   A53        1.89914  -0.00051   0.00000   0.00135   0.00128   1.90042
   A54        1.89796   0.00003   0.00000  -0.00024  -0.00020   1.89775
   A55        2.07095   0.00032   0.00000   0.00246   0.00249   2.07345
   A56        2.04707   0.00171   0.00000   0.00607   0.00588   2.05295
   A57        2.16515  -0.00203   0.00000  -0.00865  -0.00875   2.15640
   A58        2.79998   0.00040   0.00000  -0.00082  -0.00081   2.79917
   A59        2.52381   0.00018   0.00000   0.00084   0.00076   2.52458
   A60        3.01438  -0.00121   0.00000  -0.03476  -0.03465   2.97973
   A61        3.27752   0.00136   0.00000   0.02071   0.02086   3.29837
    D1        0.99687  -0.00015   0.00000  -0.00135  -0.00135   0.99553
    D2       -3.09155  -0.00085   0.00000  -0.01937  -0.01930  -3.11085
    D3       -1.09524  -0.00005   0.00000  -0.00314  -0.00306  -1.09830
    D4       -1.09597   0.00021   0.00000   0.00958   0.00955  -1.08642
    D5        1.09879  -0.00050   0.00000  -0.00844  -0.00841   1.09038
    D6        3.09510   0.00030   0.00000   0.00779   0.00783   3.10293
    D7        3.08962   0.00060   0.00000   0.01764   0.01766   3.10728
    D8       -0.99880  -0.00011   0.00000  -0.00038  -0.00030  -0.99910
    D9        0.99750   0.00069   0.00000   0.01585   0.01594   1.01345
   D10        0.42042  -0.00001   0.00000  -0.00192  -0.00200   0.41842
   D11        2.52050  -0.00113   0.00000  -0.01959  -0.01959   2.50091
   D12       -1.69140  -0.00120   0.00000  -0.02360  -0.02366  -1.71506
   D13        1.07996  -0.00046   0.00000  -0.02362  -0.02357   1.05639
   D14       -1.00593  -0.00022   0.00000  -0.02009  -0.02001  -1.02594
   D15       -3.10394  -0.00099   0.00000  -0.03176  -0.03174  -3.13568
   D16       -1.11169   0.00035   0.00000  -0.00536  -0.00536  -1.11705
   D17        3.08561   0.00058   0.00000  -0.00184  -0.00180   3.08381
   D18        0.98760  -0.00019   0.00000  -0.01350  -0.01353   0.97407
   D19       -3.12505  -0.00031   0.00000  -0.01643  -0.01648  -3.14154
   D20        1.07224  -0.00007   0.00000  -0.01290  -0.01292   1.05932
   D21       -1.02577  -0.00084   0.00000  -0.02457  -0.02465  -1.05042
   D22       -1.08077   0.00045   0.00000   0.00268   0.00263  -1.07814
   D23        3.11354   0.00084   0.00000   0.00871   0.00866   3.12220
   D24        1.00739   0.00037   0.00000   0.00150   0.00144   1.00882
   D25        1.11583  -0.00075   0.00000  -0.02038  -0.02036   1.09547
   D26       -0.97304  -0.00036   0.00000  -0.01435  -0.01434  -0.98737
   D27       -3.07919  -0.00083   0.00000  -0.02156  -0.02156  -3.10075
   D28       -3.10862  -0.00036   0.00000  -0.01425  -0.01420  -3.12282
   D29        1.08570   0.00003   0.00000  -0.00823  -0.00818   1.07752
   D30       -1.02046  -0.00044   0.00000  -0.01543  -0.01540  -1.03586
   D31        2.44146  -0.00034   0.00000  -0.00202  -0.00199   2.43946
   D32       -0.74697  -0.00016   0.00000   0.00473   0.00482  -0.74215
   D33        0.31878   0.00034   0.00000   0.00575   0.00576   0.32454
   D34       -2.86964   0.00053   0.00000   0.01249   0.01257  -2.85708
   D35       -1.77055  -0.00000   0.00000   0.00376   0.00381  -1.76674
   D36        1.32421   0.00018   0.00000   0.01051   0.01062   1.33483
   D37       -2.53791   0.00061   0.00000   0.01607   0.01615  -2.52177
   D38        0.65356   0.00041   0.00000   0.00894   0.00894   0.66251
   D39        2.30819  -0.00062   0.00000  -0.00749  -0.00768   2.30051
   D40       -0.88284  -0.00044   0.00000  -0.00054  -0.00063  -0.88347
   D41        1.18787   0.00043   0.00000   0.00587   0.00600   1.19387
   D42       -0.94708  -0.00115   0.00000  -0.01785  -0.01780  -0.96488
   D43        1.34400  -0.00129   0.00000  -0.01407  -0.01401   1.32999
   D44       -1.67595  -0.00010   0.00000   0.03982   0.03935  -1.63661
   D45        0.95094   0.00025   0.00000   0.00659   0.00655   0.95750
   D46        3.13932  -0.00066   0.00000  -0.01006  -0.01009   3.12923
   D47       -1.08532  -0.00068   0.00000  -0.00660  -0.00664  -1.09196
   D48       -1.13927   0.00035   0.00000   0.01120   0.01118  -1.12809
   D49        1.04910  -0.00057   0.00000  -0.00546  -0.00546   1.04364
   D50        3.10765  -0.00058   0.00000  -0.00199  -0.00201   3.10563
   D51        3.05308   0.00100   0.00000   0.01925   0.01926   3.07235
   D52       -1.04173   0.00009   0.00000   0.00259   0.00262  -1.03911
   D53        1.01682   0.00007   0.00000   0.00606   0.00607   1.02289
   D54        1.19882   0.00054   0.00000   0.00227   0.00231   1.20114
   D55       -2.98360  -0.00102   0.00000  -0.01451  -0.01452  -2.99812
   D56       -0.93073  -0.00067   0.00000  -0.01246  -0.01245  -0.94319
   D57       -1.03680  -0.00001   0.00000   0.00276   0.00274  -1.03406
   D58       -3.12973  -0.00064   0.00000  -0.01327  -0.01327   3.14019
   D59        1.05790  -0.00010   0.00000  -0.00660  -0.00656   1.05135
   D60        3.05254   0.00059   0.00000   0.02139   0.02133   3.07387
   D61        0.95962  -0.00004   0.00000   0.00536   0.00531   0.96493
   D62       -1.13594   0.00050   0.00000   0.01202   0.01202  -1.12391
   D63        1.04128  -0.00035   0.00000   0.00319   0.00313   1.04441
   D64       -1.05164  -0.00098   0.00000  -0.01284  -0.01288  -1.06453
   D65        3.13599  -0.00044   0.00000  -0.00617  -0.00617   3.12982
   D66        0.92287   0.00010   0.00000   0.02116   0.02117   0.94405
   D67       -1.16804   0.00078   0.00000   0.03146   0.03148  -1.13656
   D68        3.02575   0.00085   0.00000   0.03258   0.03264   3.05839
   D69        3.11834  -0.00125   0.00000  -0.00227  -0.00227   3.11607
   D70        1.02743  -0.00057   0.00000   0.00804   0.00803   1.03546
   D71       -1.06197  -0.00050   0.00000   0.00916   0.00920  -1.05277
   D72       -1.16568   0.00058   0.00000   0.02352   0.02347  -1.14221
   D73        3.02659   0.00125   0.00000   0.03382   0.03377   3.06037
   D74        0.93719   0.00132   0.00000   0.03495   0.03494   0.97213
   D75        0.07052  -0.00091   0.00000  -0.02283  -0.02284   0.04768
   D76       -3.07611  -0.00108   0.00000  -0.04664  -0.04679  -3.12290
   D77       -2.03473  -0.00025   0.00000  -0.01564  -0.01564  -2.05037
   D78        1.10182  -0.00042   0.00000  -0.03945  -0.03958   1.06224
   D79        2.18367  -0.00081   0.00000  -0.02670  -0.02676   2.15691
   D80       -0.96296  -0.00098   0.00000  -0.05052  -0.05071  -1.01367
   D81       -0.54616  -0.00093   0.00000  -0.01256  -0.01254  -0.55870
   D82        1.56350   0.00019   0.00000   0.00363   0.00365   1.56715
   D83       -2.65045   0.00042   0.00000   0.00489   0.00489  -2.64556
         Item               Value     Threshold  Converged?
 Maximum Force            0.021258     0.000015     NO 
 RMS     Force            0.004147     0.000010     NO 
 Maximum Displacement     0.112644     0.000060     NO 
 RMS     Displacement     0.031881     0.000040     NO 
 GradGradGradGradGradGradGradGradGradGradGradGradGradGradGradGradGradGrad

                    Distance matrix (angstroms):
                    1          2          3          4          5
     1  C    0.000000
     2  C    1.531300   0.000000
     3  C    2.521785   1.526250   0.000000
     4  C    2.530626   1.537296   2.531626   0.000000
     5  N    2.476593   1.522945   2.485274   2.433870   0.000000
     6  O    3.504523   2.354855   2.658621   3.199227   1.212082
     7  O    2.749687   2.345711   3.590761   2.970142   1.211770
     8  H    1.101928   2.178248   2.754477   3.491473   2.747277
     9  H    1.102277   2.155314   2.768773   2.777335   3.433525
    10  H    1.099851   2.182352   3.483210   2.768659   2.712920
    11  H    2.750683   2.148835   1.102624   2.789490   3.438447
    12  H    2.767543   2.174438   1.102025   3.491541   2.740680
    13  H    3.488709   2.184651   1.099906   2.768006   2.749750
    14  H    2.778655   2.165310   2.789994   1.102094   3.405597
    15  H    3.493631   2.187788   2.767011   1.103262   2.688766
    16  H    2.771713   2.186200   3.490991   1.102174   2.666901
    17  C    4.939878   4.956150   5.491146   6.151088   3.795646
    18  C    5.317197   5.102406   5.207305   6.415272   4.038826
    19  C    5.931511   5.321406   5.339522   6.433113   4.084654
    20  C    6.558844   6.495561   6.468483   7.873293   5.536626
    21  N    4.382352   4.209250   4.032139   5.660739   3.535877
    22  O    3.251956   3.348185   3.390450   4.851513   2.915931
    23  O    5.067496   4.747970   4.172927   6.180947   4.265757
    24  H    4.246052   4.141452   4.876704   5.201994   2.874770
    25  H    5.928781   5.901394   6.496023   6.985632   4.626306
    26  H    4.782548   5.132109   5.704367   6.397153   4.211311
    27  H    5.331864   4.532503   4.645766   5.502843   3.222178
    28  H    6.485706   5.786913   5.515466   6.921808   4.709329
    29  H    6.757973   6.175204   6.335624   7.188417   4.820242
    30  H    6.498957   6.689503   6.716454   8.124591   5.876249
    31  H    7.358253   7.251375   7.336738   8.547474   6.142563
    32  H    7.017224   6.844764   6.571925   8.245275   5.989067
                    6          7          8          9         10
     6  O    0.000000
     7  O    2.138743   0.000000
     8  H    3.591126   3.021224   0.000000
     9  H    4.390474   3.792832   1.791188   0.000000
    10  H    3.891601   2.494034   1.791472   1.790953   0.000000
    11  H    3.743012   4.444897   3.085452   2.538324   3.765371
    12  H    2.745141   3.793380   2.541546   3.130836   3.771681
    13  H    2.517814   3.943592   3.772375   3.776337   4.339174
    14  H    4.153161   3.956884   3.790953   2.569541   3.120138
    15  H    3.070648   3.369719   4.339734   3.786713   3.782680
    16  H    3.609312   2.729038   3.779613   3.130565   2.553426
    17  C    3.768181   3.451608   4.331147   5.985632   4.912711
    18  C    3.624723   4.142525   4.619479   6.284735   5.588556
    19  C    3.292493   4.323586   5.447746   6.913303   6.226895
    20  C    5.118862   5.616428   5.720366   7.459627   6.849892
    21  N    3.203278   3.975189   3.597440   5.215103   4.906829
    22  O    3.001492   3.300907   2.404269   4.084708   3.776058
    23  O    3.724115   4.926840   4.300962   5.756056   5.761043
    24  H    2.993023   2.393908   3.847570   5.335937   4.132113
    25  H    4.527945   4.141622   5.378987   6.994435   5.791166
    26  H    4.417216   3.804446   4.040176   5.759354   4.709021
    27  H    2.330854   3.537310   5.032237   6.317808   5.610385
    28  H    3.768175   5.157554   5.967744   7.384084   6.927502
    29  H    4.082335   4.849190   6.305076   7.786074   6.920747
    30  H    5.658371   5.875870   5.560749   7.342062   6.755065
    31  H    5.691448   6.084679   6.579404   8.315947   7.538883
    32  H    5.422813   6.262966   6.165873   7.845327   7.451005
                   11         12         13         14         15
    11  H    0.000000
    12  H    1.792518   0.000000
    13  H    1.790200   1.787122   0.000000
    14  H    2.594286   3.806032   3.124908   0.000000
    15  H    3.138452   3.770461   2.546107   1.789005   0.000000
    16  H    3.797869   4.334925   3.778024   1.790614   1.795246
    17  C    6.440502   4.938060   5.860971   7.035224   6.472173
    18  C    6.177753   4.474631   5.437568   7.256042   6.595936
    19  C    6.399567   4.770193   5.257572   7.360474   6.355640
    20  C    7.363491   5.601544   6.729024   8.660181   8.082914
    21  N    4.904322   3.146202   4.387055   6.349634   5.915901
    22  O    4.177680   2.582597   4.003069   5.468597   5.295322
    23  O    4.960449   3.180815   4.381615   6.779992   6.324294
    24  H    5.846265   4.520726   5.220535   6.136389   5.511986
    25  H    7.475650   5.984193   6.785953   7.924533   7.242760
    26  H    6.537106   5.092367   6.253762   7.177363   6.882261
    27  H    5.740264   4.270132   4.472230   6.470569   5.345569
    28  H    6.531201   4.867596   5.320326   7.783260   6.760700
    29  H    7.412298   5.824471   6.228269   8.172789   7.081950
    30  H    7.518404   5.804525   7.137571   8.838766   8.471361
    31  H    8.282636   6.538634   7.532486   9.404522   8.708033
    32  H    7.429177   5.637199   6.744450   8.983495   8.379954
                   16         17         18         19         20
    16  H    0.000000
    17  C    6.131275   0.000000
    18  C    6.643195   1.524250   0.000000
    19  C    6.702092   2.523115   1.535464   0.000000
    20  C    8.120728   2.526631   1.533741   2.530485   0.000000
    21  N    6.079829   2.488349   1.525274   2.454328   2.459677
    22  O    5.224162   2.642757   2.362769   3.352210   3.399552
    23  O    6.764748   3.607649   2.345381   2.855705   2.840178
    24  H    5.109078   1.101784   2.183412   2.750541   3.493893
    25  H    6.869446   1.102721   2.145289   2.783261   2.747859
    26  H    6.348529   1.101527   2.181167   3.489398   2.789487
    27  H    5.765816   2.772930   2.181486   1.102545   3.489939
    28  H    7.333086   3.482798   2.182582   1.101481   2.749102
    29  H    7.335987   2.756980   2.161405   1.102290   2.796848
    30  H    8.337392   2.745722   2.186921   3.496003   1.103700
    31  H    8.705219   2.802386   2.160233   2.755029   1.101994
    32  H    8.620529   3.484611   2.183155   2.791195   1.100574
                   21         22         23         24         25
    21  N    0.000000
    22  O    1.213571   0.000000
    23  O    1.209663   2.135132   0.000000
    24  H    2.772109   2.622689   3.917398   0.000000
    25  H    3.439813   3.735593   4.455570   1.790169   0.000000
    26  H    2.737308   2.600066   3.879933   1.786966   1.789377
    27  H    2.691672   3.290921   3.173853   2.542725   3.163484
    28  H    2.703251   3.781210   2.607847   3.772370   3.779348
    29  H    3.420140   4.268423   3.878197   3.068925   2.560698
    30  H    2.753982   3.417488   3.225909   3.775311   3.050221
    31  H    3.422569   4.324338   3.842529   3.800255   2.568603
    32  H    2.669086   3.776707   2.546564   4.339826   3.773465
                   26         27         28         29         30
    26  H    0.000000
    27  H    3.770454   0.000000
    28  H    4.336383   1.794473   0.000000
    29  H    3.784276   1.792826   1.792925   0.000000
    30  H    2.551927   4.341730   3.778870   3.792467   0.000000
    31  H    3.191731   3.780425   3.059544   2.566597   1.788099
    32  H    3.778535   3.783550   2.554794   3.186848   1.793262
                   31         32
    31  H    0.000000
    32  H    1.790162   0.000000
 Framework group  C1[X(C8H18N2O4)]
 Deg. of freedom    90
                         Standard orientation:                         
 ---------------------------------------------------------------------
 Center     Atomic      Atomic             Coordinates (Angstroms)
 Number     Number       Type             X           Y           Z
 ---------------------------------------------------------------------
      1          6           0        2.529166    0.310408    1.602211
      2          6           0        2.561191    0.224282    0.073670
      3          6           0        2.303290    1.588694   -0.559817
      4          6           0        3.884519   -0.383372   -0.419114
      5          7           0        1.478593   -0.748448   -0.374815
      6          8           0        0.828046   -0.473323   -1.359822
      7          8           0        1.348959   -1.775741    0.254669
      8          1           0        1.565052    0.717745    1.946894
      9          1           0        3.336558    0.982340    1.936339
     10          1           0        2.680512   -0.679802    2.056359
     11          1           0        3.092083    2.284415   -0.228822
     12          1           0        1.324849    1.984749   -0.243189
     13          1           0        2.318811    1.533654   -1.658236
     14          1           0        4.718414    0.266775   -0.108406
     15          1           0        3.894514   -0.461488   -1.519561
     16          1           0        4.039106   -1.385541    0.012799
     17          6           0       -2.028373   -1.457877    0.892002
     18          6           0       -2.514316   -0.297266    0.031666
     19          6           0       -2.457938   -0.653976   -1.460725
     20          6           0       -3.923679    0.150308    0.438770
     21          7           0       -1.590517    0.900255    0.229148
     22          8           0       -0.622180    0.778942    0.950509
     23          8           0       -1.852575    1.916135   -0.373013
     24          1           0       -1.021020   -1.788341    0.592067
     25          1           0       -2.727166   -2.301599    0.766245
     26          1           0       -2.000627   -1.181948    1.958048
     27          1           0       -1.427058   -0.907509   -1.758405
     28          1           0       -2.811852    0.188911   -2.075173
     29          1           0       -3.105761   -1.526604   -1.644817
     30          1           0       -3.968846    0.381375    1.517066
     31          1           0       -4.633629   -0.666093    0.229366
     32          1           0       -4.231631    1.041009   -0.129632
 ---------------------------------------------------------------------
 Rotational constants (GHZ):           1.2757946           0.3921132           0.3694803
   232 basis functions,   422 primitive gaussians,   246 cartesian basis functions
    56 alpha electrons       56 beta electrons
       nuclear repulsion energy      1039.1747374041 Hartrees.
 NAtoms=   32 NActive=   32 NUniq=   32 SFac= 1.00D+00 NAtFMM=   60 NAOKFM=F Big=F
 Nuclear repulsion after empirical dispersion term =     1039.1501506297 Hartrees.
   1 Symmetry operations used in ECPInt.
 ECPInt:  NShTT=    7260 NPrTT=   29156 LenC2=    7033 LenP2D=   20107.
 LDataN:  DoStor=T MaxTD1= 4 Len=   56
 Initial guess from the checkpoint file:  "/scratch/user/peterchao1/peterchao1/6113323_1660079103000000798731185/Gau-109716.chk"
 B after Tr=    -0.000000   -0.000000   -0.000000
         Rot=    0.999794    0.020180    0.000317    0.001960 Ang=   2.32 deg.
 ExpMin= 1.22D-01 ExpMax= 2.27D+03 ExpMxC= 3.41D+02 IAcc=3 IRadAn=         5 AccDes= 0.00D+00
 Harris functional with IExCor= 4639 and IRadAn=       5 diagonalized for initial guess.
 HarFok:  IExCor= 4639 AccDes= 0.00D+00 IRadAn=         5 IDoV= 1 UseB2=F ITyADJ=14
 ICtDFT=  3500011 ScaDFX=  1.000000  1.000000  1.000000  1.000000
 FoFCou: FMM=F IPFlag=           0 FMFlag=      100000 FMFlg1=           0
         NFxFlg=           0 DoJE=T BraDBF=F KetDBF=T FulRan=T
         wScrn=  0.000000 ICntrl=       500 IOpCl=  0 I1Cent=   200000004 NGrid=           0
         NMat0=    1 NMatS0=      1 NMatT0=    0 NMatD0=    1 NMtDS0=    0 NMtDT0=    0
 Petite list used in FoFCou.
     Accept linear search using points  3 and  4.
     Accept linear search using points  2 and  3.
     Accept linear search using points  1 and  2.
     Minimum is close to point  2 DX= -7.92D-02 DF= -1.98D-06 DXR=  8.60D-02 DFR=  7.46D-03 which will be used.
     Accept linear search using points  1 and  2.
     Accept linear search using points  2 and  3.
     Accept linear search using points  1 and  2.
     Accept linear search using points  1 and  2.
     Minimum is close to point  2 DX= -1.47D-04 DF= -1.82D-12 DXR=  1.47D-04 DFR=  2.14D-08 which will be used.
 SCF Done:  E(RwB97XD) =  -725.143570267     a.u. after    9 cycles
            Convg  =    0.1268D-08                    45 Fock formations.
              S**2 =  0.0000                  -V/T =  2.0086
   1 Symmetry operations used in ECPInt.
 ECPInt:  NShTT=    7260 NPrTT=   29156 LenC2=    7033 LenP2D=   20107.
 LDataN:  DoStor=T MaxTD1= 5 Len=  102
 Calling FoFJK, ICntrl=      2127 FMM=F ISym2X=0 I1Cent= 0 IOpClX= 0 NMat=1 NMatS=1 NMatT=0.

 GradGradGradGradGradGradGradGradGradGradGradGradGradGradGradGradGradGrad
 Using GEDIIS/GDIIS optimizer.
 FormGI is forming the generalized inverse of G from B-inverse, IUseBI=4.
 Internal  Forces:  Max     0.004180909 RMS     0.000725008
 Step number   2 out of a maximum of  187
 All quantities printed in internal units (Hartrees-Bohrs-Radians)
 Mixed Optimization -- En-DIIS/RFO-DIIS
 Trust test= 9.34D-01 RLast= 2.33D-01 DXMaxT set to 5.05D-01
 ITU=  1  0
 Use linear search instead of GDIIS.
     Eigenvalues ---    0.00332   0.00357   0.00371   0.00401   0.00405
     Eigenvalues ---    0.00440   0.00505   0.00728   0.01011   0.01088
     Eigenvalues ---    0.01761   0.02093   0.02470   0.02794   0.03036
     Eigenvalues ---    0.03632   0.04239   0.04405   0.04491   0.04862
     Eigenvalues ---    0.05416   0.05439   0.05509   0.05548   0.05560
     Eigenvalues ---    0.05607   0.05719   0.05759   0.05796   0.05890
     Eigenvalues ---    0.05897   0.06439   0.07118   0.07324   0.10533
     Eigenvalues ---    0.11072   0.11136   0.11288   0.11394   0.11753
     Eigenvalues ---    0.12533   0.13062   0.13963   0.14858   0.15760
     Eigenvalues ---    0.15941   0.16000   0.16000   0.16000   0.16000
     Eigenvalues ---    0.16000   0.16000   0.16000   0.16006   0.16562
     Eigenvalues ---    0.17230   0.19873   0.21756   0.22691   0.24487
     Eigenvalues ---    0.28502   0.29245   0.29417   0.29603   0.29624
     Eigenvalues ---    0.30391   0.31740   0.31902   0.32642   0.34493
     Eigenvalues ---    0.34979   0.34995   0.35019   0.35046   0.35073
     Eigenvalues ---    0.35090   0.35128   0.35159   0.35171   0.35188
     Eigenvalues ---    0.35209   0.35226   0.35235   0.35244   0.35253
     Eigenvalues ---    0.36876   0.93908   0.97979   0.98575   1.01580
 Quartic linear search produced a step of  0.00492.
 Iteration  1 RMS(Cart)=  0.04466619 RMS(Int)=  0.00105973
 Iteration  2 RMS(Cart)=  0.00155791 RMS(Int)=  0.00065043
 Iteration  3 RMS(Cart)=  0.00000124 RMS(Int)=  0.00065043
 Iteration  4 RMS(Cart)=  0.00000000 RMS(Int)=  0.00065043
 Variable       Old X    -DE/DX   Delta X   Delta X   Delta X     New X
                                 (Linear)    (Quad)   (Total)
    R1        2.89374  -0.00182   0.00007  -0.00359  -0.00373   2.89001
    R2        2.08234  -0.00063   0.00014   0.00233   0.00262   2.08496
    R3        2.08300   0.00016   0.00015   0.00462   0.00477   2.08777
    R4        2.07842   0.00028   0.00012   0.00414   0.00426   2.08267
    R5        2.88419  -0.00094   0.00006  -0.00142  -0.00136   2.88283
    R6        2.90507  -0.00195   0.00006  -0.00500  -0.00494   2.90013
    R7        2.87795   0.00224   0.00030   0.01550   0.01549   2.89344
    R8        2.08366   0.00007   0.00015   0.00443   0.00458   2.08824
    R9        2.08252   0.00002   0.00014   0.00396   0.00410   2.08663
   R10        2.07852   0.00022   0.00012   0.00394   0.00406   2.08258
   R11        2.08266   0.00003   0.00014   0.00406   0.00420   2.08686
   R12        2.08486   0.00002   0.00014   0.00384   0.00398   2.08884
   R13        2.08281   0.00007   0.00013   0.00379   0.00392   2.08673
   R14        2.29050  -0.00122   0.00003  -0.00018  -0.00034   2.29017
   R15        2.28991  -0.00170   0.00003  -0.00075  -0.00074   2.28918
   R16        4.40468   0.00030   0.00007   0.01587   0.01576   4.42044
   R17        4.52383   0.00024   0.00007   0.00996   0.00993   4.53376
   R18        4.54341   0.00015   0.00008   0.00541   0.00583   4.54924
   R19        2.88041  -0.00027   0.00004   0.00001   0.00002   2.88044
   R20        2.08207  -0.00024   0.00014   0.00309   0.00316   2.08523
   R21        2.08384   0.00010   0.00015   0.00448   0.00463   2.08847
   R22        2.08158  -0.00003   0.00013   0.00347   0.00360   2.08518
   R23        2.90161  -0.00225   0.00007  -0.00667  -0.00648   2.89513
   R24        2.89835  -0.00182   0.00006  -0.00454  -0.00448   2.89387
   R25        2.88235   0.00158   0.00031   0.01303   0.01359   2.89594
   R26        2.08351  -0.00045   0.00013   0.00234   0.00237   2.08588
   R27        2.08150   0.00006   0.00013   0.00376   0.00389   2.08539
   R28        2.08303   0.00007   0.00015   0.00430   0.00445   2.08748
   R29        2.08569  -0.00001   0.00014   0.00388   0.00402   2.08971
   R30        2.08247   0.00007   0.00014   0.00420   0.00434   2.08681
   R31        2.07978   0.00038   0.00012   0.00441   0.00453   2.08431
   R32        2.29332  -0.00050   0.00003   0.00039   0.00076   2.29407
   R33        2.28593  -0.00108   0.00003  -0.00036  -0.00033   2.28560
    A1        1.92978  -0.00022   0.00006  -0.00072  -0.00100   1.92879
    A2        1.89816  -0.00044  -0.00009  -0.00635  -0.00625   1.89191
    A3        1.93763   0.00034   0.00004   0.00428   0.00428   1.94191
    A4        1.89728   0.00002  -0.00003  -0.00073  -0.00054   1.89673
    A5        1.90080   0.00032   0.00002   0.00378   0.00377   1.90457
    A6        1.89954  -0.00001  -0.00001  -0.00036  -0.00040   1.89915
    A7        1.93960   0.00049  -0.00006   0.00581   0.00577   1.94537
    A8        1.93929  -0.00007  -0.00002   0.00488   0.00494   1.94423
    A9        1.89127  -0.00022   0.00005  -0.00688  -0.00726   1.88401
   A10        1.94526   0.00051  -0.00002   0.00836   0.00812   1.95338
   A11        1.90566  -0.00066   0.00001  -0.01098  -0.01089   1.89477
   A12        1.83905  -0.00013   0.00005  -0.00253  -0.00218   1.83687
   A13        1.89503  -0.00038  -0.00009  -0.00549  -0.00557   1.88946
   A14        1.93056   0.00005   0.00004   0.00185   0.00189   1.93245
   A15        1.94699   0.00017   0.00004   0.00260   0.00264   1.94963
   A16        1.89879   0.00010   0.00001   0.00029   0.00030   1.89909
   A17        1.89786   0.00002  -0.00001  -0.00086  -0.00087   1.89699
   A18        1.89382   0.00003   0.00000   0.00153   0.00152   1.89534
   A19        1.90475  -0.00038  -0.00004  -0.00398  -0.00402   1.90073
   A20        1.93427   0.00018   0.00001   0.00154   0.00155   1.93581
   A21        1.93321   0.00019   0.00004   0.00250   0.00253   1.93574
   A22        1.89243   0.00003  -0.00001  -0.00066  -0.00067   1.89177
   A23        1.89630   0.00006  -0.00000  -0.00004  -0.00004   1.89627
   A24        1.90204  -0.00009   0.00001   0.00055   0.00055   1.90259
   A25        2.06675  -0.00110  -0.00002  -0.00616  -0.00623   2.06052
   A26        2.05392  -0.00119   0.00000  -0.00439  -0.00454   2.04938
   A27        2.16177   0.00228   0.00001   0.01052   0.01074   2.17251
   A28        2.23440  -0.00079  -0.00003  -0.00401  -0.00421   2.23019
   A29        1.75543  -0.00112  -0.00001  -0.01033  -0.01051   1.74492
   A30        2.31275   0.00022   0.00001  -0.00284  -0.00292   2.30983
   A31        1.94573   0.00038   0.00001  -0.00168  -0.00173   1.94400
   A32        1.89251  -0.00036  -0.00008  -0.00393  -0.00400   1.88851
   A33        1.94287   0.00015   0.00004   0.00319   0.00326   1.94613
   A34        1.89532   0.00008   0.00002   0.00380   0.00388   1.89919
   A35        1.89184  -0.00020   0.00002   0.00007   0.00007   1.89192
   A36        1.89441  -0.00005  -0.00001  -0.00141  -0.00142   1.89299
   A37        1.93907   0.00058  -0.00007   0.00619   0.00600   1.94507
   A38        1.94479   0.00043  -0.00003   0.01042   0.01026   1.95505
   A39        1.90884  -0.00025  -0.00001  -0.00932  -0.00931   1.89953
   A40        1.93855   0.00015  -0.00001   0.00926   0.00902   1.94757
   A41        1.86084  -0.00039   0.00009  -0.01082  -0.01069   1.85015
   A42        1.86823  -0.00062   0.00003  -0.00764  -0.00747   1.86076
   A43        1.92855  -0.00014   0.00001  -0.01115  -0.01104   1.91751
   A44        1.93116   0.00027   0.00004   0.00552   0.00554   1.93671
   A45        1.90144  -0.00053  -0.00007  -0.00470  -0.00480   1.89664
   A46        1.90263  -0.00001   0.00004   0.00347   0.00337   1.90600
   A47        1.89903   0.00040  -0.00000   0.00595   0.00597   1.90500
   A48        1.90054   0.00001  -0.00001   0.00111   0.00111   1.90164
   A49        1.93694   0.00028   0.00002   0.00240   0.00242   1.93936
   A50        1.90220  -0.00034  -0.00006  -0.00431  -0.00437   1.89783
   A51        1.93500   0.00008   0.00005   0.00232   0.00237   1.93737
   A52        1.89060  -0.00003  -0.00002  -0.00126  -0.00127   1.88933
   A53        1.90042  -0.00008   0.00001   0.00056   0.00056   1.90098
   A54        1.89775   0.00009  -0.00000   0.00017   0.00017   1.89792
   A55        2.07345  -0.00124   0.00001  -0.00663  -0.01103   2.06242
   A56        2.05295  -0.00290   0.00003  -0.00766  -0.01253   2.04042
   A57        2.15640   0.00418  -0.00004   0.01899   0.01406   2.17046
   A58        2.79917  -0.00042  -0.00000  -0.00571  -0.00625   2.79292
   A59        2.52458   0.00003   0.00000  -0.00626  -0.00686   2.51772
   A60        2.97973  -0.00089  -0.00017  -0.07117  -0.07158   2.90816
   A61        3.29837   0.00122   0.00010   0.01420   0.01470   3.31307
    D1        0.99553  -0.00098  -0.00001  -0.01800  -0.01781   0.97772
    D2       -3.11085  -0.00001  -0.00009   0.00076   0.00089  -3.10996
    D3       -1.09830  -0.00033  -0.00002  -0.00362  -0.00327  -1.10158
    D4       -1.08642  -0.00059   0.00005  -0.01274  -0.01270  -1.09912
    D5        1.09038   0.00038  -0.00004   0.00603   0.00600   1.09638
    D6        3.10293   0.00006   0.00004   0.00165   0.00183   3.10476
    D7        3.10728  -0.00050   0.00009  -0.01086  -0.01083   3.09644
    D8       -0.99910   0.00047  -0.00000   0.00791   0.00786  -0.99124
    D9        1.01345   0.00015   0.00008   0.00352   0.00370   1.01714
   D10        0.41842   0.00029  -0.00001  -0.03336  -0.03364   0.38478
   D11        2.50091  -0.00038  -0.00010  -0.04201  -0.04221   2.45870
   D12       -1.71506  -0.00020  -0.00012  -0.04071  -0.04084  -1.75590
   D13        1.05639   0.00023  -0.00012  -0.01185  -0.01174   1.04465
   D14       -1.02594   0.00031  -0.00010  -0.00991  -0.00978  -1.03572
   D15       -3.13568   0.00012  -0.00016  -0.01488  -0.01481   3.13270
   D16       -1.11705  -0.00042  -0.00003  -0.02872  -0.02874  -1.14579
   D17        3.08381  -0.00034  -0.00001  -0.02678  -0.02678   3.05703
   D18        0.97407  -0.00053  -0.00007  -0.03174  -0.03181   0.94226
   D19       -3.14154  -0.00016  -0.00008  -0.02381  -0.02412   3.11753
   D20        1.05932  -0.00008  -0.00006  -0.02186  -0.02215   1.03717
   D21       -1.05042  -0.00027  -0.00012  -0.02683  -0.02718  -1.07760
   D22       -1.07814  -0.00053   0.00001  -0.02426  -0.02442  -1.10256
   D23        3.12220  -0.00044   0.00004  -0.02188  -0.02200   3.10020
   D24        1.00882  -0.00058   0.00001  -0.02529  -0.02545   0.98337
   D25        1.09547   0.00044  -0.00010  -0.00688  -0.00696   1.08851
   D26       -0.98737   0.00053  -0.00007  -0.00450  -0.00455  -0.99192
   D27       -3.10075   0.00039  -0.00011  -0.00791  -0.00800  -3.10875
   D28       -3.12282  -0.00016  -0.00007  -0.01713  -0.01705  -3.13987
   D29        1.07752  -0.00007  -0.00004  -0.01475  -0.01464   1.06288
   D30       -1.03586  -0.00021  -0.00008  -0.01816  -0.01809  -1.05395
   D31        2.43946   0.00047  -0.00001   0.03728   0.03705   2.47651
   D32       -0.74215   0.00016   0.00002   0.03646   0.03658  -0.70557
[...]
 00002507,0.00004253,-0.00000120,-0.00002092,0.00002730,-0.00009582,-0.
 00005385,-0.00060295,-0.00085157,0.00164815,-0.00124580,0.00052098,-0.
 00066784,0.00012230,0.00060763,-0.00069818,-0.00000128,0.00000595,-0.0
 0000287,0.00000785,-0.00001996,-0.00003414,-0.00001765,0.00000972,0.00
 001544,0.00000696,-0.00003132,-0.00000208,0.00001120,0.00000352,0.0000
 0283,-0.00001225,0.00002081,-0.00001025,0.00004314,0.00000327,0.000008
 54,-0.00002108,0.00000532,-0.00000122,-0.00001661,0.00000456,0.0000008
 6,0.00046693,0.00009592,0.00043098,0.00314062,0.00132314,0.00206699,-0
 .27253348,-0.07363507,-0.08659455,0.00057470,0.00016166,0.00048235,0.0
 0115493,0.00069083,-0.00044188,-0.00027395,-0.00022660,0.00011266,0.00
 006644,-0.00025537,0.00028045,0.00047518,-0.00004400,0.00012942,-0.000
 05900,-0.00003964,-0.00012035,0.00014936,0.00003861,0.00007489,0.28581
 375,-0.00001782,-0.00000571,-0.00000433,0.00011259,0.00004658,0.000015
 52,-0.00003354,0.00002869,-0.00001620,0.00001813,-0.00001592,0.0000190
 6,0.00014313,0.00034065,-0.00059302,-0.00045533,-0.00013936,0.00017130
 ,-0.00003934,-0.00053714,0.00044187,0.00000597,-0.00000146,-0.00001521
 ,-0.00000455,0.00000694,0.00000446,0.00000098,-0.00000767,0.00000610,-
 0.00003264,0.00000438,0.00001976,0.00000463,-0.00004072,-0.00005139,0.
 00007557,-0.00001443,0.00002402,-0.00000359,0.00000239,-0.00000293,0.0
 0000722,0.00001069,-0.00000249,-0.00000779,-0.00000874,0.00000556,0.00
 067393,-0.00000809,0.00058036,-0.00345116,-0.00323546,-0.00243339,-0.0
 7260114,-0.07474511,-0.02671528,0.00031414,0.00015428,-0.00106913,-0.0
 0114254,0.00109598,-0.00118140,-0.00013146,-0.00023275,0.00022434,0.00
 058603,-0.00050902,0.00075240,-0.00012787,0.00026521,0.00047902,0.0001
 6294,-0.00002225,0.00003060,-0.00003426,-0.00012439,-0.00008722,0.0784
 6687,0.07278928,-0.00010429,0.00009512,-0.00004102,0.00014148,-0.00020
 421,0.00014858,-0.00005303,0.00002190,0.00005551,-0.00000414,0.0000917
 9,0.00006504,0.00070773,0.00070655,-0.00146160,-0.00097403,-0.00025459
 ,0.00079070,-0.00026778,-0.00051553,0.00058820,-0.00000289,-0.00001520
 ,-0.00000533,-0.00001677,0.00002443,0.00004932,0.00002518,-0.00001146,
 -0.00001964,-0.00001723,0.00003808,-0.00001100,-0.00000669,-0.00002563
 ,-0.00001805,0.00000798,-0.00001712,0.00001370,-0.00004423,0.00000099,
 -0.00001157,0.00001858,-0.00000913,-0.00000140,0.00002026,-0.00000531,
 -0.00000568,-0.00085515,-0.00078319,0.00141776,-0.03003190,-0.00986969
 ,-0.01138295,-0.08095820,-0.02591763,-0.08063138,0.00174292,-0.0008810
 2,-0.00649617,-0.00176425,0.00117016,0.00113727,0.00034505,0.00007840,
 -0.00036230,0.00009202,-0.00059360,0.00028324,0.00047716,0.00058000,-0
 .00058239,0.00005057,0.00006091,-0.00004609,0.00028141,-0.00009797,0.0
 0027520,0.09108228,0.03086311,0.08878507,-0.00002795,0.00003548,-0.000
 02587,0.00000622,-0.00009940,0.00006023,-0.00001150,-0.00001310,0.0000
 0511,-0.00000615,0.00004234,0.00000314,0.00014523,0.00001387,-0.000186
 09,-0.00039752,0.00015914,0.00011709,-0.00010166,0.00000996,0.00004265
 ,-0.00001770,0.00000098,0.00002519,0.00000256,0.00000471,0.00001954,0.
 00001318,0.00000283,-0.00001167,0.00002374,0.00001481,-0.00001346,-0.0
 0003348,0.00002532,0.00003364,-0.00003745,-0.00000825,-0.00000971,-0.0
 0001286,-0.00000165,-0.00000006,0.00000345,-0.00000994,0.00000287,0.00
 001423,0.00000688,-0.00000452,0.00021589,0.00063040,0.00027019,-0.0021
 6021,-0.00037912,0.00085548,-0.07044400,-0.06571198,0.03378804,0.00019
 779,0.00082549,-0.00068251,-0.00014811,-0.00260945,0.00207501,0.000611
 49,0.00065604,-0.00107897,-0.00063466,0.00149972,-0.00085645,0.0002657
 0,0.00020900,-0.00021954,0.00008303,-0.00024858,-0.00006437,0.00052350
 ,-0.00019707,0.00015006,-0.00396628,-0.02284273,0.01454023,0.06823986,
 -0.00000716,0.00001744,0.00000062,0.00002485,-0.00002215,0.00001097,-0
 .00000152,0.00000942,0.00001851,0.00000065,0.00001133,0.00001037,0.000
 09775,0.00000860,-0.00009244,-0.00017012,0.00002021,0.00005637,-0.0000
 4846,0.00000006,0.00002396,0.00000974,-0.00000767,-0.00001146,-0.00000
 683,0.00000424,0.00000344,0.00000283,-0.00000334,-0.00000440,-0.000006
 18,0.00000524,-0.00000225,0.00001331,-0.00001103,-0.00000094,-0.000003
 67,-0.00000285,0.00000001,-0.00000642,0.00000118,-0.00000072,0.0000023
 3,-0.00000348,-0.00000170,0.00000278,-0.00000231,-0.00000159,0.0003851
 7,0.00025645,-0.00068971,0.00131428,0.00494595,-0.00323505,-0.06674027
 ,-0.24821924,0.11150266,0.00018041,0.00071879,-0.00040920,0.00050897,-
 0.00055557,0.00110052,-0.00019555,0.00023395,0.00022764,0.00171202,-0.
 00156475,-0.00284378,0.00009667,-0.00001199,-0.00011611,-0.00013285,0.
 00020460,-0.00018629,-0.00000486,0.00039431,-0.00016318,0.00023847,-0.
 00474592,0.00285623,0.07022040,0.26240675,0.00000337,0.00000499,0.0000
 0683,0.00000052,-0.00000300,0.00000087,0.00001191,0.00001221,0.0000205
 6,0.00000014,-0.00000416,0.00000917,0.00007282,0.00024984,-0.00030821,
 -0.00021438,-0.00003553,0.00020546,0.00007495,-0.00016402,0.00016123,0
 .00001548,0.00000610,-0.00001964,-0.00000232,0.00000035,0.00000148,-0.
 00001167,-0.00000439,-0.00000166,-0.00001295,-0.00000194,0.00000040,0.
 00004250,-0.00001315,-0.00000650,-0.00000380,-0.00000546,0.00000090,-0
 .00000127,0.00000075,0.00000009,0.00000132,-0.00000102,-0.00000079,-0.
 00000429,-0.00000412,-0.00000177,0.00010012,-0.00278250,-0.00627334,0.
 00868201,0.02874941,-0.01436022,0.03338228,0.10631214,-0.10729771,0.00
 105101,0.00113228,0.00145167,0.00002728,0.00360334,-0.00179901,-0.0004
 6586,-0.00074031,0.00136453,-0.00052742,-0.00168190,0.00177899,-0.0000
 1094,-0.00011946,0.00005117,-0.00019732,-0.00020598,0.00019345,0.00059
 306,0.00171621,-0.00086739,-0.00184631,-0.01079512,0.00586489,-0.03672
 289,-0.11722543,0.11659405,-0.00002728,0.00002319,-0.00000494,0.000081
 80,-0.00004147,0.00004103,-0.00001547,0.00002268,0.00001057,0.00000366
 ,0.00001818,0.00002373,0.00027296,0.00048983,-0.00073566,-0.00080845,-
 0.00024231,0.00048258,-0.00003098,-0.00041112,0.00035243,0.00000787,-0
 .00000456,-0.00001678,-0.00000972,0.00000829,0.00001304,0.00000255,-0.
 00000683,-0.00000232,-0.00002130,0.00000918,0.00000539,0.00001193,-0.0
 0003189,-0.00002199,0.00002706,-0.00001110,0.00001063,-0.00001267,0.00
 000071,-0.00000343,0.00000855,0.00000277,-0.00000267,0.00000039,-0.000
 00575,0.00000240,-0.00007114,0.00019501,-0.00028462,-0.00218092,0.0005
 4013,-0.00059737,-0.17237444,0.13107024,0.03654074,0.00016998,-0.00054
 279,-0.00048704,0.00114493,-0.00074895,-0.00055935,-0.00017195,0.00001
 045,0.00024419,0.00032111,-0.00021469,0.00007465,-0.00008654,0.0001196
 7,0.00009497,0.00036118,-0.00037312,0.00031128,0.00010542,-0.00024080,
 -0.00008309,-0.01389671,0.02070817,0.00694896,0.00759012,-0.00748083,-
 0.00329424,0.17928660,-0.00001067,-0.00000203,-0.00001470,-0.00001219,
 -0.00001902,0.00001421,-0.00001054,-0.00001177,-0.00001113,-0.00000238
 ,0.00000736,-0.00000447,-0.00005229,0.00003015,-0.00006641,-0.00011942
 ,-0.00001446,0.00005550,0.00000520,-0.00003812,0.00004471,-0.00002000,
 0.00000694,0.00002443,0.00000829,-0.00000131,0.00000672,0.00000470,0.0
 0000424,0.00000036,0.00001396,0.00000208,-0.00000245,-0.00003456,0.000
 01989,0.00000641,-0.00000484,0.00000054,0.00000013,-0.00000013,-0.0000
 0193,0.00000007,-0.00000008,-0.00000011,0.00000292,0.00000314,0.000004
 56,-0.00000041,-0.00031386,-0.00012409,0.00090845,0.00248731,-0.003858
 36,0.00137685,0.13053376,-0.18691027,-0.03918085,0.00007880,0.00000894
 ,0.00036385,-0.00080789,-0.00127875,0.00148983,0.00052028,0.00037723,-
 0.00094808,0.00077754,0.00019533,-0.00181530,-0.00011951,0.00000564,-0
 .00001466,-0.00020146,0.00036814,0.00061199,-0.00016308,0.00009855,-0.
 00009050,-0.00726365,0.00886782,0.00320746,0.01785640,-0.01434903,-0.0
 0701102,-0.14264666,0.19639892,-0.00002388,-0.00000539,-0.00003816,-0.
 00001101,-0.00005197,0.00000254,-0.00003141,-0.00003428,-0.00001271,-0
 .00000712,0.00002586,0.00000887,0.00005214,-0.00001361,-0.00020989,-0.
 00023928,0.00003878,0.00016834,-0.00007594,-0.00005419,0.00012452,-0.0
 0003424,0.00000447,0.00004934,0.00001305,0.00000672,0.00001462,0.00001
 953,0.00000344,0.00000148,0.00001427,0.00001162,0.00000775,-0.00003241
 ,0.00004324,-0.00002582,0.00003171,-0.00000090,0.00001444,-0.00000914,
 0.00000035,-0.00000149,0.00000819,0.00000002,0.00000579,0.00000821,0.0
 0000234,-0.00000069,0.00023782,-0.00058501,0.00093739,0.02212749,-0.02
 413984,-0.00586297,0.03414474,-0.03616601,-0.05768827,0.00068413,0.000
 01772,0.00138441,-0.00223894,0.00134862,-0.00739139,0.00272904,-0.0013
 9930,-0.00078593,0.00044674,-0.00020318,0.00138666,0.00003155,0.000079
 84,-0.00004629,0.00004890,0.00068701,-0.00071745,-0.00026942,-0.000063
 77,0.00030773,-0.00626424,0.00946395,0.00211650,-0.01177285,0.00913524
 ,0.00337351,-0.03885554,0.04148238,0.06305662,-0.00001442,-0.00000694,
 -0.00001502,-0.00001673,-0.00002415,-0.00000422,-0.00001509,-0.0000106
 4,-0.00000276,-0.00000602,0.00000987,0.00000236,0.00003407,0.00005119,
 -0.00017048,-0.00007671,0.00002475,0.00011464,0.00000909,-0.00005803,0
 .00009462,-0.00002112,0.00000723,0.00001860,0.00000856,-0.00000007,0.0
 0000820,0.00000345,0.00000233,0.00000132,0.00000754,0.00000306,0.00000
 082,-0.00002114,0.00001529,-0.00001689,0.00000942,0.00000035,0.0000058
 4,-0.00000241,-0.00000070,-0.00000033,0.00000389,0.00000024,0.00000527
 ,0.00000323,0.00000223,-0.00000135,0.00115805,0.00109661,-0.00066207,0
 .00142489,-0.00484445,-0.02932151,-0.00545533,-0.00181343,-0.00124341,
 -0.05052445,0.00426927,0.02355050,0.00275846,-0.00045009,-0.00269261,-
 0.00034563,-0.00008546,0.00116301,-0.00026911,0.00006495,0.00047114,0.
 00000736,0.00025076,0.00010692,-0.00001100,-0.00001430,0.00010592,-0.0
 0014951,-0.00053353,0.00045718,0.00032713,-0.00038061,-0.00174516,-0.0
 0007097,0.00007451,0.00012989,0.00008288,-0.00021729,0.00004500,0.0526
 2369,0.00000497,-0.00000305,0.00000566,-0.00000119,0.00001007,-0.00000
 153,0.00000629,0.00000604,0.00000335,0.00000135,-0.00000691,0.00000153
 ,0.00002876,0.00014709,-0.00016593,-0.00007338,-0.00005244,0.00010382,
 0.00004853,-0.00010812,0.00008856,0.00000534,0.00001069,-0.00000913,0.
 00000277,-0.00000011,0.00000002,-0.00000994,-0.00000348,-0.00000102,-0
 .00000289,-0.00000212,0.00000219,0.00000736,-0.00000645,-0.00000078,-0
 .00000026,-0.00000291,-0.00000012,0.00000164,0.00000064,0.00000013,0.0
 0000023,0.00000103,-0.00000063,-0.00000345,-0.00000270,0.00000022,0.00
 058137,0.00017043,-0.00106132,0.00253985,-0.00301405,-0.01009744,-0.00
 239689,-0.00037915,-0.00036537,0.00290953,-0.05878940,-0.04442201,0.00
 058294,0.00039388,0.00055471,0.00000516,-0.00020013,0.00010198,0.00005
 973,-0.00010775,-0.00003981,0.00004033,0.00006419,0.00027398,-0.000058
 91,-0.00007692,-0.00010628,-0.00064401,-0.00031989,0.00028206,0.000019
 10,0.00041200,-0.00074724,0.00000054,0.00011202,-0.00026859,-0.0000794
 8,0.00017234,0.00037395,-0.00150366,0.05602984,-0.00001407,0.00000428,
 -0.00000689,0.00000958,-0.00002708,-0.00000235,-0.00001234,0.00000434,
 0.00000404,-0.00000385,0.00001296,0.00000721,0.00010092,0.00007258,-0.
 00020885,-0.00015775,0.00001491,0.00014883,-0.00002587,-0.00007217,0.0
 0010645,-0.00000122,-0.00000249,-0.00000140,-0.00000267,0.00000291,0.0
 0000579,0.00000286,-0.00000170,-0.00000079,-0.00000652,0.00000469,0.00
 000064,0.00000075,-0.00000952,-0.00001456,0.00001219,-0.00000207,0.000
 00588,-0.00000605,0.00000102,-0.00000123,0.00000526,-0.00000062,0.0000
 0377,0.00000339,-0.00000133,-0.00000137,0.00066290,0.00082130,0.000720
 70,0.00153192,-0.00097728,-0.01076736,-0.00308467,-0.00076963,0.000258
 78,0.02011854,-0.04559917,-0.31095619,0.00143489,-0.00064251,-0.001508
 16,-0.00061626,0.00030109,0.00130105,-0.00043177,0.00021430,0.00035638
 ,-0.00004587,0.00010677,0.00023906,-0.00006470,0.00007250,-0.00000462,
 -0.00009983,-0.00035423,0.00051217,0.00016028,-0.00023080,-0.00065551,
 0.00014050,-0.00006291,0.00029774,0.00012949,0.00010144,0.00021194,-0.
 01960732,0.05039745,0.33124179,0.00001915,0.00000774,0.00002618,0.0000
 2752,0.00002888,-0.00000202,0.00002780,0.00002121,0.00001599,0.0000072
 5,-0.00001652,0.00000516,0.00008755,0.00018310,-0.00011105,-0.00006295
 ,-0.00011645,0.00004769,0.00006629,-0.00011236,0.00003791,0.00004320,-
 0.00000361,-0.00004423,-0.00001268,-0.00000013,-0.00000914,-0.00001286
 ,-0.00000641,-0.00000127,-0.00002173,-0.00000617,0.00000072,0.00005728
 ,-0.00002423,0.00001131,-0.00000445,-0.00000360,-0.00000367,0.00000228
 ,0.00000103,-0.00000017,-0.00000241,0.00000164,-0.00000605,-0.00000798
 ,-0.00000596,0.00000157,0.00118972,0.00098572,0.00037009,-0.02078712,0
 .02080333,0.00487188,0.00122128,0.00061928,0.00100946,-0.18519201,0.13
 345840,0.02998673,-0.00391341,-0.00540386,-0.00361111,-0.00053306,0.00
 116384,0.00133564,0.00026898,0.00149692,0.00028012,0.00029673,-0.00003
 389,-0.00017900,-0.00012197,-0.00092381,-0.00001220,-0.00011894,-0.000
 06794,0.00000691,0.00019079,-0.00026147,0.00021925,-0.00005336,-0.0000
 8812,-0.00004741,0.00021258,-0.00039843,-0.00070248,-0.00024288,-0.000
 63325,-0.00058917,0.19949733,0.00000184,-0.00000196,-0.00000133,-0.000
 00623,-0.00000153,0.00000173,0.00000273,-0.00000337,-0.00000386,-0.000
 00030,-0.00000127,-0.00000173,0.00000802,0.00005614,-0.00005394,-0.000
 02365,-0.00002275,0.00003330,0.00003275,-0.00003768,0.00002401,0.00000
 327,0.00000238,0.00000099,0.00000071,-0.00000193,0.00000035,-0.0000016
 5,0.00000118,0.00000075,-0.00000016,-0.00000161,-0.00000113,-0.0000016
 7,0.00000522,0.00000521,0.00000009,0.00000112,0.00000066,0.00000103,-0
 .00000090,-0.00000008,-0.00000070,0.00000064,0.00000102,-0.00000075,0.
 00000120,-0.00000022,-0.00024522,0.00038288,0.00006753,-0.01009760,0.0
 0731104,0.00143576,0.00003294,0.00026282,0.00030365,0.13609587,-0.1780
 6376,-0.02856625,-0.00273939,-0.00245709,-0.00075958,-0.00005313,0.000
 79691,0.00054934,0.00059727,0.00148850,-0.00020178,0.00007477,0.000222
 14,-0.00000613,-0.00040453,-0.00016632,-0.00015528,0.00003677,-0.00000
 188,0.00012244,-0.00006893,0.00008472,0.00022847,0.00013248,-0.0000553
 5,-0.00005263,-0.00002385,0.00013163,-0.00002254,0.00155560,-0.0024491
 6,0.00065812,-0.14351860,0.18656100,-0.00000066,0.00000117,0.00000423,
 0.00000991,0.00000611,-0.00000369,0.00000522,0.00000617,0.00000898,0.0
 0000105,-0.00000228,0.00000387,0.00001783,-0.00001849,0.00004160,0.000
 00835,-0.00000973,-0.00004742,-0.00000877,0.00001887,-0.00002869,0.000
 00856,-0.00000293,-0.00001157,-0.00000343,0.00000007,-0.00000149,-0.00
 000006,-0.00000072,0.00000009,-0.00000636,-0.00000107,-0.00000135,0.00
 001622,-0.00000545,-0.00000240,-0.00000139,-0.00000038,-0.00000050,-0.
 00000017,-0.00000008,-0.00000030,-0.00000033,0.00000013,-0.00000123,-0
 .00000110,-0.00000073,-0.00000008,0.00048069,0.00029349,0.00005499,-0.
 00856477,0.00870014,0.00081936,-0.00007928,0.00056276,0.00025824,0.031
 20476,-0.02938222,-0.05436392,-0.00182116,-0.00106173,-0.00229167,-0.0
 0038986,0.00042113,0.00124087,-0.00038787,0.00028748,0.00042608,-0.000
 00320,0.00012380,-0.00016786,0.00015483,0.00001932,0.00029727,0.000133
 06,-0.00014906,-0.00006838,0.00016549,-0.00000297,0.00011233,-0.000078
 34,0.00012098,-0.00004346,-0.00037401,-0.00044497,-0.00034520,0.022305
 77,-0.02107246,-0.00117376,-0.03048392,0.03240464,0.05261196,-0.000017
 02,0.00001132,-0.00001719,0.00001192,-0.00004557,0.00000630,-0.0000233
 2,-0.00000774,-0.00001168,-0.00000507,0.00002797,0.00000047,0.00005259
 ,-0.00026793,0.00014533,0.00000570,0.00012179,-0.00009899,-0.00016433,
 0.00016444,-0.00008157,-0.00001664,-0.00000779,0.00002026,0.00000039,0
 .00000315,0.00000822,0.00001422,0.00000277,-0.00000429,0.00001183,0.00
 000985,-0.00000267,-0.00004678,0.00001145,0.00000951,0.00000212,-0.000
 00050,0.00000213,-0.00000798,-0.00000075,-0.00000110,0.00000324,-0.000
 00345,0.00000339,0.00001077,0.00000453,-0.00000132,-0.00525340,-0.0007
 4783,-0.00270675,-0.00831705,-0.02426737,0.01397891,0.00100199,0.00047
 325,0.00146103,-0.06537077,-0.05656394,0.03235295,0.00094582,-0.004077
 96,0.00301312,0.00007449,0.00066564,-0.00088475,0.00028978,0.00199493,
 -0.00118480,-0.00013182,-0.00157729,0.00065843,0.00016773,-0.00011130,
 -0.00013187,0.00007836,0.00022902,-0.00010806,-0.00002950,0.00028756,0
 .00014467,0.00018790,0.00000770,-0.00082560,0.00001602,0.00010954,-0.0
 0007459,-0.00121919,-0.00143848,0.00045646,0.00787210,0.01861022,-0.01
 230708,0.06985591,-0.00000682,0.00001358,-0.00000127,0.00002978,-0.000
 01413,0.00000258,-0.00000642,0.00000873,0.00000816,0.00000106,0.000012
 80,0.00000659,0.00008737,-0.00015115,0.00011045,-0.00002878,0.00005124
 ,-0.00009755,-0.00011776,0.00009521,-0.00007190,0.00000456,-0.00000875
 ,-0.00000531,-0.00000575,0.00000457,0.00000234,0.00000688,-0.00000231,
 -0.00000412,-0.00000264,0.00000627,-0.00000095,0.00000345,-0.00000561,
 0.00000359,-0.00000146,-0.00000395,-0.00000109,-0.00000596,0.00000120,
 -0.00000073,0.00000223,-0.00000271,-0.00000133,0.00000453,-0.00000123,
 -0.00000041,-0.00261194,0.00024467,-0.00158816,-0.00112678,-0.00911525
 ,0.00519233,0.00054108,0.00026098,0.00063910,-0.05999308,-0.24512134,0
 .10784811,0.00042383,-0.00105519,0.00050804,0.00017202,0.00034042,-0.0
 0019900,0.00095940,0.00088476,-0.00046115,-0.00011045,-0.00043356,0.00
 051271,0.00014283,0.00038583,-0.00002817,0.00012599,0.00003757,0.00003
 257,0.00009899,0.00028452,-0.00007508,-0.00022551,0.00020416,-0.000667
 91,-0.00011231,-0.00009106,0.00001443,0.00251514,0.00799446,-0.0040371
 3,-0.00714628,-0.01404295,0.00918898,0.06638279,0.25921822,0.00000341,
 -0.00000059,0.00000385,0.00000375,0.00000895,-0.00000281,0.00000502,0.
 00000201,0.00000315,0.00000100,-0.00000337,0.00000052,-0.00001080,-0.0
 0003367,0.00006487,0.00004062,-0.00000809,-0.00004744,-0.00001446,0.00
 002675,-0.00003243,0.00000087,0.00000556,-0.00000567,0.00000240,-0.000
 00041,-0.00000069,-0.00000452,-0.00000159,-0.00000177,0.00000393,-0.00
 000048,-0.00000072,-0.00000045,0.00000179,0.00000544,-0.00000717,-0.00
 000120,-0.00000259,0.00000157,-0.00000021,-0.00000008,-0.00000135,0.00
 000022,-0.00000137,-0.00000131,-0.00000041,0.00000015,-0.00204324,-0.0
 0057956,-0.00056102,-0.00234134,-0.01105106,0.00491743,-0.00010358,-0.
 00106746,0.00103089,0.03407672,0.10978605,-0.11195818,0.00063724,0.000
 81109,-0.00022579,0.00003250,-0.00013513,0.00027262,-0.00013405,-0.000
 72521,-0.00002158,-0.00027669,-0.00040012,0.00070341,-0.00002548,0.000
 17147,-0.00011968,-0.00021681,-0.00012147,0.00028975,0.00008340,0.0000
 9945,0.00002875,-0.00040167,-0.00002037,-0.00039727,0.00003697,-0.0000
 9277,-0.00004620,0.00689613,0.02617005,-0.01011917,-0.00242374,-0.0060
 1150,0.00267312,-0.03381888,-0.11682872,0.11355050\\-0.00000016,-0.000
 00184,0.00000075,0.00000002,-0.00000054,0.00000024,-0.00000013,0.00000
 025,0.00000153,0.00000004,-0.00000016,-0.00000008,-0.00000014,-0.00000
 038,-0.00000055,0.00000012,0.00000130,-0.00000059,0.00000047,-0.000000
 38,-0.00000144,0.00000027,-0.00000210,0.00000059,-0.00000016,-0.000002
 09,0.00000127,0.00000010,-0.00000240,-0.00000027,-0.00000034,-0.000000
 03,0.00000228,-0.00000021,0.00000018,0.00000177,-0.00000028,0.00000133
 ,0.00000136,-0.00000007,-0.00000034,0.00000067,0.00000005,0.00000088,-
 0.00000025,0.00000012,-0.00000065,-0.00000090,0.00000018,-0.00000028,-
 0.00000143,-0.00000001,0.00000043,-0.00000049,0.00000005,0.00000190,-0
 .00000078,-0.00000003,0.00000016,0.00000007,-0.00000013,-0.00000040,0.
 00000113,-0.00000024,-0.00000091,0.00000065,-0.00000023,0.00000104,0.0
 0000113,0.00000019,-0.00000020,-0.00000185,0.00000036,0.00000004,-0.00
 000229,0.00000020,-0.00000129,-0.00000138,-0.00000004,0.00000198,-0.00
 000064,-0.00000004,0.00000230,0.00000025,0.00000018,0.00000209,-0.0000
 0129,0.,-0.00000087,0.00000030,0.00000004,0.00000032,-0.00000064,-0.00
 000018,0.00000065,0.00000090\\\@


 SIGN SEEN IN A RESTAURANT-
 WE RESERVE THE RIGHT TO SERVE REFUSE TO ANYONE.
 File lengths (MBytes):  RWF=    218 Int=      0 D2E=      0 Chk=      6 Scr=      1
 Normal termination of Gaussian 16 at Tue Aug  9 17:57:57 2022.
real 6773.01
user 24204.52
sys 112.97
