 Entering Gaussian System, Link 0=g16
 Input=gaussian_test.inp
 Output=gaussian_test.log
 Initial command:
 /sw/restricted/lms/sw/Gaussian/g16_B01/g16/l1.exe "/scratch/user/peterchao1/peterchao1/7003909_1675700106000000427738572/Gau-54675.inp" -scrdir="/scratch/user/peterchao1/peterchao1/7003909_1675700106000000427738572/"
 Entering Link 1 = /sw/restricted/lms/sw/Gaussian/g16_B01/g16/l1.exe PID=     54690.
  
 Copyright (c) 1988-2017, Gaussian, Inc.  All Rights Reserved.
  
 This is part of the Gaussian(R) 16 program.  It is based on
 the Gaussian(R) 09 system (copyright 2009, Gaussian, Inc.),
 the Gaussian(R) 03 system (copyright 2003, Gaussian, Inc.),
 the Gaussian(R) 98 system (copyright 1998, Gaussian, Inc.),
 the Gaussian(R) 94 system (copyright 1995, Gaussian, Inc.),
 the Gaussian 92(TM) system (copyright 1992, Gaussian, Inc.),
 the Gaussian 90(TM) system (copyright 1990, Gaussian, Inc.),
 the Gaussian 88(TM) system (copyright 1988, Gaussian, Inc.),
 the Gaussian 86(TM) system (copyright 1986, Carnegie Mellon
 University), and the Gaussian 82(TM) system (copyright 1983,
 Carnegie Mellon University). Gaussian is a federally registered
 trademark of Gaussian, Inc.
  
 This software contains proprietary and confidential information,
 including trade secrets, belonging to Gaussian, Inc.
  
 This software is provided under written license and may be
 used, copied, transmitted, or stored only in accord with that
 written license.
  
 The following legend is applicable only to US Government
 contracts under FAR:
  
                    RESTRICTED RIGHTS LEGEND
  
 Use, reproduction and disclosure by the US Government is
 subject to restrictions as set forth in subparagraphs (a)
 and (c) of the Commercial Computer Software - Restricted
 Rights clause in FAR 52.227-19.
  
 Gaussian, Inc.
 340 Quinnipiac St., Bldg. 40, Wallingford CT 06492
  
  
 ---------------------------------------------------------------
 Warning -- This program may not be used in any manner that
 competes with the business of Gaussian, Inc. or will provide
 assistance to any competitor of Gaussian, Inc.  The licensee
 of this program is prohibited from giving any competitor of
 Gaussian, Inc. access to this program.  By using this program,
 the user acknowledges that Gaussian, Inc. is engaged in the
 business of creating and licensing software in the field of
 computational chemistry and represents and warrants to the
 licensee that it is not a competitor of Gaussian, Inc. and that
 it will not use this program in any manner prohibited above.
 ---------------------------------------------------------------
  

 Cite this work as:
 Gaussian 16, Revision B.01,
 M. J. Frisch, G. W. Trucks, H. B. Schlegel, G. E. Scuseria, 
 M. A. Robb, J. R. Cheeseman, G. Scalmani, V. Barone, 
 G. A. Petersson, H. Nakatsuji, X. Li, M. Caricato, A. V. Marenich, 
 J. Bloino, B. G. Janesko, R. Gomperts, B. Mennucci, H. P. Hratchian, 
 J. V. Ortiz, A. F. Izmaylov, J. L. Sonnenberg, D. Williams-Young, 
 F. Ding, F. Lipparini, F. Egidi, J. Goings, B. Peng, A. Petrone, 
 T. Henderson, D. Ranasinghe, V. G. Zakrzewski, J. Gao, N. Rega, 
 G. Zheng, W. Liang, M. Hada, M. Ehara, K. Toyota, R. Fukuda, 
 J. Hasegawa, M. Ishida, T. Nakajima, Y. Honda, O. Kitao, H. Nakai, 
 T. Vreven, K. Throssell, J. A. Montgomery, Jr., J. E. Peralta, 
 F. Ogliaro, M. J. Bearpark, J. J. Heyd, E. N. Brothers, K. N. Kudin, 
 V. N. Staroverov, T. A. Keith, R. Kobayashi, J. Normand, 
 K. Raghavachari, A. P. Rendell, J. C. Burant, S. S. Iyengar, 
 J. Tomasi, M. Cossi, J. M. Millam, M. Klene, C. Adamo, R. Cammi, 
 J. W. Ochterski, R. L. Martin, K. Morokuma, O. Farkas, 
 J. B. Foresman, and D. J. Fox, Gaussian, Inc., Wallingford CT, 2016.
 
 ******************************************
 Gaussian 16:  ES64L-G16RevB.01 20-Dec-2017
                 6-Feb-2023 
 ******************************************
 %nprocshared=4
 Will use up to    4 processors via shared memory.
 %mem=8000mb
 %chk=33.chk
 %nprocshared=4
 Will use up to    4 processors via shared memory.
 %mem=8000mb
 ----------------------------------------------------------------------
 #T wB97XD/def2svpp opt=tight freq int(grid=ultrafine) scf=(verytight,q
 c) Volume=tight
 ----------------------------------------------------------------------
 -------
 Monomer
 -------
 Symbolic Z-matrix:
 Charge =  0 Multiplicity = 1
 C                    -2.19218   0.57733  -0.00937 
 C                    -1.21039  -0.364    -0.69659 
 C                     0.14979  -0.48578  -0.00184 
 C                     0.02254  -0.92471   1.45146 
 C                     1.0478   -1.45044  -0.76941 
 S                     0.98082   1.17431   0.03278 
 H                    -2.51736   0.17589   0.94663 
 H                    -3.07048   0.71657  -0.63523 
 H                    -1.73228   1.54849   0.15914 
 H                    -1.04601  -0.01862  -1.72142 
 H                    -1.64798  -1.36456  -0.755 
 H                    -0.53221  -1.85909   1.51197 
 H                    -0.49175  -0.17016   2.04071 
 H                     1.00958  -1.07606   1.88346 
 H                     0.63327  -2.45652  -0.72862 
 H                     2.04453  -1.46952  -0.33421 
 H                     1.13354  -1.15669  -1.8144 
 H                     1.02643   1.32807  -1.28891 
 

 GradGradGradGradGradGradGradGradGradGradGradGradGradGradGradGradGradGrad
 Initialization pass.
                           ----------------------------
                           !    Initial Parameters    !
                           ! (Angstroms and Degrees)  !
 --------------------------                            --------------------------
 ! Name  Definition              Value          Derivative Info.                !
 --------------------------------------------------------------------------------
 ! R1    R(1,2)                  1.5239         estimate D2E/DX2                !
 ! R2    R(1,7)                  1.0867         estimate D2E/DX2                !
 ! R3    R(1,8)                  1.0874         estimate D2E/DX2                !
 ! R4    R(1,9)                  1.0877         estimate D2E/DX2                !
 ! R5    R(2,3)                  1.5322         estimate D2E/DX2                !
 ! R6    R(2,10)                 1.0939         estimate D2E/DX2                !
 ! R7    R(2,11)                 1.0936         estimate D2E/DX2                !
 ! R8    R(3,4)                  1.5235         estimate D2E/DX2                !
 ! R9    R(3,5)                  1.5252         estimate D2E/DX2                !
 ! R10   R(3,6)                  1.8568         estimate D2E/DX2                !
 ! R11   R(4,12)                 1.0883         estimate D2E/DX2                !
 ! R12   R(4,13)                 1.0868         estimate D2E/DX2                !
 ! R13   R(4,14)                 1.088          estimate D2E/DX2                !
 ! R14   R(5,15)                 1.0889         estimate D2E/DX2                !
 ! R15   R(5,16)                 1.0878         estimate D2E/DX2                !
 ! R16   R(5,17)                 1.0889         estimate D2E/DX2                !
 ! R17   R(6,18)                 1.3314         estimate D2E/DX2                !
 ! A1    A(2,1,7)              111.182          estimate D2E/DX2                !
 ! A2    A(2,1,8)              109.8708         estimate D2E/DX2                !
 ! A3    A(2,1,9)              110.4251         estimate D2E/DX2                !
 ! A4    A(7,1,8)              108.1763         estimate D2E/DX2                !
 ! A5    A(7,1,9)              108.6684         estimate D2E/DX2                !
 ! A6    A(8,1,9)              108.4427         estimate D2E/DX2                !
 ! A7    A(1,2,3)              114.6168         estimate D2E/DX2                !
 ! A8    A(1,2,10)             108.9216         estimate D2E/DX2                !
 ! A9    A(1,2,11)             109.3564         estimate D2E/DX2                !
 ! A10   A(3,2,10)             108.4519         estimate D2E/DX2                !
 ! A11   A(3,2,11)             107.8605         estimate D2E/DX2                !
 ! A12   A(10,2,11)            107.3952         estimate D2E/DX2                !
 ! A13   A(2,3,4)              112.4148         estimate D2E/DX2                !
 ! A14   A(2,3,5)              110.1675         estimate D2E/DX2                !
 ! A15   A(2,3,6)              109.5549         estimate D2E/DX2                !
 ! A16   A(4,3,5)              110.3065         estimate D2E/DX2                !
 ! A17   A(4,3,6)              106.092          estimate D2E/DX2                !
 ! A18   A(5,3,6)              108.1404         estimate D2E/DX2                !
 ! A19   A(3,4,12)             110.0575         estimate D2E/DX2                !
 ! A20   A(3,4,13)             110.8991         estimate D2E/DX2                !
 ! A21   A(3,4,14)             110.0643         estimate D2E/DX2                !
 ! A22   A(12,4,13)            108.9498         estimate D2E/DX2                !
 ! A23   A(12,4,14)            108.7177         estimate D2E/DX2                !
 ! A24   A(13,4,14)            108.096          estimate D2E/DX2                !
 ! A25   A(3,5,15)             109.9613         estimate D2E/DX2                !
 ! A26   A(3,5,16)             110.4419         estimate D2E/DX2                !
 ! A27   A(3,5,17)             111.0217         estimate D2E/DX2                !
 ! A28   A(15,5,16)            108.52           estimate D2E/DX2                !
 ! A29   A(15,5,17)            108.3721         estimate D2E/DX2                !
 ! A30   A(16,5,17)            108.4537         estimate D2E/DX2                !
 ! A31   A(3,6,18)              95.7436         estimate D2E/DX2                !
 ! D1    D(7,1,2,3)            -68.3214         estimate D2E/DX2                !
 ! D2    D(7,1,2,10)           170.0033         estimate D2E/DX2                !
 ! D3    D(7,1,2,11)            52.9127         estimate D2E/DX2                !
 ! D4    D(8,1,2,3)            171.9575         estimate D2E/DX2                !
 ! D5    D(8,1,2,10)            50.2822         estimate D2E/DX2                !
 ! D6    D(8,1,2,11)           -66.8084         estimate D2E/DX2                !
 ! D7    D(9,1,2,3)             52.3839         estimate D2E/DX2                !
 ! D8    D(9,1,2,10)           -69.2915         estimate D2E/DX2                !
 ! D9    D(9,1,2,11)           173.618          estimate D2E/DX2                !
 ! D10   D(1,2,3,4)             56.4175         estimate D2E/DX2                !
 ! D11   D(1,2,3,5)            179.8819         estimate D2E/DX2                !
 ! D12   D(1,2,3,6)            -61.273          estimate D2E/DX2                !
 ! D13   D(10,2,3,4)           178.349          estimate D2E/DX2                !
 ! D14   D(10,2,3,5)           -58.1866         estimate D2E/DX2                !
 ! D15   D(10,2,3,6)            60.6585         estimate D2E/DX2                !
 ! D16   D(11,2,3,4)           -65.634          estimate D2E/DX2                !
 ! D17   D(11,2,3,5)            57.8304         estimate D2E/DX2                !
 ! D18   D(11,2,3,6)           176.6755         estimate D2E/DX2                !
 ! D19   D(2,3,4,12)            55.6628         estimate D2E/DX2                !
 ! D20   D(2,3,4,13)           -64.9656         estimate D2E/DX2                !
 ! D21   D(2,3,4,14)           175.468          estimate D2E/DX2                !
 ! D22   D(5,3,4,12)           -67.724          estimate D2E/DX2                !
 ! D23   D(5,3,4,13)           171.6476         estimate D2E/DX2                !
 ! D24   D(5,3,4,14)            52.0812         estimate D2E/DX2                !
 ! D25   D(6,3,4,12)           175.3867         estimate D2E/DX2                !
 ! D26   D(6,3,4,13)            54.7584         estimate D2E/DX2                !
 ! D27   D(6,3,4,14)           -64.8081         estimate D2E/DX2                !
 ! D28   D(2,3,5,15)           -65.547          estimate D2E/DX2                !
 ! D29   D(2,3,5,16)           174.7155         estimate D2E/DX2                !
 ! D30   D(2,3,5,17)            54.375          estimate D2E/DX2                !
 ! D31   D(4,3,5,15)            59.1366         estimate D2E/DX2                !
 ! D32   D(4,3,5,16)           -60.6009         estimate D2E/DX2                !
 ! D33   D(4,3,5,17)           179.0586         estimate D2E/DX2                !
 ! D34   D(6,3,5,15)           174.7466         estimate D2E/DX2                !
 ! D35   D(6,3,5,16)            55.0091         estimate D2E/DX2                !
 ! D36   D(6,3,5,17)           -65.3314         estimate D2E/DX2                !
 ! D37   D(2,3,6,18)           -60.4501         estimate D2E/DX2                !
 ! D38   D(4,3,6,18)           177.9745         estimate D2E/DX2                !
 ! D39   D(5,3,6,18)            59.6411         estimate D2E/DX2                !
 --------------------------------------------------------------------------------
 Number of steps in this run=     97 maximum allowed number of steps=    108.
 GradGradGradGradGradGradGradGradGradGradGradGradGradGradGradGradGradGrad

                    Distance matrix (angstroms):
                    1          2          3          4          5
     1  C    0.000000
     2  C    1.523911   0.000000
     3  C    2.571981   1.532183   0.000000
     4  C    3.048794   2.539420   1.523466   0.000000
     5  C    3.897052   2.507004   1.525174   2.501968   0.000000
     6  S    3.228949   2.774845   1.856800   2.708655   2.745413
     7  H    1.086660   2.167913   2.907078   2.813766   4.277865
     8  H    1.087431   2.152054   3.495277   4.076134   4.655552
     9  H    1.087683   2.159226   2.776030   3.296390   4.193401
    10  H    2.144756   1.093877   2.145949   3.468423   2.709328
    11  H    2.150139   1.093630   2.138095   2.802245   2.697179
    12  H    3.317555   2.751909   2.154701   1.088341   2.805018
    13  H    2.766412   2.836695   2.164068   1.086756   3.450520
    14  H    4.070354   3.477353   2.154543   1.088015   2.679437
    15  H    4.207701   2.789039   2.155403   2.733532   1.088895
    16  H    4.716444   3.456586   2.160615   2.752070   1.087767
    17  H    4.162383   2.715118   2.168697   3.457453   1.088865
    18  H    3.544052   2.866581   2.390627   3.686791   2.826739
                    6          7          8          9         10
     6  S    0.000000
     7  H    3.750901   0.000000
     8  H    4.131446   1.760841   0.000000
     9  H    2.741694   1.766505   1.764630   0.000000
    10  H    2.933995   3.053061   2.412216   2.542298   0.000000
    11  H    3.738587   2.454462   2.523684   3.054283   1.762920
    12  H    3.698482   2.898555   4.205634   3.857715   3.755813
    13  H    2.829806   2.328065   3.820579   2.834250   3.805751
    14  H    2.913759   3.858024   5.119007   4.168852   4.282381
    15  H    3.726044   4.434242   4.878008   4.735400   3.122335
    16  H    2.873318   5.015853   5.570721   4.859633   3.685225
    17  H    2.978078   4.767407   4.751145   4.407470   2.460552
    18  H    1.331385   4.345530   4.193559   3.123442   2.509113
                   11         12         13         14         15
    11  H    0.000000
    12  H    2.574618   0.000000
    13  H    3.252607   1.770227   0.000000
    14  H    3.755972   1.768687   1.760497   0.000000
    15  H    2.529254   2.595281   3.763278   2.978298   0.000000
    16  H    3.717884   3.193700   3.709616   2.478713   1.766745
    17  H    2.983683   3.785868   4.298445   3.700816   1.765992
    18  H    3.832464   4.520209   3.954222   3.980460   3.845986
                   16         17         18
    16  H    0.000000
    17  H    1.765984   0.000000
    18  H    3.126414   2.541981   0.000000
 Framework group  C1[X(C5H12S)]
 Deg. of freedom    48
                         Standard orientation:                         
 ---------------------------------------------------------------------
 Center     Atomic      Atomic             Coordinates (Angstroms)
 Number     Number       Type             X           Y           Z
 ---------------------------------------------------------------------
      1          6           0       -2.215261    0.311214   -0.031667
      2          6           0       -1.095287   -0.452882   -0.727453
      3          6           0        0.255396   -0.403117   -0.005815
      4          6           0        0.166745   -0.909189    1.428403
      5          6           0        1.297314   -1.199380   -0.784614
      6         16           0        0.836639    1.356913    0.104455
      7          1           0       -2.496157   -0.167921    0.902335
      8          1           0       -3.092997    0.345549   -0.672687
      9          1           0       -1.903887    1.331580    0.180355
     10          1           0       -0.964115   -0.049804   -1.735861
     11          1           0       -1.382316   -1.503185   -0.829949
     12          1           0       -0.247921   -1.915314    1.444244
     13          1           0       -0.461912   -0.258857    2.030812
     14          1           0        1.157317   -0.932687    1.877839
     15          1           0        1.032097   -2.255477   -0.787645
     16          1           0        2.278272   -1.090795   -0.327264
     17          1           0        1.358533   -0.857938   -1.816746
     18          1           0        0.883418    1.564373   -1.209835
 ---------------------------------------------------------------------
 Rotational constants (GHZ):           3.0121882           2.4112293           1.9463025
   112 basis functions,   210 primitive gaussians,   118 cartesian basis functions
    29 alpha electrons       29 beta electrons
       nuclear repulsion energy       323.7360344034 Hartrees.
 NAtoms=   18 NActive=   18 NUniq=   18 SFac= 1.00D+00 NAtFMM=   60 NAOKFM=F Big=F
 Nuclear repulsion after empirical dispersion term =      323.7246551378 Hartrees.
   1 Symmetry operations used in ECPInt.
 ECPInt:  NShTT=    1953 NPrTT=    8125 LenC2=    1948 LenP2D=    6613.
 LDataN:  DoStor=T MaxTD1= 4 Len=   56
 ExpMin= 1.22D-01 ExpMax= 9.18D+03 ExpMxC= 1.38D+03 IAcc=3 IRadAn=         5 AccDes= 0.00D+00
 Harris functional with IExCor= 4639 and IRadAn=       5 diagonalized for initial guess.
 HarFok:  IExCor= 4639 AccDes= 0.00D+00 IRadAn=         5 IDoV= 1 UseB2=F ITyADJ=14
 ICtDFT=  3500011 ScaDFX=  1.000000  1.000000  1.000000  1.000000
 FoFCou: FMM=F IPFlag=           0 FMFlag=      100000 FMFlg1=           0
         NFxFlg=           0 DoJE=T BraDBF=F KetDBF=T FulRan=T
         wScrn=  0.000000 ICntrl=       500 IOpCl=  0 I1Cent=   200000004 NGrid=           0
         NMat0=    1 NMatS0=      1 NMatT0=    0 NMatD0=    1 NMtDS0=    0 NMtDT0=    0
 Petite list used in FoFCou.
     Accept linear search using points  2 and  3.
     Accept linear search using points  1 and  2.
     Accept linear search using points  1 and  2.
     Minimum is close to point  2 DX= -9.19D-05 DF= -1.14D-13 DXR=  9.19D-05 DFR=  6.94D-09 which will be used.
 SCF Done:  E(RwB97XD) =  -595.603822295     a.u. after    7 cycles
            Convg  =    0.2154D-09                    33 Fock formations.
              S**2 =  0.0000                  -V/T =  2.0050

 **********************************************************************

            Population analysis using the SCF Density.

 **********************************************************************

 Orbital symmetries:
       Occupied  (A) (A) (A) (A) (A) (A) (A) (A) (A) (A) (A) (A)
                 (A) (A) (A) (A) (A) (A) (A) (A) (A) (A) (A) (A)
                 (A) (A) (A) (A) (A)
       Virtual   (A) (A) (A) (A) (A) (A) (A) (A) (A) (A) (A) (A)
                 (A) (A) (A) (A) (A) (A) (A) (A) (A) (A) (A) (A)
                 (A) (A) (A) (A) (A) (A) (A) (A) (A) (A) (A) (A)
                 (A) (A) (A) (A) (A) (A) (A) (A) (A) (A) (A) (A)
                 (A) (A) (A) (A) (A) (A) (A) (A) (A) (A) (A) (A)
                 (A) (A) (A) (A) (A) (A) (A) (A) (A) (A) (A) (A)
                 (A) (A) (A) (A) (A) (A) (A) (A) (A) (A) (A)
 The electronic state is 1-A.
 Alpha  occ. eigenvalues --  -88.98834 -10.33722 -10.29200 -10.28558 -10.28291
 Alpha  occ. eigenvalues --  -10.27240  -8.04213  -5.99669  -5.99291  -5.98599
 Alpha  occ. eigenvalues --   -0.93707  -0.83684  -0.79991  -0.78794  -0.71870
 Alpha  occ. eigenvalues --   -0.62725  -0.55830  -0.55030  -0.53494  -0.51116
 Alpha  occ. eigenvalues --   -0.48938  -0.47289  -0.45266  -0.44720  -0.43755
 Alpha  occ. eigenvalues --   -0.41470  -0.41206  -0.38073  -0.30900
 Alpha virt. eigenvalues --    0.10230   0.13630   0.15659   0.17521   0.18318
 Alpha virt. eigenvalues --    0.20070   0.20260   0.21825   0.22899   0.23224
 Alpha virt. eigenvalues --    0.24755   0.25361   0.26275   0.28765   0.29897
 Alpha virt. eigenvalues --    0.30657   0.32240   0.42981   0.47102   0.48908
 Alpha virt. eigenvalues --    0.49040   0.51823   0.54466   0.58081   0.59340
 Alpha virt. eigenvalues --    0.60786   0.65024   0.69753   0.71613   0.71684
 Alpha virt. eigenvalues --    0.73442   0.74113   0.74810   0.76506   0.77716
 Alpha virt. eigenvalues --    0.78254   0.79618   0.80457   0.80983   0.81546
 Alpha virt. eigenvalues --    0.82191   0.83096   0.83435   0.84830   0.85660
 Alpha virt. eigenvalues --    0.86825   0.89375   0.91818   0.93972   0.97018
 Alpha virt. eigenvalues --    1.00966   1.04239   1.10616   1.18026   1.19572
 Alpha virt. eigenvalues --    1.22304   1.26163   1.33884   1.49471   1.52233
 Alpha virt. eigenvalues --    1.69147   1.81863   1.90907   1.92615   1.96433
 Alpha virt. eigenvalues --    1.98357   2.00755   2.05270   2.06644   2.12470
 Alpha virt. eigenvalues --    2.16075   2.20327   2.24852   2.25324   2.28936
 Alpha virt. eigenvalues --    2.34114   2.36469   2.46376   2.54887   2.55464
 Alpha virt. eigenvalues --    2.69169   2.79550   2.81193
          Condensed to atoms (all electrons):
 Mulliken charges:
               1
     1  C   -0.299992
     2  C   -0.138682
     3  C   -0.389013
     4  C   -0.245048
     5  C   -0.198408
     6  S   -0.154227
     7  H    0.114492
     8  H    0.116814
     9  H    0.125711
    10  H    0.094429
    11  H    0.100635
    12  H    0.120705
    13  H    0.135833
    14  H    0.127980
    15  H    0.109731
    16  H    0.125759
    17  H    0.108643
    18  H    0.144637
 Sum of Mulliken charges =   0.00000
 Mulliken charges with hydrogens summed into heavy atoms:
               1
     1  C    0.057025
     2  C    0.056382
     3  C   -0.389013
     4  C    0.139470
     5  C    0.145725
     6  S   -0.009590
 Electronic spatial extent (au):  <R**2>=            801.9432
 Charge=              0.0000 electrons
 Dipole moment (field-independent basis, Debye):
    X=             -0.4671    Y=             -1.3271    Z=             -0.8284  Tot=              1.6326
 Evaluate density.
 Using the total density.
 Monte-Carlo method of calculating molar volume:
 based on  0.001 e/bohr**3 density envelope.
 Number of points per bohr**3 =  100 CutOff= 1.00D-04
 Using the SCF density.
 There are      1940 points.  Will hold      1940 in memory.
 LenV=  1048325971 MDV=  1048576000.
 Box volume = 7303.103 fraction occupied=0.143
 Integrated density= 6.2989082155899901D+01 error= 4.9890821558999008D+00
 Molar volume = 1046.527 bohr**3/mol ( 93.391 cm**3/mol)
 Recommended a0 for SCRF calculation =  4.17 angstrom (  7.88 bohr)
   1 Symmetry operations used in ECPInt.
 ECPInt:  NShTT=    1953 NPrTT=    8125 LenC2=    1948 LenP2D=    6613.
 LDataN:  DoStor=T MaxTD1= 5 Len=  102
 Calling FoFJK, ICntrl=      2127 FMM=F ISym2X=0 I1Cent= 0 IOpClX= 0 NMat=1 NMatS=1 NMatT=0.

 GradGradGradGradGradGradGradGradGradGradGradGradGradGradGradGradGradGrad
 FormGI is forming the generalized inverse of G from B-inverse, IUseBI=4.
 Internal  Forces:  Max     0.012386358 RMS     0.004357313
 Step number   1 out of a maximum of   97
 All quantities printed in internal units (Hartrees-Bohrs-Radians)
 Mixed Optimization -- RFO/linear search
 Second derivative matrix not updated -- first step.
 ITU=  0
     Eigenvalues ---    0.00230   0.00340   0.00433   0.00450   0.00456
     Eigenvalues ---    0.03417   0.04341   0.04842   0.05602   0.05613
     Eigenvalues ---    0.05657   0.05714   0.05740   0.05749   0.05952
     Eigenvalues ---    0.06506   0.08635   0.12417   0.16000   0.16000
     Eigenvalues ---    0.16000   0.16000   0.16000   0.16000   0.16000
     Eigenvalues ---    0.16000   0.16000   0.16000   0.16038   0.16491
     Eigenvalues ---    0.21987   0.22108   0.27124   0.29223   0.29874
     Eigenvalues ---    0.29993   0.30035   0.34368   0.34396   0.34941
     Eigenvalues ---    0.34944   0.35005   0.35043   0.35072   0.35082
     Eigenvalues ---    0.35111   0.35190   0.35201
 Linear search not attempted -- first point.
 Iteration  1 RMS(Cart)=  0.05685227 RMS(Int)=  0.00098292
 Iteration  2 RMS(Cart)=  0.00146706 RMS(Int)=  0.00015314
 Iteration  3 RMS(Cart)=  0.00000077 RMS(Int)=  0.00015314
 Variable       Old X    -DE/DX   Delta X   Delta X   Delta X     New X
                                 (Linear)    (Quad)   (Total)
    R1        2.87977   0.00451   0.00000   0.01475   0.01475   2.89452
    R2        2.05349   0.01113   0.00000   0.03107   0.03107   2.08456
    R3        2.05495   0.01075   0.00000   0.03010   0.03010   2.08504
    R4        2.05542   0.00966   0.00000   0.02706   0.02706   2.08248
    R5        2.89541   0.00787   0.00000   0.02639   0.02639   2.92180
    R6        2.06713   0.00752   0.00000   0.02151   0.02151   2.08864
    R7        2.06666   0.00893   0.00000   0.02552   0.02552   2.09218
    R8        2.87893   0.00566   0.00000   0.01846   0.01846   2.89739
    R9        2.88216   0.00516   0.00000   0.01693   0.01693   2.89909
   R10        3.50884   0.00226   0.00000   0.00996   0.00996   3.51880
   R11        2.05667   0.01088   0.00000   0.03054   0.03054   2.08720
   R12        2.05367   0.01085   0.00000   0.03030   0.03030   2.08397
   R13        2.05605   0.01044   0.00000   0.02929   0.02929   2.08534
   R14        2.05771   0.01169   0.00000   0.03288   0.03288   2.09059
   R15        2.05558   0.00996   0.00000   0.02792   0.02792   2.08350
   R16        2.05766   0.01011   0.00000   0.02844   0.02844   2.08610
   R17        2.51595   0.01239   0.00000   0.04466   0.04466   2.56062
    A1        1.94049   0.00155   0.00000   0.00857   0.00854   1.94904
    A2        1.91761   0.00140   0.00000   0.00803   0.00801   1.92561
    A3        1.92728   0.00082   0.00000   0.00613   0.00610   1.93338
    A4        1.88803  -0.00182   0.00000  -0.01322  -0.01324   1.87480
    A5        1.89662  -0.00117   0.00000  -0.00632  -0.00635   1.89027
    A6        1.89268  -0.00093   0.00000  -0.00402  -0.00406   1.88863
    A7        2.00044   0.00863   0.00000   0.04500   0.04470   2.04514
    A8        1.90104  -0.00106   0.00000   0.01085   0.01038   1.91142
    A9        1.90863  -0.00265   0.00000  -0.01472  -0.01444   1.89419
   A10        1.89284  -0.00286   0.00000  -0.00501  -0.00588   1.88697
   A11        1.88252  -0.00278   0.00000  -0.01758  -0.01747   1.86505
   A12        1.87440   0.00028   0.00000  -0.02291  -0.02305   1.85135
   A13        1.96201  -0.00059   0.00000  -0.01153  -0.01173   1.95028
   A14        1.92279  -0.00194   0.00000  -0.01406  -0.01441   1.90837
   A15        1.91209   0.00299   0.00000   0.03410   0.03416   1.94626
   A16        1.92521   0.00080   0.00000  -0.00942  -0.00966   1.91555
   A17        1.85165  -0.00168   0.00000  -0.00862  -0.00849   1.84317
   A18        1.88741   0.00053   0.00000   0.01140   0.01140   1.89880
   A19        1.92087  -0.00087   0.00000  -0.00871  -0.00866   1.91221
   A20        1.93555   0.00299   0.00000   0.01964   0.01953   1.95508
   A21        1.92099   0.00179   0.00000   0.01255   0.01242   1.93340
   A22        1.90153  -0.00152   0.00000  -0.01254  -0.01248   1.88905
   A23        1.89748  -0.00089   0.00000  -0.00864  -0.00860   1.88888
   A24        1.88663  -0.00159   0.00000  -0.00293  -0.00320   1.88343
   A25        1.91919   0.00056   0.00000   0.00273   0.00271   1.92190
   A26        1.92758   0.00139   0.00000   0.01018   0.01015   1.93772
   A27        1.93769   0.00064   0.00000   0.00275   0.00274   1.94043
   A28        1.89403  -0.00071   0.00000  -0.00204  -0.00208   1.89196
   A29        1.89145  -0.00107   0.00000  -0.00987  -0.00987   1.88158
   A30        1.89287  -0.00092   0.00000  -0.00430  -0.00433   1.88854
   A31        1.67104   0.00171   0.00000   0.01031   0.01031   1.68135
    D1       -1.19243   0.00034   0.00000   0.02298   0.02318  -1.16925
    D2        2.96712  -0.00107   0.00000  -0.00950  -0.00971   2.95741
    D3        0.92350   0.00069   0.00000   0.02014   0.02014   0.94364
    D4        3.00122   0.00071   0.00000   0.02878   0.02899   3.03021
    D5        0.87759  -0.00071   0.00000  -0.00371  -0.00391   0.87368
    D6       -1.16603   0.00106   0.00000   0.02594   0.02594  -1.14008
    D7        0.91427   0.00046   0.00000   0.02482   0.02502   0.93929
    D8       -1.20936  -0.00096   0.00000  -0.00767  -0.00788  -1.21724
    D9        3.03021   0.00080   0.00000   0.02198   0.02198   3.05218
   D10        0.98467  -0.00103   0.00000  -0.04888  -0.04901   0.93566
   D11        3.13953  -0.00184   0.00000  -0.07966  -0.07965   3.05988
   D12       -1.06942  -0.00052   0.00000  -0.05325  -0.05331  -1.12273
   D13        3.11278   0.00132   0.00000  -0.00806  -0.00819   3.10458
   D14       -1.01555   0.00051   0.00000  -0.03885  -0.03883  -1.05438
   D15        1.05869   0.00183   0.00000  -0.01244  -0.01249   1.04620
   D16       -1.14553  -0.00131   0.00000  -0.04691  -0.04687  -1.19240
   D17        1.00933  -0.00212   0.00000  -0.07770  -0.07751   0.93182
   D18        3.08357  -0.00081   0.00000  -0.05129  -0.05117   3.03239
   D19        0.97150  -0.00146   0.00000  -0.01463  -0.01464   0.95686
   D20       -1.13386  -0.00092   0.00000  -0.00595  -0.00586  -1.13972
   D21        3.06249  -0.00199   0.00000  -0.02291  -0.02298   3.03951
   D22       -1.18201   0.00088   0.00000   0.01879   0.01879  -1.16322
   D23        2.99582   0.00142   0.00000   0.02747   0.02757   3.02339
   D24        0.90899   0.00035   0.00000   0.01052   0.01045   0.91943
   D25        3.06108   0.00078   0.00000   0.01496   0.01494   3.07602
   D26        0.95571   0.00132   0.00000   0.02365   0.02372   0.97944
   D27       -1.13111   0.00025   0.00000   0.00669   0.00660  -1.12452
   D28       -1.14401   0.00192   0.00000   0.04393   0.04387  -1.10014
   D29        3.04936   0.00156   0.00000   0.03830   0.03823   3.08759
   D30        0.94902   0.00137   0.00000   0.03515   0.03507   0.98409
   D31        1.03213   0.00037   0.00000   0.01269   0.01276   1.04489
   D32       -1.05769   0.00001   0.00000   0.00706   0.00711  -1.05057
   D33        3.12516  -0.00018   0.00000   0.00391   0.00395   3.12912
   D34        3.04990  -0.00090   0.00000   0.00375   0.00378   3.05368
   D35        0.96009  -0.00126   0.00000  -0.00188  -0.00187   0.95822
   D36       -1.14025  -0.00145   0.00000  -0.00503  -0.00502  -1.14527
   D37       -1.05505  -0.00011   0.00000  -0.02579  -0.02600  -1.08106
   D38        3.10624  -0.00007   0.00000  -0.02584  -0.02587   3.08037
   D39        1.04093  -0.00039   0.00000  -0.01604  -0.01580   1.02513
         Item               Value     Threshold  Converged?
 Maximum Force            0.012386     0.000015     NO 
 RMS     Force            0.004357     0.000010     NO 
 Maximum Displacement     0.237395     0.000060     NO 
 RMS     Displacement     0.056974     0.000040     NO 
 GradGradGradGradGradGradGradGradGradGradGradGradGradGradGradGradGradGrad

                    Distance matrix (angstroms):
                    1          2          3          4          5
     1  C    0.000000
     2  C    1.531713   0.000000
     3  C    2.626815   1.546149   0.000000
     4  C    3.082109   2.549059   1.533234   0.000000
     5  C    3.932886   2.513037   1.534133   2.508842   0.000000
     6  S    3.374775   2.823006   1.862069   2.711858   2.767930
     7  H    1.103102   2.193375   2.972892   2.856335   4.310814
     8  H    1.103358   2.176658   3.558339   4.120680   4.689633
     9  H    1.102001   2.181272   2.861944   3.350796   4.288494
    10  H    2.167691   1.105259   2.162144   3.487462   2.728960
    11  H    2.156316   1.107133   2.146916   2.822448   2.651595
    12  H    3.304387   2.748288   2.169037   1.104501   2.800066
    13  H    2.823928   2.868481   2.198800   1.102790   3.484051
    14  H    4.136223   3.508877   2.183770   1.103512   2.704052
    15  H    4.197793   2.778830   2.178275   2.752258   1.106292
    16  H    4.789782   3.485414   2.186956   2.767134   1.102543
    17  H    4.220599   2.739228   2.189948   3.481443   1.103916
    18  H    3.723106   2.951132   2.420767   3.720266   2.858638
                    6          7          8          9         10
     6  S    0.000000
     7  H    3.901574   0.000000
     8  H    4.298019   1.778453   0.000000
     9  H    2.940850   1.787403   1.786549   0.000000
    10  H    2.983291   3.092605   2.447387   2.579932   0.000000
    11  H    3.778320   2.477510   2.530651   3.080765   1.767763
    12  H    3.715317   2.879331   4.197056   3.871127   3.766001
    13  H    2.864950   2.401355   3.895244   2.889849   3.845998
    14  H    2.926959   3.924789   5.193251   4.270830   4.324939
    15  H    3.762645   4.416133   4.854040   4.788361   3.129235
    16  H    2.911869   5.081595   5.643077   5.002644   3.728391
    17  H    3.013991   4.825254   4.806834   4.525371   2.490816
    18  H    1.355020   4.524713   4.398942   3.351767   2.592398
                   11         12         13         14         15
    11  H    0.000000
    12  H    2.575649   0.000000
    13  H    3.308286   1.788391   0.000000
    14  H    3.780485   1.788866   1.783948   0.000000
    15  H    2.450961   2.587538   3.797546   3.019078   0.000000
    16  H    3.691006   3.194153   3.755711   2.500984   1.791519
    17  H    2.950003   3.799402   4.351566   3.740136   1.785900
    18  H    3.896162   4.564678   4.023167   4.017309   3.894852
                   16         17         18
    16  H    0.000000
    17  H    1.787387   0.000000
    18  H    3.163650   2.575834   0.000000
 Framework group  C1[X(C5H12S)]
 Deg. of freedom    48
                         Standard orientation:                         
 ---------------------------------------------------------------------
 Center     Atomic      Atomic             Coordinates (Angstroms)
 Number     Number       Type             X           Y           Z
 ---------------------------------------------------------------------
      1          6           0       -2.263310    0.431184   -0.032488
      2          6           0       -1.144060   -0.364264   -0.711226
      3          6           0        0.229967   -0.395166   -0.002937
      4          6           0        0.108203   -0.860817    1.452792
      5          6           0        1.175504   -1.329492   -0.768807
      6         16           0        0.995837    1.300279    0.075859
      7          1           0       -2.572779   -0.032191    0.919535
      8          1           0       -3.152906    0.473367   -0.683824
      9          1           0       -1.938806    1.463771    0.174559
     10          1           0       -0.992690    0.014300   -1.738540
     11          1           0       -1.474243   -1.415658   -0.817501
     12          1           0       -0.403744   -1.838922    1.486592
     13          1           0       -0.467019   -0.148818    2.067871
     14          1           0        1.105211   -0.977092    1.911262
     15          1           0        0.784707   -2.364307   -0.751020
     16          1           0        2.181853   -1.329721   -0.318405
     17          1           0        1.270399   -1.022583   -1.824948
     18          1           0        1.088798    1.484711   -1.263328
 ---------------------------------------------------------------------
 Rotational constants (GHZ):           3.0123542           2.2975231           1.8808999
   112 basis functions,   210 primitive gaussians,   118 cartesian basis functions
    29 alpha electrons       29 beta electrons
       nuclear repulsion energy       319.9845403602 Hartrees.
 NAtoms=   18 NActive=   18 NUniq=   18 SFac= 1.00D+00 NAtFMM=   60 NAOKFM=F Big=F
 Nuclear repulsion after empirical dispersion term =      319.9731727737 Hartrees.
   1 Symmetry operations used in ECPInt.
 ECPInt:  NShTT=    1953 NPrTT=    8125 LenC2=    1947 LenP2D=    6575.
 LDataN:  DoStor=T MaxTD1= 4 Len=   56
 Initial guess from the checkpoint file:  "33.chk"
 B after Tr=    -0.000000    0.000000    0.000000
         Rot=    0.999156    0.011805   -0.002934    0.039225 Ang=   4.71 deg.
 ExpMin= 1.22D-01 ExpMax= 9.18D+03 ExpMxC= 1.38D+03 IAcc=3 IRadAn=         5 AccDes= 0.00D+00
 Harris functional with IExCor= 4639 and IRadAn=       5 diagonalized for initial guess.
 HarFok:  IExCor= 4639 AccDes= 0.00D+00 IRadAn=         5 IDoV= 1 UseB2=F ITyADJ=14
 ICtDFT=  3500011 ScaDFX=  1.000000  1.000000  1.000000  1.000000
 FoFCou: FMM=F IPFlag=           0 FMFlag=      100000 FMFlg1=           0
         NFxFlg=           0 DoJE=T BraDBF=F KetDBF=T FulRan=T
         wScrn=  0.000000 ICntrl=       500 IOpCl=  0 I1Cent=   200000004 NGrid=           0
         NMat0=    1 NMatS0=      1 NMatT0=    0 NMatD0=    1 NMtDS0=    0 NMtDT0=    0
 Petite list used in FoFCou.
     Minimum is close to point  4 DX=  1.06D-02 DF= -1.72D-07 DXR=  8.74D-03 DFR=  7.64D-05 which will be used.
     Accept linear search using points  2 and  3.
     Minimum is close to point  2 DX=  6.63D-02 DF= -5.13D-07 DXR=  5.68D-02 DFR=  3.24D-03 which will be used.
     Accept linear search using points  1 and  2.
     Minimum is close to point  2 DX= -7.52D-02 DF= -4.24D-07 DXR=  8.13D-02 DFR=  6.65D-03 which will be used.
     Accept linear search using points  1 and  2.
     Minimum is close to point  2 DX= -1.62D-04 DF= -1.71D-12 DXR=  1.62D-04 DFR=  2.71D-08 which will be used.
 SCF Done:  E(RwB97XD) =  -595.606467053     a.u. after    7 cycles
            Convg  =    0.1043D-08                    32 Fock formations.
              S**2 =  0.0000                  -V/T =  2.0056
   1 Symmetry operations used in ECPInt.
 ECPInt:  NShTT=    1953 NPrTT=    8125 LenC2=    1947 LenP2D=    6575.
 LDataN:  DoStor=T MaxTD1= 5 Len=  102
 Calling FoFJK, ICntrl=      2127 FMM=F ISym2X=0 I1Cent= 0 IOpClX= 0 NMat=1 NMatS=1 NMatT=0.

 GradGradGradGradGradGradGradGradGradGradGradGradGradGradGradGradGradGrad
 Using GEDIIS/GDIIS optimizer.
 FormGI is forming the generalized inverse of G from B-inverse, IUseBI=4.
 Internal  Forces:  Max     0.003879025 RMS     0.000929059
 Step number   2 out of a maximum of   97
 All quantities printed in internal units (Hartrees-Bohrs-Radians)
 Mixed Optimization -- En-DIIS/RFO-DIIS
 Trust test= 8.23D-01 RLast= 2.38D-01 DXMaxT set to 5.05D-01
 ITU=  1  0
 Use linear search instead of GDIIS.
     Eigenvalues ---    0.00231   0.00357   0.00434   0.00450   0.00455
     Eigenvalues ---    0.03204   0.04637   0.04822   0.05483   0.05524
     Eigenvalues ---    0.05551   0.05634   0.05662   0.05674   0.05736
     Eigenvalues ---    0.06672   0.09085   0.12761   0.15804   0.15924
     Eigenvalues ---    0.16000   0.16000   0.16000   0.16000   0.16000
     Eigenvalues ---    0.16000   0.16000   0.16000   0.16061   0.16443
     Eigenvalues ---    0.21970   0.23047   0.26782   0.29472   0.29703
     Eigenvalues ---    0.29938   0.30682   0.34270   0.34379   0.34661
     Eigenvalues ---    0.34955   0.34973   0.35023   0.35057   0.35090
     Eigenvalues ---    0.35163   0.35196   0.35670
 Quartic linear search produced a step of -0.09726.
 Iteration  1 RMS(Cart)=  0.02853674 RMS(Int)=  0.00032208
 Iteration  2 RMS(Cart)=  0.00041578 RMS(Int)=  0.00002087
 Iteration  3 RMS(Cart)=  0.00000007 RMS(Int)=  0.00002087
 Variable       Old X    -DE/DX   Delta X   Delta X   Delta X     New X
                                 (Linear)    (Quad)   (Total)
    R1        2.89452  -0.00367  -0.00143  -0.00861  -0.01004   2.88448
    R2        2.08456   0.00014  -0.00302   0.00545   0.00243   2.08699
    R3        2.08504  -0.00022  -0.00293   0.00437   0.00144   2.08648
    R4        2.08248   0.00091  -0.00263   0.00677   0.00414   2.08662
    R5        2.92180  -0.00388  -0.00257  -0.00765  -0.01022   2.91158
    R6        2.08864   0.00021  -0.00209   0.00407   0.00198   2.09062
    R7        2.09218   0.00030  -0.00248   0.00497   0.00249   2.09466
    R8        2.89739  -0.00059  -0.00180   0.00124  -0.00056   2.89683
    R9        2.89909  -0.00114  -0.00165  -0.00066  -0.00230   2.89679
   R10        3.51880  -0.00334  -0.00097  -0.01200  -0.01297   3.50583
   R11        2.08720   0.00029  -0.00297   0.00575   0.00278   2.08999
   R12        2.08397   0.00013  -0.00295   0.00530   0.00236   2.08633
   R13        2.08534  -0.00003  -0.00285   0.00472   0.00188   2.08721
   R14        2.09059  -0.00015  -0.00320   0.00501   0.00181   2.09240
   R15        2.08350  -0.00005  -0.00272   0.00444   0.00173   2.08523
   R16        2.08610   0.00024  -0.00277   0.00529   0.00253   2.08862
   R17        2.56062  -0.00028  -0.00434   0.00638   0.00204   2.56266
    A1        1.94904   0.00003  -0.00083   0.00147   0.00064   1.94967
    A2        1.92561  -0.00045  -0.00078  -0.00098  -0.00175   1.92386
    A3        1.93338   0.00030  -0.00059   0.00253   0.00194   1.93532
    A4        1.87480   0.00025   0.00129  -0.00043   0.00086   1.87565
    A5        1.89027  -0.00023   0.00062  -0.00277  -0.00215   1.88812
    A6        1.88863   0.00010   0.00039   0.00002   0.00042   1.88905
    A7        2.04514  -0.00382  -0.00435  -0.00922  -0.01356   2.03158
    A8        1.91142   0.00073  -0.00101  -0.00127  -0.00230   1.90912
    A9        1.89419   0.00183   0.00140   0.01194   0.01335   1.90754
   A10        1.88697   0.00130   0.00057  -0.00089  -0.00031   1.88666
   A11        1.86505   0.00091   0.00170   0.00378   0.00553   1.87058
   A12        1.85135  -0.00073   0.00224  -0.00392  -0.00167   1.84969
   A13        1.95028   0.00008   0.00114  -0.00461  -0.00350   1.94677
   A14        1.90837   0.00024   0.00140   0.00169   0.00316   1.91153
   A15        1.94626  -0.00121  -0.00332  -0.00854  -0.01191   1.93434
   A16        1.91555   0.00001   0.00094   0.00435   0.00531   1.92087
   A17        1.84317  -0.00011   0.00083  -0.00491  -0.00419   1.83897
   A18        1.89880   0.00100  -0.00111   0.01247   0.01138   1.91018
   A19        1.91221   0.00016   0.00084  -0.00127  -0.00043   1.91177
   A20        1.95508  -0.00016  -0.00190   0.00214   0.00025   1.95533
   A21        1.93340   0.00033  -0.00121   0.00479   0.00359   1.93699
   A22        1.88905  -0.00021   0.00121  -0.00492  -0.00371   1.88534
   A23        1.88888  -0.00022   0.00084  -0.00237  -0.00154   1.88734
   A24        1.88343   0.00008   0.00031   0.00129   0.00162   1.88505
   A25        1.92190   0.00015  -0.00026   0.00144   0.00117   1.92307
   A26        1.93772  -0.00006  -0.00099   0.00142   0.00044   1.93816
   A27        1.94043   0.00011  -0.00027   0.00076   0.00050   1.94093
   A28        1.89196   0.00003   0.00020   0.00039   0.00060   1.89255
   A29        1.88158  -0.00017   0.00096  -0.00280  -0.00184   1.87974
   A30        1.88854  -0.00006   0.00042  -0.00138  -0.00096   1.88758
   A31        1.68135  -0.00002  -0.00100   0.00154   0.00054   1.68188
    D1       -1.16925  -0.00006  -0.00225   0.01140   0.00916  -1.16009
    D2        2.95741   0.00048   0.00094   0.02075   0.02170   2.97911
    D3        0.94364  -0.00006  -0.00196   0.01952   0.01755   0.96119
    D4        3.03021  -0.00010  -0.00282   0.01164   0.00883   3.03904
    D5        0.87368   0.00044   0.00038   0.02099   0.02138   0.89506
    D6       -1.14008  -0.00010  -0.00252   0.01976   0.01722  -1.12286
    D7        0.93929  -0.00013  -0.00243   0.01062   0.00820   0.94749
    D8       -1.21724   0.00041   0.00077   0.01997   0.02074  -1.19650
    D9        3.05218  -0.00012  -0.00214   0.01874   0.01659   3.06877
   D10        0.93566   0.00019   0.00477   0.02794   0.03273   0.96839
   D11        3.05988   0.00043   0.00775   0.03155   0.03929   3.09917
   D12       -1.12273   0.00107   0.00519   0.04281   0.04797  -1.07476
   D13        3.10458  -0.00057   0.00080   0.01861   0.01944   3.12403
   D14       -1.05438  -0.00034   0.00378   0.02222   0.02601  -1.02837
   D15        1.04620   0.00030   0.00122   0.03348   0.03469   1.08088
   D16       -1.19240  -0.00035   0.00456   0.01552   0.02009  -1.17231
   D17        0.93182  -0.00012   0.00754   0.01913   0.02665   0.95847
   D18        3.03239   0.00052   0.00498   0.03038   0.03533   3.06773
   D19        0.95686   0.00059   0.00142   0.01770   0.01913   0.97599
   D20       -1.13972   0.00085   0.00057   0.02336   0.02392  -1.11580
   D21        3.03951   0.00063   0.00224   0.01694   0.01918   3.05869
   D22       -1.16322   0.00022  -0.00183   0.01564   0.01381  -1.14941
   D23        3.02339   0.00048  -0.00268   0.02130   0.01861   3.04199
   D24        0.91943   0.00026  -0.00102   0.01488   0.01386   0.93330
   D25        3.07602  -0.00090  -0.00145   0.00153   0.00008   3.07610
   D26        0.97944  -0.00064  -0.00231   0.00719   0.00488   0.98432
   D27       -1.12452  -0.00086  -0.00064   0.00077   0.00014  -1.12438
   D28       -1.10014  -0.00023  -0.00427   0.01259   0.00833  -1.09181
   D29        3.08759  -0.00032  -0.00372   0.01024   0.00653   3.09412
   D30        0.98409  -0.00027  -0.00341   0.01052   0.00712   0.99121
   D31        1.04489   0.00004  -0.00124   0.01078   0.00952   1.05441
   D32       -1.05057  -0.00005  -0.00069   0.00843   0.00772  -1.04285
   D33        3.12912  -0.00000  -0.00038   0.00871   0.00831   3.13743
   D34        3.05368   0.00047  -0.00037   0.01422   0.01385   3.06753
   D35        0.95822   0.00038   0.00018   0.01187   0.01205   0.97027
   D36       -1.14527   0.00043   0.00049   0.01215   0.01264  -1.13263
   D37       -1.08106  -0.00029   0.00253  -0.00766  -0.00507  -1.08612
   D38        3.08037   0.00037   0.00252   0.00593   0.00842   3.08879
   D39        1.02513  -0.00008   0.00154  -0.00270  -0.00120   1.02393
         Item               Value     Threshold  Converged?
 Maximum Force            0.003879     0.000015     NO 
 RMS     Force            0.000929     0.000010     NO 
 Maximum Displacement     0.091322     0.000060     NO 
 RMS     Displacement     0.028581     0.000040     NO 
 GradGradGradGradGradGradGradGradGradGradGradGradGradGradGradGradGradGrad

                    Distance matrix (angstroms):
                    1          2          3          4          5
     1  C    0.000000
     2  C    1.526400   0.000000
     3  C    2.606767   1.540742   0.000000
     4  C    3.071550   2.541307   1.532939   0.000000
     5  C    3.919957   2.510433   1.532915   2.512282   0.000000
     6  S    3.302840   2.801524   1.855208   2.701634   2.772206
     7  H    1.104386   2.190114   2.948039   2.832926   4.305673
     8  H    1.104120   2.171282   3.542229   4.105353   4.681364
     9  H    1.104190   2.179648   2.844900   3.359807   4.264340
    10  H    2.162120   1.106307   2.157957   3.482290   2.714532
    11  H    2.162555   1.108449   2.147377   2.809313   2.667607
    12  H    3.326051   2.749500   2.169558   1.105974   2.798166
    13  H    2.795917   2.850681   2.199669   1.104037   3.488320
    14  H    4.118487   3.504838   2.186859   1.104505   2.718856
    15  H    4.200023   2.775221   2.178783   2.762746   1.107251
    16  H    4.772552   3.482905   2.186886   2.768909   1.103456
    17  H    4.205968   2.742689   2.190245   3.485221   1.105252
    18  H    3.651308   2.932845   2.416323   3.714369   2.865185
                    6          7          8          9         10
     6  S    0.000000
     7  H    3.811115   0.000000
     8  H    4.239253   1.780662   0.000000
     9  H    2.854397   1.788829   1.789212   0.000000
    10  H    2.978062   3.091088   2.446876   2.568570   0.000000
    11  H    3.765675   2.492660   2.530216   3.088498   1.768542
    12  H    3.706840   2.907125   4.207265   3.910723   3.762186
    13  H    2.858011   2.337017   3.858637   2.902656   3.838599
    14  H    2.920128   3.892506   5.174864   4.263254   4.323427
    15  H    3.765693   4.436716   4.854896   4.782422   3.105212
    16  H    2.927674   5.066160   5.631824   4.975195   3.719421
    17  H    3.016083   4.821336   4.801173   4.488022   2.479563
    18  H    1.356100   4.446934   4.340131   3.249487   2.584994
                   11         12         13         14         15
    11  H    0.000000
    12  H    2.565699   0.000000
    13  H    3.275406   1.788186   0.000000
    14  H    3.778874   1.789866   1.786812   0.000000
    15  H    2.464143   2.591550   3.804223   3.045830   0.000000
    16  H    3.703293   3.185627   3.764589   2.513886   1.793423
    17  H    2.980165   3.802004   4.354873   3.752509   1.786556
    18  H    3.894376   4.560396   4.016826   4.017338   3.897744
                   16         17         18
    16  H    0.000000
    17  H    1.788587   0.000000
    18  H    3.182917   2.579977   0.000000
 Framework group  C1[X(C5H12S)]
 Deg. of freedom    48
                         Standard orientation:                         
 ---------------------------------------------------------------------
 Center     Atomic      Atomic             Coordinates (Angstroms)
 Number     Number       Type             X           Y           Z
 ---------------------------------------------------------------------
      1          6           0       -2.242816    0.367312   -0.039251
      2          6           0       -1.121385   -0.425689   -0.705163
      3          6           0        0.249815   -0.394741   -0.003208
      4          6           0        0.146019   -0.855077    1.455290
      5          6           0        1.236396   -1.285546   -0.766721
      6         16           0        0.912665    1.336304    0.073652
      7          1           0       -2.524694   -0.064955    0.937149
      8          1           0       -3.144409    0.362358   -0.676578
      9          1           0       -1.940171    1.416745    0.123021
     10          1           0       -0.984406   -0.067383   -1.742838
     11          1           0       -1.423359   -1.489077   -0.786883
     12          1           0       -0.308735   -1.862501    1.493682
     13          1           0       -0.478469   -0.175126    2.060748
     14          1           0        1.144348   -0.910390    1.924554
     15          1           0        0.890018   -2.337151   -0.754391
     16          1           0        2.241249   -1.243788   -0.312694
     17          1           0        1.322654   -0.972508   -1.823201
     18          1           0        0.995153    1.525351   -1.266670
 ---------------------------------------------------------------------
 Rotational constants (GHZ):           2.9933465           2.3492479           1.9071558
   112 basis functions,   210 primitive gaussians,   118 cartesian basis functions
    29 alpha electrons       29 beta electrons
       nuclear repulsion energy       321.0335196825 Hartrees.
 NAtoms=   18 NActive=   18 NUniq=   18 SFac= 1.00D+00 NAtFMM=   60 NAOKFM=F Big=F
 Nuclear repulsion after empirical dispersion term =      321.0221529315 Hartrees.
   1 Symmetry operations used in ECPInt.
 ECPInt:  NShTT=    1953 NPrTT=    8125 LenC2=    1948 LenP2D=    6582.
 LDataN:  DoStor=T MaxTD1= 4 Len=   56
 Initial guess from the checkpoint file:  "33.chk"
 B after Tr=     0.000000    0.000000    0.000000
         Rot=    0.999786    0.002418    0.000367   -0.020560 Ang=   2.37 deg.
 ExpMin= 1.22D-01 ExpMax= 9.18D+03 ExpMxC= 1.38D+03 IAcc=3 IRadAn=         5 AccDes= 0.00D+00
 Harris functional with IExCor= 4639 and IRadAn=       5 diagonalized for initial guess.
 HarFok:  IExCor= 4639 AccDes= 0.00D+00 IRadAn=         5 IDoV= 1 UseB2=F ITyADJ=14
 ICtDFT=  3500011 ScaDFX=  1.000000  1.000000  1.000000  1.000000
 FoFCou: FMM=F IPFlag=           0 FMFlag=      100000 FMFlg1=           0
         NFxFlg=           0 DoJE=T BraDBF=F KetDBF=T FulRan=T
         wScrn=  0.000000 ICntrl=       500 IOpCl=  0 I1Cent=   200000004 NGrid=           0
         NMat0=    1 NMatS0=      1 NMatT0=    0 NMatD0=    1 NMtDS0=    0 NMtDT0=    0
 Petite list used in FoFCou.
     Accept linear search using points  1 and  2.
     Minimum is close to point  2 DX= -1.65D-04 DF= -2.05D-12 DXR=  1.65D-04 DFR=  2.70D-08 which will be used.
 SCF Done:  E(RwB97XD) =  -595.606616613     a.u. after    5 cycles
            Convg  =    0.1513D-08                    30 Fock formations.
              S**2 =  0.0000                  -V/T =  2.0056
   1 Symmetry operations used in ECPInt.
 ECPInt:  NShTT=    1953 NPrTT=    8125 LenC2=    1948 LenP2D=    6582.
 LDataN:  DoStor=T MaxTD1= 5 Len=  102
 Calling FoFJK, ICntrl=      2127 FMM=F ISym2X=0 I1Cent= 0 IOpClX= 0 NMat=1 NMatS=1 NMatT=0.

 GradGradGradGradGradGradGradGradGradGradGradGradGradGradGradGradGradGrad
 Using GEDIIS/GDIIS optimizer.
 FormGI is forming the generalized inverse of G from B-inverse, IUseBI=4.
 Internal  Forces:  Max     0.001415978 RMS     0.000389916
 Step number   3 out of a maximum of   97
 All quantities printed in internal units (Hartrees-Bohrs-Radians)
 Mixed Optimization -- En-DIIS/RFO-DIIS
 Swapping is turned off.
 Trust test= 7.49D-01 RLast= 1.28D-01 DXMaxT set to 5.05D-01
 ITU=  1  1  0
     Eigenvalues ---    0.00231   0.00377   0.00425   0.00443   0.00457
     Eigenvalues ---    0.03250   0.04613   0.04797   0.05488   0.05517
     Eigenvalues ---    0.05546   0.05651   0.05662   0.05730   0.05805
     Eigenvalues ---    0.07312   0.08994   0.12697   0.15482   0.15925
     Eigenvalues ---    0.16000   0.16000   0.16000   0.16000   0.16000
     Eigenvalues ---    0.16000   0.16000   0.16030   0.16107   0.16466
     Eigenvalues ---    0.21048   0.24592   0.27202   0.29112   0.29831
     Eigenvalues ---    0.30072   0.32899   0.34310   0.34424   0.34925
     Eigenvalues ---    0.34968   0.34996   0.35056   0.35088   0.35145
     Eigenvalues ---    0.35191   0.35269   0.36874
 En-DIIS/RFO-DIIS/Sim-DIIS IScMMF=       -3 using points:     3    2
 RFO step:  Lambda=-7.05803494D-05.
 DidBck=T Rises=F RFO-DIIS coefs:    0.73883    0.26117
 Iteration  1 RMS(Cart)=  0.01295738 RMS(Int)=  0.00006321
 Iteration  2 RMS(Cart)=  0.00009392 RMS(Int)=  0.00000462
 Iteration  3 RMS(Cart)=  0.00000000 RMS(Int)=  0.00000462
 Variable       Old X    -DE/DX   Delta X   Delta X   Delta X     New X
                                 (Linear)    (Quad)   (Total)
    R1        2.88448  -0.00034   0.00262  -0.00472  -0.00210   2.88238
    R2        2.08699  -0.00071  -0.00063  -0.00122  -0.00186   2.08513
    R3        2.08648  -0.00057  -0.00038  -0.00126  -0.00164   2.08485
    R4        2.08662  -0.00092  -0.00108  -0.00100  -0.00208   2.08453
    R5        2.91158   0.00110   0.00267  -0.00129   0.00138   2.91296
    R6        2.09062  -0.00023  -0.00052  -0.00020  -0.00071   2.08990
    R7        2.09466  -0.00055  -0.00065  -0.00078  -0.00143   2.09323
    R8        2.89683  -0.00006   0.00015  -0.00069  -0.00055   2.89629
    R9        2.89679  -0.00107   0.00060  -0.00384  -0.00324   2.89355
   R10        3.50583  -0.00057   0.00339  -0.00678  -0.00339   3.50245
   R11        2.08999  -0.00056  -0.00073  -0.00077  -0.00150   2.08849
   R12        2.08633  -0.00086  -0.00062  -0.00157  -0.00218   2.08415
   R13        2.08721  -0.00067  -0.00049  -0.00131  -0.00180   2.08541
   R14        2.09240  -0.00080  -0.00047  -0.00168  -0.00216   2.09024
   R15        2.08523  -0.00057  -0.00045  -0.00112  -0.00157   2.08366
   R16        2.08862  -0.00062  -0.00066  -0.00097  -0.00163   2.08700
   R17        2.56266  -0.00073  -0.00053  -0.00211  -0.00265   2.56001
    A1        1.94967   0.00032  -0.00017   0.00153   0.00136   1.95104
    A2        1.92386   0.00016   0.00046  -0.00006   0.00040   1.92426
    A3        1.93532  -0.00001  -0.00051   0.00065   0.00014   1.93546
    A4        1.87565  -0.00028  -0.00022  -0.00098  -0.00120   1.87445
    A5        1.88812  -0.00016   0.00056  -0.00132  -0.00076   1.88736
    A6        1.88905  -0.00006  -0.00011   0.00007  -0.00004   1.88901
    A7        2.03158   0.00142   0.00354   0.00001   0.00355   2.03513
    A8        1.90912  -0.00034   0.00060  -0.00107  -0.00046   1.90866
    A9        1.90754  -0.00057  -0.00349   0.00213  -0.00137   1.90617
   A10        1.88666  -0.00041   0.00008  -0.00008   0.00002   1.88667
   A11        1.87058  -0.00031  -0.00144   0.00136  -0.00010   1.87048
   A12        1.84969   0.00012   0.00044  -0.00260  -0.00216   1.84752
   A13        1.94677   0.00026   0.00092   0.00118   0.00211   1.94888
   A14        1.91153  -0.00013  -0.00083  -0.00020  -0.00103   1.91051
   A15        1.93434   0.00035   0.00311  -0.00034   0.00278   1.93713
   A16        1.92087  -0.00029  -0.00139  -0.00168  -0.00306   1.91780
   A17        1.83897   0.00002   0.00110  -0.00020   0.00091   1.83988
   A18        1.91018  -0.00021  -0.00297   0.00123  -0.00175   1.90843
   A19        1.91177   0.00022   0.00011   0.00124   0.00135   1.91313
   A20        1.95533  -0.00004  -0.00007  -0.00045  -0.00052   1.95481
   A21        1.93699  -0.00006  -0.00094   0.00060  -0.00033   1.93666
   A22        1.88534  -0.00004   0.00097  -0.00090   0.00007   1.88541
   A23        1.88734  -0.00009   0.00040  -0.00085  -0.00045   1.88690
   A24        1.88505  -0.00000  -0.00042   0.00028  -0.00014   1.88491
   A25        1.92307  -0.00013  -0.00031  -0.00023  -0.00053   1.92254
   A26        1.93816   0.00011  -0.00011   0.00053   0.00042   1.93858
   A27        1.94093  -0.00007  -0.00013  -0.00027  -0.00040   1.94053
   A28        1.89255   0.00002  -0.00016   0.00043   0.00028   1.89283
   A29        1.87974   0.00009   0.00048  -0.00015   0.00033   1.88007
   A30        1.88758  -0.00002   0.00025  -0.00033  -0.00008   1.88751
   A31        1.68188   0.00036  -0.00014   0.00169   0.00155   1.68344
    D1       -1.16009   0.00004  -0.00239   0.01094   0.00854  -1.15155
    D2        2.97911  -0.00017  -0.00567   0.01193   0.00626   2.98537
    D3        0.96119   0.00019  -0.00458   0.01445   0.00987   0.97106
    D4        3.03904   0.00008  -0.00231   0.01122   0.00891   3.04795
    D5        0.89506  -0.00014  -0.00558   0.01220   0.00663   0.90169
    D6       -1.12286   0.00023  -0.00450   0.01472   0.01023  -1.11263
    D7        0.94749   0.00006  -0.00214   0.01075   0.00860   0.95609
    D8       -1.19650  -0.00016  -0.00542   0.01173   0.00632  -1.19018
    D9        3.06877   0.00021  -0.00433   0.01425   0.00992   3.07869
   D10        0.96839   0.00005  -0.00855  -0.01017  -0.01872   0.94967
   D11        3.09917  -0.00024  -0.01026  -0.01164  -0.02190   3.07727
   D12       -1.07476  -0.00036  -0.01253  -0.01045  -0.02297  -1.09773
   D13        3.12403   0.00028  -0.00508  -0.01166  -0.01675   3.10728
   D14       -1.02837  -0.00001  -0.00679  -0.01313  -0.01993  -1.04830
   D15        1.08088  -0.00013  -0.00906  -0.01194  -0.02100   1.05988
   D16       -1.17231   0.00006  -0.00525  -0.01404  -0.01929  -1.19160
   D17        0.95847  -0.00022  -0.00696  -0.01550  -0.02247   0.93600
   D18        3.06773  -0.00035  -0.00923  -0.01432  -0.02354   3.04419
   D19        0.97599  -0.00023  -0.00500   0.00412  -0.00088   0.97511
   D20       -1.11580  -0.00031  -0.00625   0.00471  -0.00154  -1.11734
   D21        3.05869  -0.00024  -0.00501   0.00424  -0.00077   3.05792
   D22       -1.14941  -0.00004  -0.00361   0.00473   0.00112  -1.14828
   D23        3.04199  -0.00011  -0.00486   0.00532   0.00046   3.04245
   D24        0.93330  -0.00004  -0.00362   0.00484   0.00123   0.93452
   D25        3.07610   0.00034  -0.00002   0.00424   0.00422   3.08032
   D26        0.98432   0.00027  -0.00127   0.00483   0.00355   0.98787
   D27       -1.12438   0.00034  -0.00004   0.00436   0.00432  -1.12006
   D28       -1.09181   0.00011  -0.00218   0.01169   0.00951  -1.08229
   D29        3.09412   0.00010  -0.00171   0.01095   0.00924   3.10336
   D30        0.99121   0.00009  -0.00186   0.01119   0.00932   1.00054
   D31        1.05441   0.00015  -0.00249   0.01194   0.00946   1.06386
   D32       -1.04285   0.00014  -0.00202   0.01120   0.00919  -1.03367
   D33        3.13743   0.00014  -0.00217   0.01143   0.00927  -3.13649
   D34        3.06753  -0.00011  -0.00362   0.01145   0.00783   3.07537
   D35        0.97027  -0.00012  -0.00315   0.01071   0.00756   0.97784
   D36       -1.13263  -0.00012  -0.00330   0.01095   0.00765  -1.12499
   D37       -1.08612   0.00020   0.00132  -0.00081   0.00050  -1.08563
   D38        3.08879  -0.00032  -0.00220  -0.00193  -0.00412   3.08467
   D39        1.02393   0.00012   0.00031  -0.00047  -0.00015   1.02378
         Item               Value     Threshold  Converged?
 Maximum Force            0.001416     0.000015     NO 
 RMS     Force            0.000390     0.000010     NO 
 Maximum Displacement     0.042305     0.000060     NO 
 RMS     Displacement     0.012958     0.000040     NO 
 GradGradGradGradGradGradGradGradGradGradGradGradGradGradGradGradGradGrad

                    Distance matrix (angstroms):
                    1          2          3          4          5
     1  C    0.000000
     2  C    1.525289   0.000000
     3  C    2.609311   1.541471   0.000000
     4  C    3.068167   2.543494   1.532650   0.000000
     5  C    3.918253   2.508719   1.531199   2.507947   0.000000
     6  S    3.323677   2.803209   1.853414   2.700836   2.767654
     7  H    1.103403   2.189356   2.948046   2.827868   4.296668
     8  H    1.103254   2.169942   3.543802   4.101587   4.678627
     9  H    1.103087   2.177936   2.851357   3.355511   4.271845
    10  H    2.160529   1.105930   2.158329   3.483288   2.722455
    11  H    2.160006   1.107691   2.147387   2.821075   2.655256
    12  H    3.314856   2.752561   2.169709   1.105182   2.793818
    13  H    2.794987   2.852895   2.198164   1.102883   3.483303
    14  H    4.116615   3.505564   2.185642   1.103551   2.713955
    15  H    4.186076   2.767518   2.176028   2.761227   1.106109
    16  H    4.772314   3.481284   2.185047   2.759598   1.102626
    17  H    4.211255   2.744013   2.187793   3.480810   1.104391
    18  H    3.676488   2.935785   2.415535   3.713433   2.861977
                    6          7          8          9         10
     6  S    0.000000
     7  H    3.832615   0.000000
     8  H    4.258926   1.778387   0.000000
     9  H    2.885974   1.786647   1.787593   0.000000
    10  H    2.969419   3.089822   2.447492   2.564037   0.000000
    11  H    3.764660   2.494233   2.523589   3.085608   1.766193
    12  H    3.705657   2.889288   4.195965   3.898367   3.768460
    13  H    2.858876   2.340928   3.857996   2.894442   3.835326
    14  H    2.916746   3.888787   5.171919   4.263072   4.323135
    15  H    3.760615   4.415090   4.838017   4.777359   3.109984
    16  H    2.926710   5.056978   5.630550   4.986708   3.726915
    17  H    3.006470   4.819172   4.807131   4.502682   2.492091
    18  H    1.354699   4.469280   4.366254   3.288750   2.579133
                   11         12         13         14         15
    11  H    0.000000
    12  H    2.581993   0.000000
    13  H    3.291288   1.786656   0.000000
    14  H    3.786522   1.788163   1.785016   0.000000
    15  H    2.445579   2.590006   3.800696   3.046987   0.000000
    16  H    3.691111   3.173527   3.755717   2.503082   1.792003
    17  H    2.966982   3.799923   4.349952   3.744881   1.785154
    18  H    3.887664   4.559673   4.017469   4.013020   3.891595
                   16         17         18
    16  H    0.000000
    17  H    1.787167   0.000000
    18  H    3.184780   2.571550   0.000000
 Framework group  C1[X(C5H12S)]
 Deg. of freedom    48
                         Standard orientation:                         
 ---------------------------------------------------------------------
 Center     Atomic      Atomic             Coordinates (Angstroms)
 Number     Number       Type             X           Y           Z
 ---------------------------------------------------------------------
      1          6           0       -2.246427    0.388420   -0.035644
      2          6           0       -1.127754   -0.399562   -0.709559
      3          6           0        0.242710   -0.393688   -0.003919
      4          6           0        0.130683   -0.854857    1.453404
      5          6           0        1.212179   -1.302529   -0.764648
      6         16           0        0.941831    1.321031    0.074249
      7          1           0       -2.531030   -0.052878    0.934797
      8          1           0       -3.147231    0.393530   -0.672586
      9          1           0       -1.941207    1.433974    0.138877
     10          1           0       -0.985061   -0.025039   -1.740312
     11          1           0       -1.438098   -1.457909   -0.812368
     12          1           0       -0.341089   -1.853568    1.491263
     13          1           0       -0.480872   -0.165339    2.059140
     14          1           0        1.127105   -0.928156    1.922014
     15          1           0        0.840588   -2.344346   -0.760605
     16          1           0        2.213867   -1.287506   -0.304021
     17          1           0        1.313109   -0.985732   -1.817802
     18          1           0        1.032267    1.509766   -1.264186
 ---------------------------------------------------------------------
 Rotational constants (GHZ):           3.0074270           2.3367966           1.9038949
   112 basis functions,   210 primitive gaussians,   118 cartesian basis functions
    29 alpha electrons       29 beta electrons
       nuclear repulsion energy       321.0531492245 Hartrees.
 NAtoms=   18 NActive=   18 NUniq=   18 SFac= 1.00D+00 NAtFMM=   60 NAOKFM=F Big=F
 Nuclear repulsion after empirical dispersion term =      321.0417803197 Hartrees.
   1 Symmetry operations used in ECPInt.
 ECPInt:  NShTT=    1953 NPrTT=    8125 LenC2=    1948 LenP2D=    6583.
 LDataN:  DoStor=T MaxTD1= 4 Len=   56
 Initial guess from the checkpoint file:  "33.chk"
 B after Tr=     0.000000    0.000000   -0.000000
         Rot=    0.999970   -0.000936    0.000159    0.007706 Ang=  -0.89 deg.
 ExpMin= 1.22D-01 ExpMax= 9.18D+03 ExpMxC= 1.38D+03 IAcc=3 IRadAn=         5 AccDes= 0.00D+00
 Harris functional with IExCor= 4639 and IRadAn=       5 diagonalized for initial guess.
 HarFok:  IExCor= 4639 AccDes= 0.00D+00 IRadAn=         5 IDoV= 1 UseB2=F ITyADJ=14
 ICtDFT=  3500011 ScaDFX=  1.000000  1.000000  1.000000  1.000000
 FoFCou: FMM=F IPFlag=           0 FMFlag=      100000 FMFlg1=           0
         NFxFlg=           0 DoJE=T BraDBF=F KetDBF=T FulRan=T
         wScrn=  0.000000 ICntrl=       500 IOpCl=  0 I1Cent=   200000004 NGrid=           0
         NMat0=    1 NMatS0=      1 NMatT0=    0 NMatD0=    1 NMtDS0=    0 NMtDT0=    0
 Petite list used in FoFCou.
     Accept linear search using points  1 and  2.
     Minimum is close to point  2 DX= -7.26D-05 DF= -2.27D-13 DXR=  7.26D-05 DFR=  5.75D-09 which will be used.
 SCF Done:  E(RwB97XD) =  -595.606649586     a.u. after    4 cycles
            Convg  =    0.3966D-09                    27 Fock formations.
              S**2 =  0.0000                  -V/T =  2.0055
   1 Symmetry operations used in ECPInt.
 ECPInt:  NShTT=    1953 NPrTT=    8125 LenC2=    1948 LenP2D=    6583.
 LDataN:  DoStor=T MaxTD1= 5 Len=  102
 Calling FoFJK, ICntrl=      2127 FMM=F ISym2X=0 I1Cent= 0 IOpClX= 0 NMat=1 NMatS=1 NMatT=0.

 GradGradGradGradGradGradGradGradGradGradGradGradGradGradGradGradGradGrad
 Using GEDIIS/GDIIS optimizer.
 FormGI is forming the generalized inverse of G from B-inverse, IUseBI=4.
 Internal  Forces:  Max     0.000325810 RMS     0.000072874
 Step number   4 out of a maximum of   97
 All quantities printed in internal units (Hartrees-Bohrs-Radians)
 Mixed Optimization -- En-DIIS/RFO-DIIS
 Swapping is turned off.
 Trust test= 9.29D-01 RLast= 7.39D-02 DXMaxT set to 5.05D-01
 ITU=  1  1  1  0
     Eigenvalues ---    0.00231   0.00392   0.00438   0.00457   0.00502
     Eigenvalues ---    0.03202   0.04630   0.04712   0.05495   0.05508
     Eigenvalues ---    0.05545   0.05654   0.05659   0.05726   0.05800
     Eigenvalues ---    0.07349   0.09030   0.12728   0.14684   0.15928
     Eigenvalues ---    0.15989   0.16000   0.16000   0.16000   0.16000
     Eigenvalues ---    0.16000   0.16000   0.16070   0.16156   0.16460
     Eigenvalues ---    0.20577   0.24482   0.27006   0.29114   0.29914
     Eigenvalues ---    0.30598   0.32959   0.34285   0.34377   0.34833
     Eigenvalues ---    0.34929   0.34968   0.35029   0.35082   0.35152
     Eigenvalues ---    0.35185   0.35207   0.35458
 En-DIIS/RFO-DIIS/Sim-DIIS IScMMF=       -3 using points:     4    3    2
 RFO step:  Lambda=-5.90763034D-06.
 DidBck=F Rises=F RFO-DIIS coefs:    0.82365    0.29083   -0.11448
 Iteration  1 RMS(Cart)=  0.00656037 RMS(Int)=  0.00001779
 Iteration  2 RMS(Cart)=  0.00002311 RMS(Int)=  0.00000102
 Iteration  3 RMS(Cart)=  0.00000000 RMS(Int)=  0.00000102
 Variable       Old X    -DE/DX   Delta X   Delta X   Delta X     New X
                                 (Linear)    (Quad)   (Total)
    R1        2.88238   0.00007  -0.00078   0.00065  -0.00013   2.88225
    R2        2.08513  -0.00006   0.00061  -0.00077  -0.00017   2.08496
    R3        2.08485  -0.00002   0.00045  -0.00051  -0.00005   2.08479
    R4        2.08453  -0.00004   0.00084  -0.00096  -0.00012   2.08441
    R5        2.91296   0.00033  -0.00141   0.00269   0.00127   2.91423
    R6        2.08990   0.00001   0.00035  -0.00023   0.00012   2.09003
    R7        2.09323  -0.00006   0.00054  -0.00069  -0.00015   2.09308
    R8        2.89629   0.00015   0.00003   0.00050   0.00053   2.89682
    R9        2.89355   0.00021   0.00031   0.00003   0.00034   2.89388
   R10        3.50245  -0.00012  -0.00089  -0.00028  -0.00117   3.50128
   R11        2.08849  -0.00005   0.00058  -0.00068  -0.00010   2.08839
   R12        2.08415  -0.00007   0.00065  -0.00091  -0.00025   2.08390
   R13        2.08541  -0.00007   0.00053  -0.00074  -0.00021   2.08520
   R14        2.09024  -0.00008   0.00059  -0.00084  -0.00026   2.08999
   R15        2.08366  -0.00003   0.00047  -0.00054  -0.00007   2.08359
   R16        2.08700  -0.00003   0.00058  -0.00065  -0.00007   2.08693
   R17        2.56001  -0.00006   0.00070  -0.00093  -0.00022   2.55978
    A1        1.95104   0.00013  -0.00017   0.00127   0.00110   1.95214
    A2        1.92426   0.00009  -0.00027   0.00085   0.00058   1.92484
    A3        1.93546  -0.00000   0.00020  -0.00013   0.00006   1.93552
    A4        1.87445  -0.00011   0.00031  -0.00119  -0.00088   1.87357
    A5        1.88736  -0.00006  -0.00011  -0.00042  -0.00053   1.88683
    A6        1.88901  -0.00005   0.00005  -0.00047  -0.00042   1.88859
    A7        2.03513   0.00023  -0.00218   0.00388   0.00169   2.03683
    A8        1.90866  -0.00006  -0.00018  -0.00064  -0.00083   1.90783
    A9        1.90617  -0.00008   0.00177  -0.00154   0.00024   1.90641
   A10        1.88667  -0.00012  -0.00004  -0.00123  -0.00128   1.88540
   A11        1.87048  -0.00000   0.00065   0.00025   0.00090   1.87139
   A12        1.84752   0.00002   0.00019  -0.00115  -0.00096   1.84657
   A13        1.94888   0.00010  -0.00077   0.00154   0.00077   1.94965
   A14        1.91051  -0.00003   0.00054  -0.00087  -0.00033   1.91018
   A15        1.93713  -0.00005  -0.00185   0.00196   0.00010   1.93723
   A16        1.91780  -0.00007   0.00115  -0.00200  -0.00085   1.91695
   A17        1.83988  -0.00003  -0.00064   0.00043  -0.00022   1.83966
   A18        1.90843   0.00007   0.00161  -0.00108   0.00053   1.90897
   A19        1.91313   0.00002  -0.00029   0.00060   0.00032   1.91344
   A20        1.95481   0.00009   0.00012   0.00059   0.00071   1.95552
   A21        1.93666  -0.00008   0.00047  -0.00103  -0.00056   1.93610
   A22        1.88541  -0.00003  -0.00044   0.00042  -0.00002   1.88539
   A23        1.88690   0.00002  -0.00010  -0.00010  -0.00019   1.88671
   A24        1.88491  -0.00002   0.00021  -0.00048  -0.00027   1.88464
   A25        1.92254   0.00005   0.00023   0.00009   0.00032   1.92286
   A26        1.93858   0.00005  -0.00002   0.00039   0.00037   1.93895
   A27        1.94053   0.00007   0.00013   0.00029   0.00042   1.94096
   A28        1.89283  -0.00005   0.00002  -0.00025  -0.00023   1.89260
   A29        1.88007  -0.00005  -0.00027  -0.00002  -0.00028   1.87979
   A30        1.88751  -0.00008  -0.00010  -0.00055  -0.00064   1.88686
   A31        1.68344   0.00006  -0.00021   0.00088   0.00067   1.68411
    D1       -1.15155  -0.00004  -0.00046   0.00194   0.00148  -1.15007
    D2        2.98537   0.00000   0.00138   0.00125   0.00263   2.98800
    D3        0.97106   0.00006   0.00027   0.00383   0.00410   0.97515
    D4        3.04795  -0.00005  -0.00056   0.00205   0.00149   3.04944
    D5        0.90169  -0.00000   0.00128   0.00136   0.00263   0.90432
    D6       -1.11263   0.00005   0.00017   0.00394   0.00410  -1.10853
    D7        0.95609  -0.00004  -0.00058   0.00218   0.00160   0.95769
    D8       -1.19018   0.00001   0.00126   0.00148   0.00274  -1.18744
    D9        3.07869   0.00006   0.00015   0.00406   0.00421   3.08291
   D10        0.94967   0.00008   0.00705   0.00326   0.01031   0.95998
   D11        3.07727   0.00003   0.00836   0.00115   0.00951   3.08678
   D12       -1.09773   0.00008   0.00954   0.00048   0.01002  -1.08771
   D13        3.10728   0.00006   0.00518   0.00420   0.00938   3.11667
   D14       -1.04830   0.00002   0.00649   0.00210   0.00859  -1.03971
   D15        1.05988   0.00006   0.00767   0.00143   0.00910   1.06898
   D16       -1.19160   0.00002   0.00570   0.00241   0.00811  -1.18349
   D17        0.93600  -0.00002   0.00701   0.00030   0.00731   0.94332
   D18        3.04419   0.00002   0.00820  -0.00037   0.00783   3.05201
   D19        0.97511   0.00001   0.00234  -0.00347  -0.00112   0.97399
   D20       -1.11734  -0.00003   0.00301  -0.00478  -0.00177  -1.11911
   D21        3.05792  -0.00001   0.00233  -0.00384  -0.00151   3.05641
   D22       -1.14828   0.00003   0.00138  -0.00201  -0.00063  -1.14891
   D23        3.04245  -0.00001   0.00205  -0.00332  -0.00127   3.04118
   D24        0.93452   0.00001   0.00137  -0.00239  -0.00102   0.93351
   D25        3.08032  -0.00000  -0.00073   0.00003  -0.00071   3.07961
   D26        0.98787  -0.00004  -0.00007  -0.00128  -0.00135   0.98652
   D27       -1.12006  -0.00002  -0.00075  -0.00035  -0.00109  -1.12116
   D28       -1.08229  -0.00004  -0.00072   0.00063  -0.00010  -1.08239
   D29        3.10336  -0.00004  -0.00088   0.00063  -0.00025   3.10311
   D30        1.00054  -0.00003  -0.00083   0.00086   0.00003   1.00056
   D31        1.06386   0.00002  -0.00058   0.00066   0.00008   1.06395
   D32       -1.03367   0.00002  -0.00074   0.00066  -0.00007  -1.03374
   D33       -3.13649   0.00003  -0.00068   0.00089   0.00021  -3.13629
   D34        3.07537  -0.00001   0.00020  -0.00056  -0.00035   3.07501
   D35        0.97784  -0.00001   0.00005  -0.00056  -0.00051   0.97733
   D36       -1.12499   0.00000   0.00010  -0.00033  -0.00023  -1.12522
   D37       -1.08563   0.00004  -0.00067   0.00511   0.00444  -1.08118
   D38        3.08467  -0.00004   0.00169   0.00191   0.00360   3.08826
   D39        1.02378   0.00002  -0.00011   0.00456   0.00445   1.02823
         Item               Value     Threshold  Converged?
 Maximum Force            0.000326     0.000015     NO 
 RMS     Force            0.000073     0.000010     NO 
 Maximum Displacement     0.027153     0.000060     NO 
 RMS     Displacement     0.006561     0.000040     NO 
 GradGradGradGradGradGradGradGradGradGradGradGradGradGradGradGradGradGrad

                    Distance matrix (angstroms):
                    1          2          3          4          5
     1  C    0.000000
     2  C    1.525219   0.000000
     3  C    2.611190   1.542146   0.000000
     4  C    3.077002   2.544946   1.532931   0.000000
     5  C    3.919673   2.509122   1.531377   2.507573   0.000000
     6  S    3.319467   2.803309   1.852796   2.700310   2.767779
     7  H    1.103314   2.190013   2.950391   2.837689   4.302254
     8  H    1.103225   2.170281   3.545616   4.108539   4.679309
     9  H    1.103022   2.177871   2.854230   3.369438   4.271717
    10  H    2.159905   1.105996   2.158007   3.484026   2.717547
    11  H    2.160059   1.107611   2.148603   2.819344   2.659790
    12  H    3.326069   2.753845   2.170151   1.105130   2.793822
    13  H    2.806467   2.855747   2.198817   1.102750   3.483238
    14  H    4.124424   3.506443   2.185398   1.103439   2.712343
    15  H    4.190144   2.767996   2.176316   2.760887   1.105973
    16  H    4.774367   3.481928   2.185443   2.759327   1.102590
    17  H    4.209835   2.744576   2.188226   3.480793   1.104354
    18  H    3.664901   2.933873   2.415633   3.713658   2.865446
                    6          7          8          9         10
     6  S    0.000000
     7  H    3.824457   0.000000
     8  H    4.257407   1.777716   0.000000
     9  H    2.881594   1.786177   1.787245   0.000000
    10  H    2.973471   3.089986   2.448124   2.562265   0.000000
    11  H    3.765316   2.496711   2.522584   3.085673   1.765544
    12  H    3.705163   2.905761   4.204294   3.913531   3.767336
    13  H    2.858285   2.349175   3.868043   2.914651   3.839968
    14  H    2.916414   3.898004   5.178237   4.275996   4.322699
    15  H    3.760543   4.425629   4.840329   4.780016   3.103310
    16  H    2.927184   5.062798   5.631835   4.987922   3.723068
    17  H    3.007300   4.821979   4.805602   4.497511   2.486783
    18  H    1.354579   4.456684   4.357292   3.271130   2.580540
                   11         12         13         14         15
    11  H    0.000000
    12  H    2.579506   0.000000
    13  H    3.289121   1.786496   0.000000
    14  H    3.785172   1.787906   1.784641   0.000000
    15  H    2.450336   2.590119   3.800750   3.045254   0.000000
    16  H    3.695009   3.173647   3.755243   2.501495   1.791713
    17  H    2.973481   3.800141   4.350585   3.743475   1.784829
    18  H    3.889666   4.560095   4.016708   4.014099   3.894451
                   16         17         18
    16  H    0.000000
    17  H    1.786691   0.000000
    18  H    3.189516   2.576117   0.000000
 Framework group  C1[X(C5H12S)]
 Deg. of freedom    48
                         Standard orientation:                         
 ---------------------------------------------------------------------
 Center     Atomic      Atomic             Coordinates (Angstroms)
 Number     Number       Type             X           Y           Z
 ---------------------------------------------------------------------
      1          6           0       -2.248485    0.379143   -0.033407
      2          6           0       -1.128203   -0.409109   -0.704167
      3          6           0        0.245763   -0.392984   -0.004044
      4          6           0        0.144927   -0.857398    1.453362
      5          6           0        1.218932   -1.293582   -0.770189
      6         16           0        0.931077    1.326655    0.073668
      7          1           0       -2.528172   -0.053908    0.942064
[...]
 0.0105589,0.0194791,-0.3024663,-0.0027018,0.0029216,0.0117298,-0.28521
 02,-0.0127353,0.0298092,0.0522005,0.0083418,0.0509972,0.0110217,0.0403
 931,-0.0106654,0.0202224,0.0661664,0.0829418,0.0367539,-0.0978883,-0.1
 161927,0.0472244,-0.0683821,0.0297755,0.0699591,-0.0084992,-0.1047334,
 0.0074977,0.003287,0.0804004,-0.0756311,0.0008153,-0.0264172,-0.058788
 4,-0.0270481,0.0209194,-0.026438,0.0507321,-0.0051353,0.0063242,0.0609
 838,0.0184348,0.0354419,0.0661843,0.0283839,0.0319186,-0.1394541,-0.04
 04196,-0.0668886,-0.0150406,-0.0583316,-0.152976,-0.0450819,-0.0056999
 ,-0.0191705,0.0549229,0.0285295,-0.0993257,0.0226259,-0.0910726,-0.077
 7365,0.0398029,-0.0015861,0.0003958,0.0358976,0.0417695,0.0512216,0.06
 37004,0.0663765,-0.0045341,-0.0729445,0.0554501,-0.0336972,0.0030547,-
 0.0780314,0.0409268,-0.0923286,0.0182326,0.0753186,0.0178285,-0.037330
 6,0.0225195,0.0269927,0.0257713,-0.0900697,0.0092138,-0.0518805,-0.142
 9271,-0.0257465,0.0193517,-0.0143184,0.0674851,-0.0809158,0.0487124,-0
 .0384165,0.0068249,0.0648437,-0.0189284,-0.0777513,0.0037875,0.0328316
 ,0.0642872,0.0174326,0.0076748,0.0016959,0.0327752,0.0782864,0.0376234
 ,0.0168232,-0.1167514,0.1168497,-0.0527841,-0.0371514,-0.05518,0.03631
 9,-0.0472181,0.0196948,0.0427235,-0.104553\Polar=69.8118743,2.116693,7
 0.9360231,-1.170793,-1.4142941,65.8963316\Quadrupole=-0.9582966,-0.544
 5547,1.5028513,-0.3072891,-0.8127726,-1.5032978\PG=C01 [X(C5H12S1)]\NI
 mag=0\\0.54856463,0.03877614,0.55424853,0.02654772,-0.02142584,0.57104
 728,-0.13891797,0.05076314,0.03951190,0.48376717,0.05193323,-0.1311613
 8,-0.03811643,0.02200941,0.57597372,0.04202144,-0.03719053,-0.11375598
 ,-0.02887508,-0.02249027,0.56441336,-0.02156441,0.00403788,-0.00742050
 ,-0.15785618,0.00702458,-0.04247428,0.44819661,0.01687882,-0.00076104,
 0.01149585,0.01490137,-0.07236201,0.00391806,-0.04121590,0.40026563,0.
 01174605,0.00195363,0.01026594,-0.03801664,0.00120998,-0.10371932,-0.0
 0086551,0.00693890,0.50156429,-0.00044039,-0.00028368,-0.00087003,0.00
 265884,0.01000523,-0.03037655,-0.08071452,-0.00067894,0.01024253,0.594
 13121,-0.00076416,-0.00018505,0.00030936,0.00123805,-0.00121040,0.0054
 1846,-0.00015963,-0.08626005,0.03607329,-0.00692583,0.57778858,-0.0003
 0146,-0.00029793,0.00087616,-0.00448768,0.00590297,-0.01888946,0.01023
 827,0.02949866,-0.18627356,0.00922371,0.03714847,0.49729283,-0.0037647
 8,-0.00038111,-0.00352706,-0.02579362,0.02249607,0.01505847,-0.1168992
 1,0.04671282,0.03375516,-0.00313257,0.00288319,0.00551448,0.56926634,-
 0.00042053,0.00031619,-0.00003943,0.00787980,-0.00233164,-0.00127333,0
 .05206596,-0.12368591,-0.03935432,-0.00430574,0.00681971,0.00184086,0.
 03628227,0.53080676,-0.00284317,0.00000523,-0.00205523,-0.00727571,0.0
 0895295,0.00797119,0.03421079,-0.03901641,-0.11028714,0.02049138,-0.02
 229211,-0.02513784,0.03175794,-0.03709862,0.56822699,-0.00182849,-0.00
 087293,-0.00012469,-0.01574309,-0.02713434,-0.00120324,-0.04690374,-0.
 02805202,-0.01455269,-0.00166029,-0.00669039,0.00295976,0.00410839,0.0
 0500641,0.00039674,0.07472188,0.00143098,0.00046181,-0.00022550,-0.010
 37383,-0.01322295,-0.00052335,-0.02751862,-0.08677275,-0.02708860,-0.0
 0707586,-0.01330194,0.00581572,-0.01433971,-0.03409528,-0.00069411,0.0
 6555887,0.16464164,0.00058000,-0.00010352,0.00075218,-0.00626811,-0.01
 110320,-0.00101403,-0.00110803,-0.00151812,-0.05142866,0.01359114,0.02
 665320,-0.00230105,-0.00592043,-0.01356250,-0.00062867,-0.00114273,-0.
 00496715,0.32164029,-0.06856237,-0.02727773,0.06419875,-0.00548133,-0.
 00953926,0.01974867,0.00067668,-0.00081296,0.00097830,-0.00080376,0.00
 054343,-0.00007532,-0.00000280,0.00017933,-0.00020824,-0.00041470,0.00
 012517,-0.00016777,0.07066842,-0.02815409,-0.08683298,0.08955997,0.004
 98248,0.00852491,-0.02053631,-0.00038507,0.00040018,0.00041066,0.00057
 578,0.00047692,0.00056609,-0.00012064,0.00002626,-0.00012441,-0.000554
 44,0.00015036,-0.00012695,0.02603893,0.08779118,0.06499312,0.08783222,
 -0.26114721,0.00299568,0.00501121,-0.01216826,-0.00062528,-0.00009571,
 -0.00035002,-0.00082564,0.00004408,-0.00045558,0.00013810,0.00008707,0
 .00009501,0.00012104,-0.00007849,-0.00001801,-0.07158292,-0.09431566,0
 .28021273,-0.22911509,0.01469798,-0.12617430,-0.01708114,-0.00042903,-
 0.01281781,-0.00083267,0.00278932,0.00324588,0.00029135,-0.00013707,0.
 00050346,-0.00111430,-0.00013682,-0.00085283,0.00003650,0.00033085,0.0
 0013180,0.00934284,-0.00044657,0.00603003,0.24548395,0.01358747,-0.049
 60094,0.01032774,0.01720320,-0.00175792,0.01273738,0.00110501,-0.00294
 625,-0.00258864,0.00012945,0.00019567,-0.00036214,0.00095539,0.0001926
 0,0.00056212,-0.00061041,0.00031882,0.00006765,0.01058265,-0.00131745,
 0.00607612,-0.01888878,0.04847181,-0.12822817,0.01132607,-0.13674046,0
 .01575385,-0.00103025,0.00922990,0.00183326,-0.00227921,-0.00172495,-0
 .00021972,-0.00026620,-0.00056204,0.00062219,-0.00003786,0.00052741,-0
 .00017480,-0.00002928,0.00000360,-0.02321181,0.00023604,-0.01354352,0.
 13490944,-0.00978474,0.14284768,-0.08651783,-0.09550527,-0.01351043,0.
 01038588,0.02211003,0.00225456,0.00126149,0.00083363,-0.00039713,-0.00
 007340,-0.00016041,-0.00012604,-0.00010179,-0.00032911,0.00019277,-0.0
 0228468,-0.00019068,0.00007652,-0.00313662,-0.00518615,-0.00196730,-0.
 00767468,-0.02314560,-0.00088638,0.09062204,-0.09345199,-0.27719575,-0
 .03121374,-0.00625757,-0.01798070,-0.00197958,-0.00161527,-0.00079158,
 -0.00027274,0.00028184,-0.00009151,0.00001459,0.00004407,-0.00003646,0
 .00008195,-0.00101256,0.00086029,0.00031048,-0.00272753,-0.00764186,-0
 .00249995,0.00232896,0.00553972,0.00074384,0.09935758,0.29734702,-0.01
 310589,-0.03111100,-0.05559263,-0.00643475,-0.01396794,-0.00183743,-0.
 00045384,0.00027186,0.00041524,0.00009596,0.00019311,0.00017593,-0.000
 07529,0.00005283,-0.00004955,-0.00054877,0.00058344,-0.00012126,0.0109
 3658,0.02661817,0.00641370,-0.00513980,-0.01753815,-0.00199405,0.01253
 426,0.03701075,0.05350821,-0.00525950,-0.00727508,0.02142082,-0.053169
 19,-0.01406773,0.03727690,0.00169652,0.00981640,-0.02829653,-0.0057305
 3,0.00041725,-0.00176497,0.00108444,-0.00036564,-0.00127677,0.00104569
 ,0.00105344,-0.00052711,-0.00247795,0.00368232,0.00206464,0.00025752,-
 0.00064624,0.00010231,0.00068165,0.00012181,-0.00064449,0.06412265,0.0
 0434388,0.00690619,-0.02031324,-0.01248323,-0.07707133,0.07928347,-0.0
 0215112,-0.00184201,0.00020665,0.00064228,0.00035962,0.00011468,-0.000
 05203,-0.00034548,0.00078611,0.00013797,0.00032900,-0.00114368,0.00298
 490,-0.00195798,-0.00228266,-0.00062317,0.00092116,0.00044969,-0.00067
 896,0.00069583,-0.00003039,0.01025534,0.07888952,0.00263037,0.00470316
 ,-0.01276137,0.03587965,0.07799103,-0.27421598,0.00252180,0.00588313,-
 0.01601963,-0.00386261,-0.00029226,0.00018506,0.00105358,-0.00077060,0
 .00058797,0.00056373,0.00004360,0.00068992,0.00184977,-0.00224781,-0.0
 0006709,0.00010302,-0.00000534,0.00098806,-0.00026192,-0.00006647,0.00
 006450,-0.03898406,-0.08380041,0.29609515,0.00836318,0.02316006,0.0021
 9941,-0.08378998,-0.08888810,-0.00672633,-0.01281840,-0.02534794,-0.00
 156148,0.00072212,-0.00025362,0.00106750,0.00017582,-0.00114995,-0.000
 00858,-0.00513482,-0.00188167,-0.00258684,0.00086849,-0.00075036,-0.00
 023052,0.00067806,-0.00031378,-0.00057276,-0.00322174,0.00298078,0.002
 36543,-0.00183719,-0.00303683,-0.00060682,0.09549548,-0.00685810,-0.01
 732965,-0.00127900,-0.08929599,-0.26562775,-0.01430675,0.00049414,-0.0
 0078979,0.00035783,0.00029765,0.00051606,0.00020379,0.00142971,0.00027
 083,0.00019738,-0.00010909,0.00131297,-0.00020360,-0.00009922,0.001051
 14,-0.00029756,0.00022058,0.00019140,0.00041050,0.00328802,-0.00111348
 ,-0.00182227,-0.00312613,-0.00792557,-0.00122031,0.09320927,0.28816551
 ,-0.00542100,-0.01518460,-0.00151800,-0.00599914,-0.01353769,-0.051226
 58,-0.00689948,-0.01353928,-0.00200115,-0.00004467,-0.00122170,0.00046
 749,0.00082132,-0.00027851,0.00030715,-0.00219356,-0.00096811,-0.00045
 189,-0.00082002,-0.00010882,0.00035972,-0.00006503,0.00064167,0.000333
 61,0.00211560,-0.00234145,-0.00061692,0.01121800,0.02702736,0.00364923
 ,0.00702051,0.01842571,0.05068609,0.00025415,0.00002643,-0.00002006,0.
 00032559,0.00103742,-0.00061122,-0.00239409,-0.00188282,-0.00029911,-0
 .11829997,-0.11690399,0.00505628,-0.00017384,-0.00044203,-0.00028589,-
 0.00003496,0.00073027,0.00067534,-0.00003632,-0.00003963,0.00016138,-0
 .00002202,-0.00007498,0.00005956,0.00000629,-0.00005047,0.00004333,-0.
 00000896,0.00006903,0.00009183,0.00025930,-0.00003571,-0.00008438,0.12
 108745,0.00012523,-0.00016086,0.00020942,-0.00049499,0.00028440,-0.000
 62604,-0.00447765,-0.00930244,0.00006927,-0.11681303,-0.24473764,0.008
 00280,0.00063298,0.00056983,-0.00075481,0.00070056,0.00082643,0.002060
 10,0.00010968,-0.00025226,-0.00011704,0.00007844,0.00006639,-0.0000640
 3,-0.00009793,0.00021503,-0.00012331,0.00010109,0.00030968,-0.00009493
 ,0.00047930,0.00023688,0.00045468,0.12784641,0.26028516,-0.00023136,-0
 .00003464,0.00004102,0.00067297,0.00076753,0.00132789,0.01593206,0.026
 76637,-0.00177370,0.00431448,0.00664810,-0.04791073,-0.00001281,0.0010
 2285,0.00123214,0.00020421,0.00052745,-0.00518275,-0.00001946,0.000045
 88,-0.00005033,-0.00001248,0.00001073,0.00002635,0.00014335,-0.0000975
 2,-0.00008059,0.00022765,-0.00037105,0.00028000,-0.00051422,-0.0004572
 0,-0.00041921,-0.00591797,-0.01097501,0.05169172,-0.00057766,0.0002396
 4,-0.00079144,-0.00006982,-0.00065487,-0.00025827,-0.00204334,0.000754
 91,0.00103843,-0.11252840,0.09022504,0.07182658,0.00018567,-0.00073664
 ,0.00102204,-0.00038363,0.00025915,0.00084915,-0.00124041,0.00029445,-
 0.00096083,0.00000903,-0.00006691,0.00000855,0.00007076,-0.00001155,0.
 00008943,0.00003003,0.00009733,0.00016922,-0.00006381,0.00003056,-0.00
 008551,0.00943774,-0.01152849,-0.01060368,0.11707371,0.00109254,0.0003
 2215,-0.00005409,0.00021312,-0.00014892,-0.00069994,-0.00704006,0.0077
 3230,0.00613701,0.09021309,-0.17694481,-0.10290124,-0.00010712,-0.0002
 5350,0.00181562,-0.00027428,0.00082667,0.00050572,0.00006763,-0.000043
 18,0.00063734,-0.00012599,-0.00013789,0.00032305,0.00002924,-0.0001677
 2,0.00007159,-0.00016732,0.00003039,-0.00005035,0.00004868,0.00002478,
 -0.00002287,0.01422614,-0.01495763,-0.01353990,-0.09804196,0.18474022,
 -0.00014509,0.00018582,-0.00034891,0.00085268,-0.00052767,0.00055759,0
 .01513384,-0.02277076,-0.01431775,0.07063127,-0.10011785,-0.12914454,-
 0.00038853,0.00334377,-0.00581296,0.00058645,-0.00027164,0.00042201,-0
 .00104257,0.00003619,0.00018195,-0.00004929,0.00000381,0.00044531,-0.0
 0008122,0.00012270,-0.00010657,0.00002056,0.00015411,0.00016748,0.0000
 5068,0.00013168,-0.00001691,-0.00177171,0.00220587,0.00099541,-0.07855
 206,0.10824144,0.13927046,-0.00011480,-0.00019852,0.00008522,0.0006322
 1,0.00010660,0.00088602,0.00340588,-0.00117681,0.00257913,-0.27112031,
 0.03676113,-0.09891945,0.00086831,-0.00029184,0.00094093,0.00011575,0.
 00032587,0.00006154,0.00024936,0.00003268,-0.00021508,0.00001528,0.000
 04133,-0.00014790,0.00001687,0.00002602,-0.00000969,0.00030740,0.00015
 158,-0.00002459,0.00011113,0.00003341,0.00019665,-0.01111404,0.0039342
 7,-0.00484135,-0.01068386,0.00010407,-0.00574470,0.28668540,0.00010691
 ,0.00025637,0.00003319,-0.00070662,-0.00037653,0.00121886,0.00929594,-
 0.00266756,0.00344356,0.03605909,-0.05497617,0.01530861,-0.00036680,0.
 00001527,-0.00098810,0.00092251,-0.00029160,0.00076548,-0.00014804,-0.
 00019840,0.00012790,-0.00001514,-0.00004373,0.00013445,-0.00001995,0.0
 0003398,-0.00010131,0.00048953,0.00038131,0.00031752,0.00021718,0.0001
 9068,0.00023842,-0.02452191,0.00654496,-0.01151889,0.01891890,-0.00202
 087,0.01029325,-0.03973635,0.05292182,0.00085603,-0.00023005,-0.000173
 53,0.00272490,0.00217829,-0.00584878,-0.02936394,0.00337550,-0.0125939
 9,-0.09579374,0.01521482,-0.09034285,-0.00159182,0.00037495,0.00103501
 ,-0.00041405,0.00005759,0.00054631,-0.00022180,-0.00010701,0.00036439,
 -0.00011654,-0.00000087,0.00024646,-0.00006073,0.00009766,0.00000680,-
 0.00181203,0.00024736,-0.00100035,0.00018869,-0.00009740,0.00016424,0.
 00242664,-0.00061223,0.00011063,0.01645965,-0.00103588,0.00812252,0.10
 530143,-0.01879644,0.09930237,0.00015587,-0.00014919,0.00004488,0.0004
 1746,0.00085090,0.00003794,0.00637406,0.01547747,-0.00084319,0.0006863
 3,0.00025887,-0.00055122,-0.09914228,-0.10306205,0.00242650,0.00056648
 ,0.00255181,0.00118747,0.00001218,-0.00000230,-0.00002354,0.00005927,-
 0.00002351,-0.00001652,0.00008124,0.00004251,-0.00002735,-0.00005561,-
 0.00001423,-0.00005728,-0.00077758,0.00040761,0.00014183,0.00003457,-0
 .00015967,0.00006114,-0.00002750,0.00004361,-0.00025289,-0.00009810,-0
 .00016277,0.00002828,0.10212480,0.00034579,0.00040416,-0.00002604,-0.0
 0134530,0.00018273,0.00003342,-0.00971161,-0.01853989,0.00090728,-0.00
 054495,0.00087788,0.00121333,-0.10173018,-0.26166577,0.00570592,0.0018
 4145,-0.00388697,-0.00227376,-0.00000587,-0.00001296,-0.00001043,0.000
 04038,0.00000554,-0.00001173,-0.00026709,0.00021992,0.00009402,0.00000
 081,0.00001424,-0.00012715,0.00109459,0.00049215,0.00018737,0.00032692
 ,0.00045693,-0.00065136,0.00017859,0.00025799,0.00012525,0.00005222,-0
 .00009787,-0.00004896,0.11010707,0.28203532,-0.00008493,-0.00000323,-0
 .00012966,-0.00054561,0.00040419,0.00001221,-0.00715627,-0.01388742,-0
 .00055722,-0.00082586,-0.00074803,0.00066406,0.00260221,0.00621922,-0.
 04960570,0.00093446,-0.00359890,-0.00081115,0.00004507,-0.00000818,-0.
 00002608,-0.00001365,0.00004569,0.00000159,-0.00005905,0.00000987,0.00
 000667,0.00007110,0.00012987,-0.00002611,-0.00004520,0.00018907,0.0003
 6074,0.00052351,0.00007543,-0.00037084,-0.00003197,0.00026670,0.000168
 30,-0.00012608,-0.00004067,-0.00004227,-0.00458083,-0.00360057,0.04761
 279,-0.00039974,-0.00011292,-0.00099316,-0.00143074,0.00291413,0.00317
 561,-0.01611211,-0.00080062,-0.00814752,0.00033221,-0.00042310,-0.0010
 7716,-0.27408619,0.01631983,-0.10149122,0.00147055,-0.00087891,-0.0002
 0600,-0.00004139,-0.00001523,0.00008162,-0.00025648,0.00026098,0.00020
 138,-0.00007812,0.00013705,0.00005560,0.00020714,-0.00002844,-0.000068
 08,0.00048526,0.00005031,0.00014892,-0.00004485,0.00008276,-0.00003909
 ,0.00042939,-0.00006246,0.00006308,0.00017332,-0.00001200,0.00093961,-
 0.00882456,0.00228777,-0.00405746,0.29266311,0.00115851,0.00058677,0.0
 0076233,0.00155060,-0.00306422,-0.00296918,0.02011250,-0.00289637,0.00
 946663,-0.00058063,0.00011274,0.00097794,0.01331949,-0.04827784,0.0071
 2142,0.00056739,0.00077826,0.00042311,0.00004671,-0.00002548,-0.000081
 79,0.00034025,-0.00024678,-0.00018993,-0.00007398,0.00003302,0.0000418
 3,-0.00024531,0.00000134,-0.00021711,0.00018445,0.00037910,-0.00001351
 ,-0.00013803,-0.00003243,-0.00005094,-0.00012798,-0.00010803,0.0001281
 5,-0.00015771,0.00040767,-0.00030485,-0.02514889,0.00439105,-0.0124382
 8,-0.01937527,0.04929934,0.00081009,-0.00023077,0.00093691,0.00128869,
 -0.00174667,-0.00175569,0.01602403,-0.00096921,0.00604099,0.00118252,-
 0.00016395,0.00122111,-0.10402671,0.00822165,-0.09536611,0.00048891,0.
 00059473,0.00017745,-0.00010297,0.00010875,0.00003342,0.00025523,-0.00
 017591,-0.00012113,-0.00005817,0.00003744,0.00001335,0.00013276,-0.000
 29213,0.00031794,0.00002105,-0.00003214,-0.00022358,-0.00001653,0.0000
 3633,-0.00006807,-0.00017628,0.00005192,0.00016705,-0.00004706,-0.0001
 7116,-0.00054693,0.00296838,-0.00022351,0.00036200,0.10860651,-0.00569
 023,0.09826606,0.00008092,0.00004361,-0.00024898,0.00066341,-0.0006307
 7,0.00123532,-0.00243727,-0.00642581,0.01710068,-0.00197705,0.00295919
 ,0.00126224,-0.05121489,-0.00697582,0.02306970,-0.00033740,-0.00067354
 ,-0.00054872,0.00014001,-0.00007390,-0.00007321,-0.00000199,-0.0000191
 8,-0.00001143,0.00004888,-0.00007651,-0.00000564,-0.00051855,0.0007027
 1,-0.00031899,-0.00004230,-0.00013183,0.00000809,0.00007627,0.00013735
 ,-0.00031731,0.00025606,-0.00016730,0.00119908,0.00022440,-0.00000555,
 0.00020770,-0.00146243,-0.00251014,0.01335789,0.00563217,0.00849078,-0
 .02711418,0.05048147,-0.00021694,-0.00003911,-0.00004330,-0.00082241,0
 .00045976,-0.00057481,0.00156951,0.00490241,-0.02145398,0.00243643,-0.
 00278811,-0.00192997,-0.00814240,-0.06993498,0.07429554,0.00027322,0.0
 0148583,-0.00100225,-0.00005961,0.00000394,-0.00000184,-0.00004406,0.0
 0002488,0.00003909,0.00002920,-0.00000882,-0.00003353,0.00016067,0.000
 01272,0.00030044,-0.00000208,-0.00006171,0.00020011,0.00028021,0.00014
 628,-0.00010173,0.00039061,0.00074205,-0.00122000,-0.00004026,-0.00020
 272,0.00006733,-0.00090434,-0.00569005,0.02691917,-0.00047077,-0.00120
 766,0.00067600,0.00534038,0.07262864,0.00001256,-0.00021518,0.00033980
 ,-0.00139204,0.00058159,0.00049479,0.00059302,0.00595057,-0.01514006,0
 .00220005,-0.00381112,-0.00088308,0.02453110,0.07202877,-0.29169829,-0
 .00019794,0.00045432,0.00062192,-0.00019173,0.00007651,0.00011865,0.00
 004360,-0.00004649,0.00000685,0.00000475,0.00001820,-0.00002931,0.0004
 8092,-0.00016756,0.00072081,0.00002020,-0.00010139,-0.00007078,-0.0000
 4912,0.00008588,0.00024756,0.00026869,0.00040333,-0.00104533,0.0000181
 8,0.00000376,0.00046228,-0.00051280,-0.00117538,0.00218542,0.00274079,
 0.00292019,-0.00928707,-0.02864079,-0.07631973,0.31263311,-0.00035570,
 0.00031155,-0.00032802,0.00048251,0.00085650,0.00164785,-0.00103530,-0
 .00177092,0.01229362,-0.00234086,-0.00286795,-0.00034897,-0.00026273,0
 .00048258,-0.00026639,-0.00733945,-0.00943357,0.00132277,0.00023967,0.
 00012175,-0.00008131,-0.00007543,-0.00007607,-0.00002105,-0.00008624,-
 0.00011717,0.00032493,-0.00037557,-0.00031703,-0.00067862,0.00052699,0
 .00019481,-0.00005814,0.00064770,-0.00065632,0.00095387,0.00012604,-0.
 00005163,-0.00050955,0.00032579,-0.00031493,0.00024175,-0.00012420,-0.
 00016046,-0.00000732,-0.00011895,0.00007712,-0.00023628,0.00038826,0.0
 0022263,0.00007053,0.00937748,0.00008631,-0.00023541,0.00003875,0.0010
 3878,0.00089025,0.00056041,-0.00143058,-0.00368287,0.02358356,-0.00343
 218,-0.00665149,-0.00111723,0.00048399,0.00160940,0.00144434,-0.009697
 92,-0.02042059,0.00521898,-0.00000820,-0.00014235,-0.00003481,0.000019
 85,0.00012296,0.00003051,0.00000745,0.00008307,-0.00020969,-0.00020522
 ,0.00029138,-0.00034615,0.00025002,0.00001645,0.00004123,-0.00045326,-
 0.00049871,0.00200932,-0.00022079,0.00010600,-0.00006413,0.00003232,0.
 00012338,-0.00037982,-0.00011292,0.00055561,0.00006607,0.00012688,-0.0
 0013048,-0.00003113,0.00001633,-0.00047334,-0.00068625,0.01349911,0.02
 843672,0.00016369,0.00002115,-0.00003630,-0.00038555,-0.00047963,0.000
 42458,-0.00011994,-0.00002279,-0.00209931,0.00084577,0.00121034,0.0010
 1809,-0.00031189,-0.00077678,0.00065863,0.01429717,0.03036828,-0.26289
 621,-0.00011253,-0.00008312,0.00004653,0.00001926,0.00002938,0.0000293
 3,0.00008656,0.00002396,-0.00017608,0.00029029,0.00000180,0.00034440,-
 0.00008072,-0.00009833,0.00021677,0.00001811,0.00016763,-0.00009649,-0
 .00027168,-0.00014946,0.00029490,0.00000681,-0.00026844,0.00018769,-0.
 00003081,-0.00011772,0.00019525,0.00006657,0.00011423,-0.00016770,-0.0
 0016145,0.00018345,0.00032273,-0.01431965,-0.03012395,0.26173321\\-0.0
 0000047,-0.00000048,-0.00000076,0.00000015,-0.00000018,-0.00000097,0.0
 0000045,0.00000058,0.00000043,-0.00000091,-0.00000038,0.00000045,0.000
 00082,0.00000035,0.00000035,-0.00000060,0.00000010,0.00000119,-0.00000
 086,-0.00000078,-0.00000122,0.00000018,-0.00000054,-0.00000144,-0.0000
 0054,-0.00000048,-0.00000046,0.00000104,0.00000024,-0.00000024,0.00000
 071,0.,-0.00000094,-0.00000056,-0.00000040,-0.00000057,-0.00000133,-0.
 00000057,0.,-0.00000114,-0.00000007,0.00000066,0.00000100,0.00000046,0
 .00000005,0.00000040,0.00000068,0.00000123,0.00000133,0.00000082,0.000
 00076,0.00000034,0.00000067,0.00000146\\\@


 HAPPINESS IS NOT HAVING WHAT YOU WANT --
 HAPPINESS IS WANTING WHAT YOU HAVE!

              -- FROM MRS. SEVERN'S DESK
 File lengths (MBytes):  RWF=     34 Int=      0 D2E=      0 Chk=      2 Scr=      1
 Normal termination of Gaussian 16 at Mon Feb  6 10:20:32 2023.
real 321.90
user 1213.51
sys 9.85
