 Entering Gaussian System, Link 0=g16
 Input=gaussian_test.inp
 Output=gaussian_test.log
 Initial command:
 /sw/restricted/lms/sw/Gaussian/g16_B01/g16/l1.exe "/scratch/user/peterchao1/peterchao1/6097812_1659647584000000577401975/Gau-153064.inp" -scrdir="/scratch/user/peterchao1/peterchao1/6097812_1659647584000000577401975/"
 Entering Link 1 = /sw/restricted/lms/sw/Gaussian/g16_B01/g16/l1.exe PID=    153065.
  
 Copyright (c) 1988-2017, Gaussian, Inc.  All Rights Reserved.
  
 This is part of the Gaussian(R) 16 program.  It is based on
 the Gaussian(R) 09 system (copyright 2009, Gaussian, Inc.),
 the Gaussian(R) 03 system (copyright 2003, Gaussian, Inc.),
 the Gaussian(R) 98 system (copyright 1998, Gaussian, Inc.),
 the Gaussian(R) 94 system (copyright 1995, Gaussian, Inc.),
 the Gaussian 92(TM) system (copyright 1992, Gaussian, Inc.),
 the Gaussian 90(TM) system (copyright 1990, Gaussian, Inc.),
 the Gaussian 88(TM) system (copyright 1988, Gaussian, Inc.),
 the Gaussian 86(TM) system (copyright 1986, Carnegie Mellon
 University), and the Gaussian 82(TM) system (copyright 1983,
 Carnegie Mellon University). Gaussian is a federally registered
 trademark of Gaussian, Inc.
  
 This software contains proprietary and confidential information,
 including trade secrets, belonging to Gaussian, Inc.
  
 This software is provided under written license and may be
 used, copied, transmitted, or stored only in accord with that
 written license.
  
 The following legend is applicable only to US Government
 contracts under FAR:
  
                    RESTRICTED RIGHTS LEGEND
  
 Use, reproduction and disclosure by the US Government is
 subject to restrictions as set forth in subparagraphs (a)
 and (c) of the Commercial Computer Software - Restricted
 Rights clause in FAR 52.227-19.
  
 Gaussian, Inc.
 340 Quinnipiac St., Bldg. 40, Wallingford CT 06492
  
  
 ---------------------------------------------------------------
 Warning -- This program may not be used in any manner that
 competes with the business of Gaussian, Inc. or will provide
 assistance to any competitor of Gaussian, Inc.  The licensee
 of this program is prohibited from giving any competitor of
 Gaussian, Inc. access to this program.  By using this program,
 the user acknowledges that Gaussian, Inc. is engaged in the
 business of creating and licensing software in the field of
 computational chemistry and represents and warrants to the
 licensee that it is not a competitor of Gaussian, Inc. and that
 it will not use this program in any manner prohibited above.
 ---------------------------------------------------------------
  

 Cite this work as:
 Gaussian 16, Revision B.01,
 M. J. Frisch, G. W. Trucks, H. B. Schlegel, G. E. Scuseria, 
 M. A. Robb, J. R. Cheeseman, G. Scalmani, V. Barone, 
 G. A. Petersson, H. Nakatsuji, X. Li, M. Caricato, A. V. Marenich, 
 J. Bloino, B. G. Janesko, R. Gomperts, B. Mennucci, H. P. Hratchian, 
 J. V. Ortiz, A. F. Izmaylov, J. L. Sonnenberg, D. Williams-Young, 
 F. Ding, F. Lipparini, F. Egidi, J. Goings, B. Peng, A. Petrone, 
 T. Henderson, D. Ranasinghe, V. G. Zakrzewski, J. Gao, N. Rega, 
 G. Zheng, W. Liang, M. Hada, M. Ehara, K. Toyota, R. Fukuda, 
 J. Hasegawa, M. Ishida, T. Nakajima, Y. Honda, O. Kitao, H. Nakai, 
 T. Vreven, K. Throssell, J. A. Montgomery, Jr., J. E. Peralta, 
 F. Ogliaro, M. J. Bearpark, J. J. Heyd, E. N. Brothers, K. N. Kudin, 
 V. N. Staroverov, T. A. Keith, R. Kobayashi, J. Normand, 
 K. Raghavachari, A. P. Rendell, J. C. Burant, S. S. Iyengar, 
 J. Tomasi, M. Cossi, J. M. Millam, M. Klene, C. Adamo, R. Cammi, 
 J. W. Ochterski, R. L. Martin, K. Morokuma, O. Farkas, 
 J. B. Foresman, and D. J. Fox, Gaussian, Inc., Wallingford CT, 2016.
 
 ******************************************
 Gaussian 16:  ES64L-G16RevB.01 20-Dec-2017
                 4-Aug-2022 
 ******************************************
 %nprocshared=4
 Will use up to    4 processors via shared memory.
 %mem=8000mb
 ----------------------------------------------------------------------
 #T wB97XD/def2svpp opt=tight freq int(grid=ultrafine) scf=(verytight,q
 c)
 ----------------------------------------------------------------------
 --------------
 Comment gs min
 --------------
 Symbolic Z-matrix:
 Charge =  0 Multiplicity = 1
 O                     2.53539  -1.19463   0.74702 
 C                     2.39662  -0.04546  -0.09606 
 C                     2.943     1.23545   0.56035 
 C                     2.53456   2.47171  -0.25989 
 O                     2.97758   2.40455  -1.61337 
 C                     2.48174   1.3836    2.01852 
 O                     2.89583   0.3247    2.87916 
 N                     4.46425   1.2209    0.56984 
 O                     5.05506   0.2374    0.10007 
 O                     5.03205   2.23955   0.98788 
 H                     2.41718  -1.97932   0.17723 
 H                     1.31906   0.06469  -0.26783 
 H                     2.8608   -0.25572  -1.06631 
 H                     2.89319   3.4112    0.17742 
 H                     1.44139   2.54034  -0.29735 
 H                     3.85458   2.83736  -1.66911 
 H                     1.38571   1.41712   2.0569 
 H                     2.83795   2.31995   2.4625 
 H                     2.81485  -0.51868   2.37998 
 

 GradGradGradGradGradGradGradGradGradGradGradGradGradGradGradGradGradGrad
 Initialization pass.
                           ----------------------------
                           !    Initial Parameters    !
                           ! (Angstroms and Degrees)  !
 --------------------------                            --------------------------
 ! Name  Definition              Value          Derivative Info.                !
 --------------------------------------------------------------------------------
 ! R1    R(1,2)                  1.432          estimate D2E/DX2                !
 ! R2    R(1,11)                 0.9769         estimate D2E/DX2                !
 ! R3    R(2,3)                  1.5395         estimate D2E/DX2                !
 ! R4    R(2,12)                 1.0967         estimate D2E/DX2                !
 ! R5    R(2,13)                 1.0959         estimate D2E/DX2                !
 ! R6    R(3,4)                  1.5388         estimate D2E/DX2                !
 ! R7    R(3,6)                  1.5365         estimate D2E/DX2                !
 ! R8    R(3,8)                  1.5213         estimate D2E/DX2                !
 ! R9    R(4,5)                  1.4257         estimate D2E/DX2                !
 ! R10   R(4,14)                 1.0966         estimate D2E/DX2                !
 ! R11   R(4,15)                 1.096          estimate D2E/DX2                !
 ! R12   R(5,16)                 0.9796         estimate D2E/DX2                !
 ! R13   R(6,7)                  1.426          estimate D2E/DX2                !
 ! R14   R(6,17)                 1.0972         estimate D2E/DX2                !
 ! R15   R(6,18)                 1.0958         estimate D2E/DX2                !
 ! R16   R(7,19)                 0.9834         estimate D2E/DX2                !
 ! R17   R(8,9)                  1.2398         estimate D2E/DX2                !
 ! R18   R(8,10)                 1.2389         estimate D2E/DX2                !
 ! A1    A(2,1,11)             106.8264         estimate D2E/DX2                !
 ! A2    A(1,2,3)              112.4744         estimate D2E/DX2                !
 ! A3    A(1,2,12)             105.5467         estimate D2E/DX2                !
 ! A4    A(1,2,13)             109.0395         estimate D2E/DX2                !
 ! A5    A(3,2,12)             109.3853         estimate D2E/DX2                !
 ! A6    A(3,2,13)             112.7546         estimate D2E/DX2                !
 ! A7    A(12,2,13)            107.2632         estimate D2E/DX2                !
 ! A8    A(2,3,4)              110.3014         estimate D2E/DX2                !
 ! A9    A(2,3,6)              112.2288         estimate D2E/DX2                !
 ! A10   A(2,3,8)              110.4617         estimate D2E/DX2                !
 ! A11   A(4,3,6)              110.4082         estimate D2E/DX2                !
 ! A12   A(4,3,8)              106.0464         estimate D2E/DX2                !
 ! A13   A(6,3,8)              107.1681         estimate D2E/DX2                !
 ! A14   A(3,4,5)              112.6874         estimate D2E/DX2                !
 ! A15   A(3,4,14)             112.8872         estimate D2E/DX2                !
 ! A16   A(3,4,15)             109.4677         estimate D2E/DX2                !
 ! A17   A(5,4,14)             108.5009         estimate D2E/DX2                !
 ! A18   A(5,4,15)             106.2867         estimate D2E/DX2                !
 ! A19   A(14,4,15)            106.63           estimate D2E/DX2                !
 ! A20   A(4,5,16)             108.1438         estimate D2E/DX2                !
 ! A21   A(3,6,7)              114.4554         estimate D2E/DX2                !
 ! A22   A(3,6,17)             109.634          estimate D2E/DX2                !
 ! A23   A(3,6,18)             111.6729         estimate D2E/DX2                !
 ! A24   A(7,6,17)             106.9567         estimate D2E/DX2                !
 ! A25   A(7,6,18)             107.1932         estimate D2E/DX2                !
 ! A26   A(17,6,18)            106.5256         estimate D2E/DX2                !
 ! A27   A(6,7,19)             107.8531         estimate D2E/DX2                !
 ! A28   A(3,8,9)              118.7993         estimate D2E/DX2                !
 ! A29   A(3,8,10)             116.9062         estimate D2E/DX2                !
 ! A30   A(9,8,10)             124.1754         estimate D2E/DX2                !
 ! D1    D(11,1,2,3)          -163.7768         estimate D2E/DX2                !
 ! D2    D(11,1,2,12)           77.0184         estimate D2E/DX2                !
 ! D3    D(11,1,2,13)          -37.934          estimate D2E/DX2                !
 ! D4    D(1,2,3,4)           -169.3129         estimate D2E/DX2                !
 ! D5    D(1,2,3,6)            -45.751          estimate D2E/DX2                !
 ! D6    D(1,2,3,8)             73.7762         estimate D2E/DX2                !
 ! D7    D(12,2,3,4)           -52.3734         estimate D2E/DX2                !
 ! D8    D(12,2,3,6)            71.1886         estimate D2E/DX2                !
 ! D9    D(12,2,3,8)          -169.2843         estimate D2E/DX2                !
 ! D10   D(13,2,3,4)            66.8839         estimate D2E/DX2                !
 ! D11   D(13,2,3,6)          -169.5542         estimate D2E/DX2                !
 ! D12   D(13,2,3,8)           -50.027          estimate D2E/DX2                !
 ! D13   D(2,3,4,5)            -57.2978         estimate D2E/DX2                !
 ! D14   D(2,3,4,14)           179.3486         estimate D2E/DX2                !
 ! D15   D(2,3,4,15)            60.7475         estimate D2E/DX2                !
 ! D16   D(6,3,4,5)            178.0902         estimate D2E/DX2                !
 ! D17   D(6,3,4,14)            54.7366         estimate D2E/DX2                !
 ! D18   D(6,3,4,15)           -63.8645         estimate D2E/DX2                !
 ! D19   D(8,3,4,5)             62.3224         estimate D2E/DX2                !
 ! D20   D(8,3,4,14)           -61.0312         estimate D2E/DX2                !
 ! D21   D(8,3,4,15)          -179.6322         estimate D2E/DX2                !
 ! D22   D(2,3,6,7)             60.5685         estimate D2E/DX2                !
 ! D23   D(2,3,6,17)           -59.5916         estimate D2E/DX2                !
 ! D24   D(2,3,6,18)          -177.415          estimate D2E/DX2                !
 ! D25   D(4,3,6,7)           -175.9293         estimate D2E/DX2                !
 ! D26   D(4,3,6,17)            63.9106         estimate D2E/DX2                !
 ! D27   D(4,3,6,18)           -53.9128         estimate D2E/DX2                !
 ! D28   D(8,3,6,7)            -60.8656         estimate D2E/DX2                !
 ! D29   D(8,3,6,17)           178.9743         estimate D2E/DX2                !
 ! D30   D(8,3,6,18)            61.1509         estimate D2E/DX2                !
 ! D31   D(2,3,8,9)             -1.0826         estimate D2E/DX2                !
 ! D32   D(2,3,8,10)           175.1179         estimate D2E/DX2                !
 ! D33   D(4,3,8,9)           -120.5979         estimate D2E/DX2                !
 ! D34   D(4,3,8,10)            55.6026         estimate D2E/DX2                !
 ! D35   D(6,3,8,9)            121.4572         estimate D2E/DX2                !
 ! D36   D(6,3,8,10)           -62.3423         estimate D2E/DX2                !
 ! D37   D(3,4,5,16)           -91.8009         estimate D2E/DX2                !
 ! D38   D(14,4,5,16)           33.9592         estimate D2E/DX2                !
 ! D39   D(15,4,5,16)          148.3002         estimate D2E/DX2                !
 ! D40   D(3,6,7,19)           -39.7031         estimate D2E/DX2                !
 ! D41   D(17,6,7,19)           81.9362         estimate D2E/DX2                !
 ! D42   D(18,6,7,19)         -164.1335         estimate D2E/DX2                !
 --------------------------------------------------------------------------------
 Number of steps in this run=    100 maximum allowed number of steps=    114.
 GradGradGradGradGradGradGradGradGradGradGradGradGradGradGradGradGradGrad

                    Distance matrix (angstroms):
                    1          2          3          4          5
     1  O    0.000000
     2  C    1.432003   0.000000
     3  C    2.471089   1.539524   0.000000
     4  C    3.802094   2.526265   1.538816   0.000000
     5  O    4.326785   2.939778   2.468410   1.425723   0.000000
     6  C    2.875215   2.553607   1.536544   2.525455   3.805105
     7  O    2.642783   3.039435   2.491700   3.820184   4.951291
     8  N    3.096236   2.514395   1.521349   2.444725   2.894412
     9  O    2.969510   2.680631   2.380916   3.387423   3.456637
    10  O    4.252636   3.652628   2.356932   2.801479   3.318821
    11  H    0.976920   1.953183   3.279941   4.473983   4.768502
    12  H    2.023676   1.096710   2.166505   2.696525   3.167982
    13  H    2.067755   1.095928   2.208250   2.862799   2.718446
    14  H    4.654690   3.502838   2.209752   1.096584   2.056063
    15  H    4.029584   2.763936   2.166384   1.095963   2.027370
    16  H    4.882099   3.593158   2.892678   1.965211   0.979572
    17  H    3.139871   2.792188   2.167445   2.792764   4.120673
    18  H    3.922587   3.512288   2.192111   2.743444   4.079138
    19  H    1.789292   2.555314   2.530701   3.998738   4.951626
                    6          7          8          9         10
     6  C    0.000000
     7  O    1.425988   0.000000
     8  N    2.460791   2.931906   0.000000
     9  O    3.408255   3.520403   1.239763   0.000000
    10  O    2.880790   3.436135   1.238871   2.190283   0.000000
    11  H    3.834547   3.583021   3.819168   3.446478   5.029271
    12  H    2.884223   3.529498   3.454089   3.758041   4.482535
    13  H    3.513863   3.988088   2.725517   2.533453   3.893635
    14  H    2.769495   4.101937   2.723901   3.840921   2.569889
    15  H    2.789916   4.136988   3.410370   4.303497   3.825589
    16  H    4.194845   5.283883   2.827992   3.366146   2.967054
    17  H    1.097214   2.037144   3.424508   4.322621   3.887800
    18  H    1.095790   2.039112   2.726706   3.851450   2.644814
    19  H    1.964761   0.983376   3.003875   3.284538   3.802861
                   11         12         13         14         15
    11  H    0.000000
    12  H    2.362609   0.000000
    13  H    2.171172   1.765558   0.000000
    14  H    5.411496   3.724951   3.872237   0.000000
    15  H    4.648088   2.478846   3.228618   1.758274   0.000000
    16  H    5.354951   4.010006   3.304256   2.159453   2.791672
    17  H    4.016577   2.690331   3.837802   3.127506   2.609064
    18  H    4.887047   3.853301   4.368878   2.532878   3.100923
    19  H    2.672774   3.096547   3.456613   4.505704   4.290931
                   16         17         18         19
    16  H    0.000000
    17  H    4.689941   0.000000
    18  H    4.286193   1.757445   0.000000
    19  H    5.360893   2.427786   2.839923   0.000000
 Framework group  C1[X(C4H9NO5)]
 Deg. of freedom    51
                         Standard orientation:                         
 ---------------------------------------------------------------------
 Center     Atomic      Atomic             Coordinates (Angstroms)
 Number     Number       Type             X           Y           Z
 ---------------------------------------------------------------------
      1          8           0       -1.859369   -1.219752    0.714626
      2          6           0       -0.513468   -1.423204    0.269887
      3          6           0        0.091915   -0.160840   -0.370492
      4          6           0        1.422758   -0.500036   -1.064580
      5          8           0        2.372465   -1.085290   -0.176763
      6          6           0       -0.873480    0.508654   -1.360826
      7          8           0       -2.103206    0.943156   -0.784265
      8          7           0        0.425478    0.869715    0.697774
      9          8           0        0.170605    0.606228    1.882100
     10          8           0        1.006399    1.897770    0.323027
     11          1           0       -2.069432   -1.953073    1.324942
     12          1           0       -0.569286   -2.221047   -0.480515
     13          1           0        0.085412   -1.803643    1.105151
     14          1           0        1.886290    0.369284   -1.546158
     15          1           0        1.244844   -1.238485   -1.854627
     16          1           0        2.920074   -0.366389    0.201215
     17          1           0       -1.127290   -0.196554   -2.162163
     18          1           0       -0.417159    1.379410   -1.844881
     19          1           0       -2.393299    0.258145   -0.141121
 ---------------------------------------------------------------------
 Rotational constants (GHZ):           1.5973435           1.1580930           1.0629527
   158 basis functions,   286 primitive gaussians,   168 cartesian basis functions
    40 alpha electrons       40 beta electrons
       nuclear repulsion energy       618.5260317957 Hartrees.
 NAtoms=   19 NActive=   19 NUniq=   19 SFac= 1.00D+00 NAtFMM=   60 NAOKFM=F Big=F
 Nuclear repulsion after empirical dispersion term =      618.5135850142 Hartrees.
   1 Symmetry operations used in ECPInt.
 ECPInt:  NShTT=    3081 NPrTT=   12403 LenC2=    3043 LenP2D=    9484.
 LDataN:  DoStor=T MaxTD1= 4 Len=   56
 ExpMin= 1.22D-01 ExpMax= 2.27D+03 ExpMxC= 3.41D+02 IAcc=3 IRadAn=         5 AccDes= 0.00D+00
 Harris functional with IExCor= 4639 and IRadAn=       5 diagonalized for initial guess.
 HarFok:  IExCor= 4639 AccDes= 0.00D+00 IRadAn=         5 IDoV= 1 UseB2=F ITyADJ=14
 ICtDFT=  3500011 ScaDFX=  1.000000  1.000000  1.000000  1.000000
 FoFCou: FMM=F IPFlag=           0 FMFlag=      100000 FMFlg1=           0
         NFxFlg=           0 DoJE=T BraDBF=F KetDBF=T FulRan=T
         wScrn=  0.000000 ICntrl=       500 IOpCl=  0 I1Cent=   200000004 NGrid=           0
         NMat0=    1 NMatS0=      1 NMatT0=    0 NMatD0=    1 NMtDS0=    0 NMtDT0=    0
 Petite list used in FoFCou.
     Accept linear search using points  2 and  3.
     Accept linear search using points  1 and  2.
     Minimum is close to point  2 DX=  6.07D-04 DF= -3.98D-12 DXR=  6.07D-04 DFR=  3.58D-07 which will be used.
 SCF Done:  E(RwB97XD) =  -587.930315752     a.u. after    8 cycles
            Convg  =    0.2150D-09                    45 Fock formations.
              S**2 =  0.0000                  -V/T =  2.0078

 **********************************************************************

            Population analysis using the SCF Density.

 **********************************************************************

 Orbital symmetries:
       Occupied  (A) (A) (A) (A) (A) (A) (A) (A) (A) (A) (A) (A)
                 (A) (A) (A) (A) (A) (A) (A) (A) (A) (A) (A) (A)
                 (A) (A) (A) (A) (A) (A) (A) (A) (A) (A) (A) (A)
                 (A) (A) (A) (A)
       Virtual   (A) (A) (A) (A) (A) (A) (A) (A) (A) (A) (A) (A)
                 (A) (A) (A) (A) (A) (A) (A) (A) (A) (A) (A) (A)
                 (A) (A) (A) (A) (A) (A) (A) (A) (A) (A) (A) (A)
                 (A) (A) (A) (A) (A) (A) (A) (A) (A) (A) (A) (A)
                 (A) (A) (A) (A) (A) (A) (A) (A) (A) (A) (A) (A)
                 (A) (A) (A) (A) (A) (A) (A) (A) (A) (A) (A) (A)
                 (A) (A) (A) (A) (A) (A) (A) (A) (A) (A) (A) (A)
                 (A) (A) (A) (A) (A) (A) (A) (A) (A) (A) (A) (A)
                 (A) (A) (A) (A) (A) (A) (A) (A) (A) (A) (A) (A)
                 (A) (A) (A) (A) (A) (A) (A) (A) (A) (A)
 The electronic state is 1-A.
 Alpha  occ. eigenvalues --  -19.29825 -19.29661 -19.28856 -19.27921 -19.23841
 Alpha  occ. eigenvalues --  -14.68460 -10.38330 -10.37535 -10.37392 -10.35851
 Alpha  occ. eigenvalues --   -1.31904  -1.14866  -1.14350  -1.13453  -1.09773
 Alpha  occ. eigenvalues --   -0.95241  -0.80337  -0.80015  -0.78048  -0.67258
 Alpha  occ. eigenvalues --   -0.66129  -0.64185  -0.63344  -0.62035  -0.60297
 Alpha  occ. eigenvalues --   -0.56055  -0.55613  -0.54841  -0.53964  -0.53233
 Alpha  occ. eigenvalues --   -0.50728  -0.47470  -0.44519  -0.41020  -0.40658
 Alpha  occ. eigenvalues --   -0.39997  -0.39169  -0.38358  -0.38212  -0.35277
 Alpha virt. eigenvalues --   -0.00688   0.10443   0.11552   0.13277   0.15885
 Alpha virt. eigenvalues --    0.18353   0.19443   0.20298   0.20781   0.22431
 Alpha virt. eigenvalues --    0.23674   0.25332   0.28416   0.28750   0.29846
 Alpha virt. eigenvalues --    0.30076   0.35124   0.35808   0.43547   0.51343
 Alpha virt. eigenvalues --    0.53196   0.54115   0.56840   0.57522   0.59025
 Alpha virt. eigenvalues --    0.61541   0.62372   0.63013   0.66307   0.68446
 Alpha virt. eigenvalues --    0.70226   0.72303   0.73124   0.73723   0.74435
 Alpha virt. eigenvalues --    0.76674   0.77404   0.78399   0.79067   0.79495
 Alpha virt. eigenvalues --    0.83431   0.85951   0.93884   0.96504   0.99014
 Alpha virt. eigenvalues --    1.00205   1.02298   1.04825   1.05133   1.09247
 Alpha virt. eigenvalues --    1.10250   1.11854   1.13822   1.15281   1.18051
 Alpha virt. eigenvalues --    1.21123   1.21808   1.24600   1.25394   1.27552
 Alpha virt. eigenvalues --    1.30728   1.41178   1.41760   1.49268   1.50375
 Alpha virt. eigenvalues --    1.54184   1.60725   1.66485   1.70642   1.74290
 Alpha virt. eigenvalues --    1.78014   1.81060   1.84413   1.86266   1.87150
 Alpha virt. eigenvalues --    1.93807   1.95536   2.00958   2.05010   2.10287
 Alpha virt. eigenvalues --    2.12068   2.13547   2.19039   2.21268   2.25238
 Alpha virt. eigenvalues --    2.29758   2.35466   2.45852   2.50816   2.53052
 Alpha virt. eigenvalues --    2.56496   2.64723   2.67079   2.69155   2.70848
 Alpha virt. eigenvalues --    2.71135   2.72908   2.73839   2.78253   2.85518
 Alpha virt. eigenvalues --    2.88777   2.93311   2.93797   2.95630   3.02115
 Alpha virt. eigenvalues --    3.04299   3.06178   3.10217   3.11476   3.14802
 Alpha virt. eigenvalues --    3.18123   3.33049   3.41678   3.44004   3.46703
 Alpha virt. eigenvalues --    3.47189   3.80358   3.81800
          Condensed to atoms (all electrons):
 Mulliken charges:
               1
     1  O   -0.516245
     2  C    0.096805
     3  C   -0.247248
     4  C    0.047245
     5  O   -0.497000
     6  C    0.113451
     7  O   -0.514975
     8  N    0.245603
     9  O   -0.231557
    10  O   -0.257605
    11  H    0.344126
    12  H    0.107946
    13  H    0.134280
    14  H    0.141819
    15  H    0.125674
    16  H    0.336678
    17  H    0.102797
    18  H    0.130722
    19  H    0.337483
 Sum of Mulliken charges =   0.00000
 Mulliken charges with hydrogens summed into heavy atoms:
               1
     1  O   -0.172118
     2  C    0.339031
     3  C   -0.247248
     4  C    0.314737
     5  O   -0.160322
     6  C    0.346970
     7  O   -0.177491
     8  N    0.245603
     9  O   -0.231557
    10  O   -0.257605
 Electronic spatial extent (au):  <R**2>=           1332.5007
 Charge=              0.0000 electrons
 Dipole moment (field-independent basis, Debye):
    X=              0.8908    Y=             -4.0648    Z=             -1.3656  Tot=              4.3796
   1 Symmetry operations used in ECPInt.
 ECPInt:  NShTT=    3081 NPrTT=   12403 LenC2=    3043 LenP2D=    9484.
 LDataN:  DoStor=T MaxTD1= 5 Len=  102
 Calling FoFJK, ICntrl=      2127 FMM=F ISym2X=0 I1Cent= 0 IOpClX= 0 NMat=1 NMatS=1 NMatT=0.

 GradGradGradGradGradGradGradGradGradGradGradGradGradGradGradGradGradGrad
 FormGI is forming the generalized inverse of G from B-inverse, IUseBI=4.
 Internal  Forces:  Max     0.048538162 RMS     0.008574888
 Step number   1 out of a maximum of  100
 All quantities printed in internal units (Hartrees-Bohrs-Radians)
 Mixed Optimization -- RFO/linear search
 Second derivative matrix not updated -- first step.
 ITU=  0
     Eigenvalues ---    0.00230   0.00243   0.00252   0.00252   0.00283
     Eigenvalues ---    0.01268   0.01348   0.01352   0.04189   0.04491
     Eigenvalues ---    0.04597   0.04608   0.05197   0.05566   0.05580
     Eigenvalues ---    0.05582   0.05953   0.11793   0.11844   0.11996
     Eigenvalues ---    0.13986   0.14015   0.14123   0.14910   0.15275
     Eigenvalues ---    0.16000   0.16000   0.16000   0.21986   0.22009
     Eigenvalues ---    0.22016   0.25000   0.25000   0.28561   0.28624
     Eigenvalues ---    0.28827   0.30237   0.33992   0.34049   0.34063
     Eigenvalues ---    0.34133   0.34137   0.34152   0.40703   0.41571
     Eigenvalues ---    0.41610   0.50735   0.51468   0.51988   0.87137
     Eigenvalues ---    0.87488
 Linear search not attempted -- first point.
 Iteration  1 RMS(Cart)=  0.06364600 RMS(Int)=  0.00211914
 Iteration  2 RMS(Cart)=  0.00213760 RMS(Int)=  0.00086067
 Iteration  3 RMS(Cart)=  0.00000338 RMS(Int)=  0.00086067
 Iteration  4 RMS(Cart)=  0.00000001 RMS(Int)=  0.00086067
 Variable       Old X    -DE/DX   Delta X   Delta X   Delta X     New X
                                 (Linear)    (Quad)   (Total)
    R1        2.70609  -0.00733   0.00000  -0.01725  -0.01725   2.68884
    R2        1.84611  -0.01155   0.00000  -0.02148  -0.02148   1.82463
    R3        2.90928  -0.01235   0.00000  -0.04069  -0.04069   2.86859
    R4        2.07248   0.00674   0.00000   0.01882   0.01882   2.09130
    R5        2.07100   0.00288   0.00000   0.00802   0.00802   2.07903
    R6        2.90794  -0.00546   0.00000  -0.01797  -0.01797   2.88997
    R7        2.90365  -0.00151   0.00000  -0.00493  -0.00493   2.89872
    R8        2.87493  -0.00309   0.00000  -0.00964  -0.00964   2.86529
    R9        2.69423  -0.01271   0.00000  -0.02929  -0.02929   2.66494
   R10        2.07224   0.00378   0.00000   0.01055   0.01055   2.08279
   R11        2.07107   0.00434   0.00000   0.01209   0.01209   2.08316
   R12        1.85112  -0.01186   0.00000  -0.02228  -0.02228   1.82884
   R13        2.69473  -0.01942   0.00000  -0.04480  -0.04480   2.64993
   R14        2.07343   0.00835   0.00000   0.02333   0.02333   2.09677
   R15        2.07074   0.00322   0.00000   0.00897   0.00897   2.07971
   R16        1.85831  -0.00932   0.00000  -0.01775  -0.01775   1.84056
   R17        2.34281  -0.04854   0.00000  -0.05459  -0.05459   2.28822
   R18        2.34113  -0.04184   0.00000  -0.04687  -0.04687   2.29425
    A1        1.86447   0.00880   0.00000   0.04952   0.04952   1.91399
    A2        1.96305  -0.00850   0.00000  -0.03448  -0.03440   1.92865
    A3        1.84214   0.01054   0.00000   0.08506   0.08423   1.92637
    A4        1.90310   0.00830   0.00000   0.04478   0.04245   1.94555
    A5        1.90913  -0.00576   0.00000  -0.04270  -0.04270   1.86644
    A6        1.96794  -0.00646   0.00000  -0.06287  -0.06356   1.90438
    A7        1.87210   0.00350   0.00000   0.02229   0.01821   1.89030
    A8        1.92512  -0.00243   0.00000  -0.02046  -0.02048   1.90465
    A9        1.95876   0.00439   0.00000   0.03247   0.03251   1.99127
   A10        1.92792  -0.00206   0.00000  -0.01488  -0.01511   1.91281
   A11        1.92699  -0.00162   0.00000  -0.00753  -0.00737   1.91961
   A12        1.85086   0.00212   0.00000   0.00477   0.00457   1.85542
   A13        1.87044  -0.00050   0.00000   0.00460   0.00466   1.87509
   A14        1.96677  -0.00406   0.00000  -0.01699  -0.01687   1.94989
   A15        1.97025  -0.00851   0.00000  -0.06049  -0.06054   1.90971
   A16        1.91057  -0.00113   0.00000  -0.01699  -0.01722   1.89336
   A17        1.89370   0.00897   0.00000   0.06133   0.06079   1.95449
   A18        1.85505   0.00249   0.00000   0.01741   0.01696   1.87201
   A19        1.86104   0.00328   0.00000   0.02244   0.02078   1.88183
   A20        1.88746   0.00201   0.00000   0.01131   0.01131   1.89877
   A21        1.99762  -0.00090   0.00000  -0.00354  -0.00434   1.99329
   A22        1.91347  -0.00688   0.00000  -0.03101  -0.03193   1.88154
   A23        1.94906  -0.00464   0.00000  -0.05458  -0.05595   1.89311
   A24        1.86675   0.00991   0.00000   0.09623   0.09633   1.96308
   A25        1.87087  -0.00012   0.00000  -0.02093  -0.02239   1.84849
   A26        1.85922   0.00369   0.00000   0.02229   0.02093   1.88015
   A27        1.88239  -0.00046   0.00000  -0.00257  -0.00257   1.87982
   A28        2.07344  -0.00003   0.00000   0.00216   0.00001   2.07345
   A29        2.04040  -0.00255   0.00000  -0.00727  -0.00943   2.03097
   A30        2.16727   0.00272   0.00000   0.01242   0.01027   2.17754
    D1       -2.85844   0.00173   0.00000   0.03982   0.03991  -2.81854
    D2        1.34423   0.00676   0.00000   0.05707   0.05956   1.40379
    D3       -0.66207  -0.00654   0.00000  -0.03303  -0.03561  -0.69769
    D4       -2.95507  -0.00128   0.00000  -0.02340  -0.02281  -2.97788
    D5       -0.79851  -0.00203   0.00000  -0.02500  -0.02458  -0.82309
    D6        1.28764  -0.00117   0.00000  -0.00786  -0.00756   1.28007
    D7       -0.91409   0.00294   0.00000   0.03375   0.03341  -0.88068
    D8        1.24247   0.00219   0.00000   0.03216   0.03163   1.27411
    D9       -2.95457   0.00306   0.00000   0.04929   0.04865  -2.90592
   D10        1.16734  -0.00068   0.00000  -0.00728  -0.00705   1.16029
   D11       -2.95928  -0.00143   0.00000  -0.00887  -0.00883  -2.96811
   D12       -0.87314  -0.00057   0.00000   0.00827   0.00819  -0.86494
   D13       -1.00004   0.00253   0.00000   0.02282   0.02297  -0.97706
   D14        3.13022   0.00035   0.00000   0.00124   0.00141   3.13163
   D15        1.06024   0.00238   0.00000   0.02276   0.02264   1.08288
   D16        3.10826  -0.00022   0.00000   0.00106   0.00111   3.10937
   D17        0.95533  -0.00240   0.00000  -0.02052  -0.02045   0.93488
   D18       -1.11464  -0.00037   0.00000   0.00100   0.00078  -1.11387
   D19        1.08773   0.00001   0.00000  -0.00324  -0.00318   1.08455
   D20       -1.06519  -0.00218   0.00000  -0.02482  -0.02475  -1.08994
   D21       -3.13517  -0.00015   0.00000  -0.00330  -0.00352  -3.13870
   D22        1.05712   0.00499   0.00000   0.10007   0.09965   1.15677
   D23       -1.04007  -0.00214   0.00000   0.00104   0.00163  -1.03843
   D24       -3.09648   0.00051   0.00000   0.02668   0.02678  -3.06970
   D25       -3.07055   0.00379   0.00000   0.09128   0.09080  -2.97974
   D26        1.11545  -0.00335   0.00000  -0.00775  -0.00721   1.10824
   D27       -0.94096  -0.00069   0.00000   0.01789   0.01793  -0.92303
   D28       -1.06230   0.00519   0.00000   0.09560   0.09497  -0.96733
   D29        3.12369  -0.00194   0.00000  -0.00342  -0.00305   3.12065
   D30        1.06728   0.00071   0.00000   0.02221   0.02210   1.08938
   D31       -0.01889  -0.00349   0.00000  -0.08487  -0.08480  -0.10370
   D32        3.05638  -0.00112   0.00000   0.03210   0.03210   3.08849
   D33       -2.10483  -0.00072   0.00000  -0.05515  -0.05507  -2.15990
   D34        0.97045   0.00166   0.00000   0.06183   0.06183   1.03228
   D35        2.11983   0.00033   0.00000  -0.05109  -0.05114   2.06869
   D36       -1.08808   0.00270   0.00000   0.06588   0.06577  -1.02231
   D37       -1.60223   0.00269   0.00000   0.04056   0.04083  -1.56140
   D38        0.59270  -0.00446   0.00000  -0.00368  -0.00483   0.58787
   D39        2.58833   0.00480   0.00000   0.05990   0.06078   2.64911
   D40       -0.69295  -0.00274   0.00000  -0.07799  -0.07846  -0.77141
   D41        1.43006  -0.00490   0.00000  -0.05017  -0.04974   1.38032
   D42       -2.86467   0.00398   0.00000   0.01115   0.01119  -2.85348
         Item               Value     Threshold  Converged?
 Maximum Force            0.048538     0.000015     NO 
 RMS     Force            0.008575     0.000010     NO 
 Maximum Displacement     0.200112     0.000060     NO 
 RMS     Displacement     0.063714     0.000040     NO 
 GradGradGradGradGradGradGradGradGradGradGradGradGradGradGradGradGradGrad

                    Distance matrix (angstroms):
                    1          2          3          4          5
     1  O    0.000000
     2  C    1.422873   0.000000
     3  C    2.417009   1.517990   0.000000
     4  C    3.741845   2.482839   1.529308   0.000000
     5  O    4.228899   2.857684   2.433886   1.410224   0.000000
     6  C    2.860416   2.560898   1.533936   2.509045   3.768656
     7  O    2.710004   3.094364   2.466441   3.775584   4.886073
     8  N    3.016676   2.479354   1.516247   2.437219   2.861397
     9  O    2.853783   2.637762   2.352489   3.377416   3.448126
    10  O    4.135589   3.593326   2.325512   2.806143   3.325491
    11  H    0.965552   1.970140   3.239776   4.440907   4.700805
    12  H    2.084623   1.106669   2.123183   2.596856   3.032147
    13  H    2.093071   1.100173   2.146701   2.762384   2.564862
    14  H    4.559788   3.441802   2.162018   1.102168   2.089783
    15  H    3.971043   2.718510   2.150067   1.102359   2.031344
    16  H    4.745584   3.482204   2.840439   1.950539   0.967783
    17  H    3.139961   2.786482   2.150562   2.750796   4.058284
    18  H    3.899943   3.486620   2.152587   2.670185   3.986898
    19  H    1.895287   2.649116   2.524688   3.984757   4.922503
                    6          7          8          9         10
     6  C    0.000000
     7  O    1.402282   0.000000
     8  N    2.458800   2.863316   0.000000
     9  O    3.361598   3.414557   1.210875   0.000000
    10  O    2.826707   3.266226   1.214066   2.148638   0.000000
    11  H    3.818166   3.626654   3.728234   3.314896   4.902301
    12  H    2.880760   3.616639   3.408748   3.718818   4.407725
    13  H    3.490127   4.014144   2.625102   2.466097   3.773385
    14  H    2.689824   3.965985   2.681092   3.799586   2.543967
    15  H    2.759679   4.102220   3.400665   4.286168   3.825505
    16  H    4.149494   5.182875   2.769060   3.328417   2.977222
    17  H    1.109562   2.094559   3.417843   4.275406   3.843591
    18  H    1.100534   2.005915   2.691602   3.780502   2.558423
    19  H    1.935406   0.973984   2.949215   3.191145   3.654378
                   11         12         13         14         15
    11  H    0.000000
    12  H    2.477755   0.000000
    13  H    2.252277   1.788839   0.000000
    14  H    5.343155   3.620970   3.757843   0.000000
    15  H    4.628269   2.361203   3.155754   1.781470   0.000000
    16  H    5.234254   3.859833   3.099458   2.209513   2.801056
    17  H    4.023855   2.666171   3.813595   3.042314   2.538105
    18  H    4.858451   3.809992   4.286596   2.379214   3.030042
    19  H    2.744277   3.235244   3.544810   4.407513   4.283072
                   16         17         18         19
    16  H    0.000000
    17  H    4.627826   0.000000
    18  H    4.189860   1.784886   0.000000
    19  H    5.289353   2.461234   2.804442   0.000000
 Framework group  C1[X(C4H9NO5)]
 Deg. of freedom    51
                         Standard orientation:                         
 ---------------------------------------------------------------------
 Center     Atomic      Atomic             Coordinates (Angstroms)
 Number     Number       Type             X           Y           Z
 ---------------------------------------------------------------------
      1          8           0       -1.711336   -1.367613    0.657079
      2          6           0       -0.365044   -1.474767    0.209212
      3          6           0        0.106638   -0.156588   -0.377485
      4          6           0        1.460719   -0.366310   -1.056648
      5          8           0        2.410997   -0.911691   -0.168807
      6          6           0       -0.881554    0.479216   -1.363482
      7          8           0       -2.085782    0.899015   -0.780388
      8          7           0        0.340485    0.842285    0.739016
      9          8           0        0.036061    0.534903    1.869972
     10          8           0        0.777073    1.926299    0.409984
     11          1           0       -1.906510   -2.084227    1.274058
     12          1           0       -0.285286   -2.232038   -0.593843
     13          1           0        0.309626   -1.766710    1.027729
     14          1           0        1.803009    0.585990   -1.493381
     15          1           0        1.330676   -1.087639   -1.880037
     16          1           0        2.869693   -0.187458    0.280291
     17          1           0       -1.040271   -0.238244   -2.194859
     18          1           0       -0.419148    1.384275   -1.785647
     19          1           0       -2.385833    0.193454   -0.179723
 ---------------------------------------------------------------------
 Rotational constants (GHZ):           1.6055701           1.2049760           1.1016993
   158 basis functions,   286 primitive gaussians,   168 cartesian basis functions
    40 alpha electrons       40 beta electrons
       nuclear repulsion energy       626.0119745499 Hartrees.
 NAtoms=   19 NActive=   19 NUniq=   19 SFac= 1.00D+00 NAtFMM=   60 NAOKFM=F Big=F
 Nuclear repulsion after empirical dispersion term =      625.9993740442 Hartrees.
   1 Symmetry operations used in ECPInt.
 ECPInt:  NShTT=    3081 NPrTT=   12403 LenC2=    3046 LenP2D=    9529.
 LDataN:  DoStor=T MaxTD1= 4 Len=   56
 Initial guess from the checkpoint file:  "/scratch/user/peterchao1/peterchao1/6097812_1659647584000000577401975/Gau-153065.chk"
 B after Tr=    -0.000000   -0.000000   -0.000000
         Rot=    0.999108   -0.018335    0.010217   -0.036632 Ang=  -4.84 deg.
 ExpMin= 1.22D-01 ExpMax= 2.27D+03 ExpMxC= 3.41D+02 IAcc=3 IRadAn=         5 AccDes= 0.00D+00
 Harris functional with IExCor= 4639 and IRadAn=       5 diagonalized for initial guess.
 HarFok:  IExCor= 4639 AccDes= 0.00D+00 IRadAn=         5 IDoV= 1 UseB2=F ITyADJ=14
 ICtDFT=  3500011 ScaDFX=  1.000000  1.000000  1.000000  1.000000
 FoFCou: FMM=F IPFlag=           0 FMFlag=      100000 FMFlg1=           0
         NFxFlg=           0 DoJE=T BraDBF=F KetDBF=T FulRan=T
         wScrn=  0.000000 ICntrl=       500 IOpCl=  0 I1Cent=   200000004 NGrid=           0
         NMat0=    1 NMatS0=      1 NMatT0=    0 NMatD0=    1 NMtDS0=    0 NMtDT0=    0
 Petite list used in FoFCou.
     Accept linear search using points  3 and  4.
     Accept linear search using points  2 and  3.
     Minimum is close to point  2 DX=  9.75D-02 DF= -7.17D-06 DXR=  8.88D-02 DFR=  7.95D-03 which will be used.
     Accept linear search using points  1 and  2.
     Minimum is close to point  2 DX= -7.86D-02 DF= -3.17D-06 DXR=  8.53D-02 DFR=  7.33D-03 which will be used.
     Accept linear search using points  1 and  2.
     Accept linear search using points  1 and  2.
     Accept linear search using points  1 and  2.
     Minimum is close to point  2 DX= -6.94D-04 DF= -1.08D-10 DXR=  6.94D-04 DFR=  4.82D-07 which will be used.
     Minimum is close to point  2 DX=  1.38D-04 DF=  0.00D+00 DXR=  1.38D-04 DFR=  0.00D+00 which will be used.
 SCF Done:  E(RwB97XD) =  -587.939108793     a.u. after   10 cycles
            Convg  =    0.3970D-08                    47 Fock formations.
              S**2 =  0.0000                  -V/T =  2.0073
   1 Symmetry operations used in ECPInt.
 ECPInt:  NShTT=    3081 NPrTT=   12403 LenC2=    3046 LenP2D=    9529.
 LDataN:  DoStor=T MaxTD1= 5 Len=  102
 Calling FoFJK, ICntrl=      2127 FMM=F ISym2X=0 I1Cent= 0 IOpClX= 0 NMat=1 NMatS=1 NMatT=0.

 GradGradGradGradGradGradGradGradGradGradGradGradGradGradGradGradGradGrad
 Using GEDIIS/GDIIS optimizer.
 FormGI is forming the generalized inverse of G from B-inverse, IUseBI=4.
 Internal  Forces:  Max     0.009066096 RMS     0.002358322
 Step number   2 out of a maximum of  100
 All quantities printed in internal units (Hartrees-Bohrs-Radians)
 Mixed Optimization -- RFO/linear search
 Trust test= 8.70D-01 RLast= 3.69D-01 DXMaxT set to 5.05D-01
 ITU=  1  0
 Use linear search instead of GDIIS.
     Eigenvalues ---    0.00230   0.00242   0.00252   0.00260   0.00306
     Eigenvalues ---    0.01267   0.01341   0.01354   0.04102   0.04799
     Eigenvalues ---    0.04833   0.05075   0.05407   0.05896   0.05947
     Eigenvalues ---    0.06039   0.06172   0.11156   0.11343   0.11697
     Eigenvalues ---    0.13728   0.13889   0.14049   0.15200   0.15697
     Eigenvalues ---    0.15887   0.16000   0.16175   0.21660   0.22076
     Eigenvalues ---    0.22461   0.24935   0.25010   0.28442   0.28823
     Eigenvalues ---    0.29418   0.30980   0.33569   0.34023   0.34066
     Eigenvalues ---    0.34126   0.34136   0.34152   0.38306   0.41218
     Eigenvalues ---    0.41600   0.50692   0.51372   0.51882   0.80860
     Eigenvalues ---    0.87420
 Quartic linear search produced a step of -0.02394.
 Iteration  1 RMS(Cart)=  0.06611025 RMS(Int)=  0.02660320
 Iteration  2 RMS(Cart)=  0.02781978 RMS(Int)=  0.01011918
 Iteration  3 RMS(Cart)=  0.00164530 RMS(Int)=  0.00997124
 Iteration  4 RMS(Cart)=  0.00004359 RMS(Int)=  0.00997119
 Iteration  5 RMS(Cart)=  0.00000228 RMS(Int)=  0.00997119
 Iteration  6 RMS(Cart)=  0.00000012 RMS(Int)=  0.00997119
 Variable       Old X    -DE/DX   Delta X   Delta X   Delta X     New X
                                 (Linear)    (Quad)   (Total)
    R1        2.68884  -0.00907   0.00041  -0.03213  -0.03171   2.65713
    R2        1.82463  -0.00120   0.00051  -0.01527  -0.01476   1.80987
    R3        2.86859   0.00314   0.00097  -0.01372  -0.01274   2.85584
    R4        2.09130   0.00059  -0.00045   0.01298   0.01253   2.10383
    R5        2.07903   0.00021  -0.00019   0.00542   0.00522   2.08425
    R6        2.88997   0.00597   0.00043   0.00940   0.00983   2.89980
    R7        2.89872   0.00078   0.00012  -0.00035  -0.00023   2.89849
    R8        2.86529   0.00532   0.00023   0.01124   0.01147   2.87676
    R9        2.66494  -0.00495   0.00070  -0.02928  -0.02858   2.63636
   R10        2.08279   0.00097  -0.00025   0.00911   0.00886   2.09165
   R11        2.08316   0.00004  -0.00029   0.00737   0.00709   2.09024
   R12        1.82884  -0.00082   0.00053  -0.01505  -0.01452   1.81432
   R13        2.64993  -0.00797   0.00107  -0.04573  -0.04466   2.60527
   R14        2.09677   0.00091  -0.00056   0.01662   0.01606   2.11283
   R15        2.07971   0.00060  -0.00021   0.00710   0.00688   2.08659
   R16        1.84056  -0.00054   0.00042  -0.01179  -0.01136   1.82920
   R17        2.28822  -0.00616   0.00131  -0.04025  -0.03894   2.24928
   R18        2.29425  -0.00324   0.00112  -0.03223  -0.03111   2.26314
    A1        1.91399   0.00118  -0.00119   0.03602   0.03484   1.94882
    A2        1.92865  -0.00338   0.00082  -0.03640  -0.03555   1.89310
    A3        1.92637  -0.00061  -0.00202   0.03317   0.03045   1.95682
    A4        1.94555   0.00236  -0.00102   0.04201   0.04010   1.98564
    A5        1.86644   0.00190   0.00102  -0.01847  -0.01732   1.84912
    A6        1.90438   0.00020   0.00152  -0.03363  -0.03196   1.87242
    A7        1.89030  -0.00043  -0.00044   0.01107   0.00955   1.89986
    A8        1.90465   0.00209   0.00049   0.00934   0.00984   1.91449
    A9        1.99127  -0.00361  -0.00078  -0.01049  -0.01130   1.97997
   A10        1.91281   0.00156   0.00036   0.00162   0.00191   1.91473
   A11        1.91961   0.00141   0.00018   0.00446   0.00466   1.92428
   A12        1.85542  -0.00164  -0.00011   0.00072   0.00060   1.85603
   A13        1.87509   0.00026  -0.00011  -0.00516  -0.00529   1.86980
   A14        1.94989   0.00345   0.00040   0.00545   0.00594   1.95584
   A15        1.90971  -0.00150   0.00145  -0.04407  -0.04272   1.86699
   A16        1.89336  -0.00058   0.00041  -0.01090  -0.01063   1.88272
   A17        1.95449  -0.00097  -0.00146   0.03041   0.02895   1.98344
   A18        1.87201  -0.00099  -0.00041   0.00785   0.00741   1.87942
   A19        1.88183   0.00052  -0.00050   0.01164   0.01054   1.89237
   A20        1.89877   0.00177  -0.00027   0.01709   0.01682   1.91559
   A21        1.99329  -0.00372   0.00010  -0.02039  -0.02024   1.97304
   A22        1.88154  -0.00047   0.00076  -0.03412  -0.03326   1.84828
   A23        1.89311   0.00023   0.00134  -0.02660  -0.02541   1.86770
   A24        1.96308   0.00125  -0.00231   0.05011   0.04745   2.01053
   A25        1.84849   0.00280   0.00054   0.01475   0.01468   1.86317
   A26        1.88015   0.00013  -0.00050   0.01703   0.01547   1.89562
   A27        1.87982   0.00021   0.00006  -0.00025  -0.00019   1.87963
   A28        2.07345   0.00097  -0.00000   0.01255  -0.03705   2.03640
   A29        2.03097  -0.00128   0.00023  -0.00177  -0.05165   1.97932
   A30        2.17754   0.00062  -0.00025   0.01732  -0.04162   2.13592
    D1       -2.81854   0.00068  -0.00096   0.03994   0.03912  -2.77942
    D2        1.40379   0.00082  -0.00143   0.06469   0.06423   1.46801
    D3       -0.69769   0.00020   0.00085   0.00059   0.00034  -0.69734
    D4       -2.97788   0.00113   0.00055   0.05601   0.05665  -2.92122
    D5       -0.82309   0.00201   0.00059   0.06151   0.06217  -0.76092
    D6        1.28007   0.00104   0.00018   0.04895   0.04921   1.32928
    D7       -0.88068  -0.00038  -0.00080   0.06415   0.06341  -0.81727
    D8        1.27411   0.00050  -0.00076   0.06966   0.06893   1.34304
    D9       -2.90592  -0.00047  -0.00116   0.05710   0.05597  -2.84995
   D10        1.16029   0.00025   0.00017   0.04975   0.04981   1.21010
   D11       -2.96811   0.00113   0.00021   0.05525   0.05533  -2.91278
   D12       -0.86494   0.00017  -0.00020   0.04269   0.04237  -0.82258
   D13       -0.97706  -0.00146  -0.00055   0.00252   0.00199  -0.97508
   D14        3.13163  -0.00154  -0.00003  -0.00837  -0.00825   3.12338
   D15        1.08288  -0.00100  -0.00054   0.00852   0.00786   1.09074
   D16        3.10937   0.00068  -0.00003   0.00622   0.00618   3.11555
   D17        0.93488   0.00059   0.00049  -0.00467  -0.00406   0.93082
   D18       -1.11387   0.00114  -0.00002   0.01222   0.01205  -1.10182
   D19        1.08455   0.00055   0.00008   0.00965   0.00973   1.09428
   D20       -1.08994   0.00047   0.00059  -0.00123  -0.00051  -1.09045
   D21       -3.13870   0.00102   0.00008   0.01566   0.01560  -3.12309
   D22        1.15677  -0.00134  -0.00239   0.01771   0.01534   1.17211
   D23       -1.03843   0.00007  -0.00004  -0.00654  -0.00651  -1.04494
   D24       -3.06970   0.00004  -0.00064   0.00550   0.00485  -3.06485
   D25       -2.97974  -0.00012  -0.00217   0.02581   0.02362  -2.95612
   D26        1.10824   0.00129   0.00017   0.00156   0.00177   1.11001
   D27       -0.92303   0.00127  -0.00043   0.01360   0.01314  -0.90989
   D28       -0.96733  -0.00119  -0.00227   0.02614   0.02382  -0.94351
   D29        3.12065   0.00022   0.00007   0.00188   0.00198   3.12262
   D30        1.08938   0.00020  -0.00053   0.01392   0.01334   1.10272
   D31       -0.10370   0.00483   0.00203   0.27082   0.26351   0.15982
   D32        3.08849  -0.00165  -0.00077  -0.31014  -0.30155   2.78693
   D33       -2.15990   0.00246   0.00132   0.25855   0.25052  -1.90938
   D34        1.03228  -0.00402  -0.00148  -0.32242  -0.31454   0.71774
   D35        2.06869   0.00153   0.00122   0.25557   0.24743   2.31612
   D36       -1.02231  -0.00495  -0.00157  -0.32539  -0.31763  -1.33994
   D37       -1.56140   0.00071  -0.00098   0.04180   0.04085  -1.52055
   D38        0.58787   0.00059   0.00012   0.01071   0.01064   0.59851
   D39        2.64911   0.00006  -0.00146   0.04706   0.04575   2.69486
   D40       -0.77141  -0.00026   0.00188  -0.07054  -0.06849  -0.83990
   D41        1.38032  -0.00281   0.00119  -0.09219  -0.09183   1.28849
   D42       -2.85348  -0.00028  -0.00027  -0.03571  -0.03531  -2.88879
         Item               Value     Threshold  Converged?
 Maximum Force            0.009066     0.000015     NO 
 RMS     Force            0.002358     0.000010     NO 
 Maximum Displacement     0.460040     0.000060     NO 
 RMS     Displacement     0.087343     0.000040     NO 
 GradGradGradGradGradGradGradGradGradGradGradGradGradGradGradGradGradGrad

                    Distance matrix (angstroms):
                    1          2          3          4          5
     1  O    0.000000
     2  C    1.406091   0.000000
     3  C    2.367933   1.511247   0.000000
     4  C    3.707533   2.490268   1.534507   0.000000
     5  O    4.226428   2.867931   2.430877   1.395099   0.000000
     6  C    2.762131   2.545756   1.533813   2.517300   3.763974
     7  O    2.602384   3.052965   2.430829   3.749208   4.846278
     8  N    3.003159   2.480484   1.522318   2.446789   2.873575
     9  O    2.964970   2.598726   2.315426   3.245360   3.243514
    10  O    4.153427   3.528899   2.280396   2.615753   3.043623
    11  H    0.957741   1.971913   3.200498   4.440196   4.743281
    12  H    2.096501   1.113301   2.108981   2.562287   2.978131
    13  H    2.108004   1.102937   2.119116   2.770032   2.589814
    14  H    4.487807   3.429177   2.138069   1.106855   2.099987
    15  H    3.921899   2.725600   2.149416   1.106108   2.026632
    16  H    4.720267   3.463652   2.825138   1.942562   0.960099
    17  H    3.018455   2.746286   2.131241   2.734067   4.022727
    18  H    3.808881   3.463926   2.136060   2.650291   3.954995
    19  H    1.797861   2.614622   2.504554   3.969092   4.901032
                    6          7          8          9         10
     6  C    0.000000
     7  O    1.378649   0.000000
     8  N    2.458786   2.814168   0.000000
     9  O    3.418600   3.524932   1.190267   0.000000
    10  O    2.936169   3.434713   1.197605   2.092300   0.000000
    11  H    3.719105   3.482333   3.695088   3.378172   4.884150
    12  H    2.887537   3.624472   3.401393   3.650884   4.304923
    13  H    3.460383   3.939262   2.577257   2.285516   3.598684
    14  H    2.660270   3.896349   2.655361   3.659500   2.334020
    15  H    2.755575   4.074584   3.408522   4.171948   3.667180
    16  H    4.143813   5.130759   2.762114   3.074208   2.651980
    17  H    1.118061   2.112601   3.411448   4.297779   3.904521
    18  H    1.104176   1.999349   2.675721   3.812686   2.673981
    19  H    1.910201   0.967971   2.936363   3.352378   3.822235
                   11         12         13         14         15
    11  H    0.000000
    12  H    2.532712   0.000000
    13  H    2.300404   1.802642   0.000000
    14  H    5.300916   3.584157   3.745971   0.000000
    15  H    4.627254   2.327380   3.186902   1.795132   0.000000
    16  H    5.239176   3.789070   3.068827   2.238616   2.805377
    17  H    3.914236   2.644122   3.775194   3.009512   2.501819
    18  H    4.763139   3.796790   4.242256   2.315416   3.001191
    19  H    2.597317   3.247128   3.485288   4.353859   4.256095
                   16         17         18         19
    16  H    0.000000
    17  H    4.599077   0.000000
    18  H    4.166416   1.804784   0.000000
    19  H    5.254273   2.443677   2.796594   0.000000
 Framework group  C1[X(C4H9NO5)]
 Deg. of freedom    51
                         Standard orientation:                         
 ---------------------------------------------------------------------
 Center     Atomic      Atomic             Coordinates (Angstroms)
 Number     Number       Type             X           Y           Z
 ---------------------------------------------------------------------
      1          8           0       -1.812054   -1.211218    0.666394
      2          6           0       -0.492037   -1.422362    0.230430
      3          6           0        0.024335   -0.136505   -0.372727
      4          6           0        1.327726   -0.409809   -1.135086
      5          8           0        2.291364   -1.012620   -0.326184
      6          6           0       -0.990731    0.558681   -1.288663
      7          8           0       -2.089633    1.039961   -0.609358
      8          7           0        0.374547    0.846184    0.735933
      9          8           0        0.360628    0.423678    1.848601
     10          8           0        1.128802    1.708387    0.386702
     11          1           0       -2.075162   -1.857202    1.322708
     12          1           0       -0.434794   -2.184537   -0.579047
     13          1           0        0.202671   -1.707504    1.038233
     14          1           0        1.654389    0.553218   -1.572122
     15          1           0        1.097692   -1.108476   -1.961175
     16          1           0        2.796217   -0.338353    0.134550
     17          1           0       -1.217650   -0.171568   -2.104325
     18          1           0       -0.481436    1.433213   -1.730274
     19          1           0       -2.412373    0.332386   -0.033039
 ---------------------------------------------------------------------
 Rotational constants (GHZ):           1.7086256           1.1916147           1.1153889
   158 basis functions,   286 primitive gaussians,   168 cartesian basis functions
    40 alpha electrons       40 beta electrons
       nuclear repulsion energy       632.1348316418 Hartrees.
 NAtoms=   19 NActive=   19 NUniq=   19 SFac= 1.00D+00 NAtFMM=   60 NAOKFM=F Big=F
 Nuclear repulsion after empirical dispersion term =      632.1222026065 Hartrees.
   1 Symmetry operations used in ECPInt.
 ECPInt:  NShTT=    3081 NPrTT=   12403 LenC2=    3046 LenP2D=    9548.
 LDataN:  DoStor=T MaxTD1= 4 Len=   56
 Initial guess from the checkpoint file:  "/scratch/user/peterchao1/peterchao1/6097812_1659647584000000577401975/Gau-153065.chk"
 B after Tr=     0.000000    0.000000   -0.000000
         Rot=    0.998298   -0.013494   -0.036953    0.043048 Ang=  -6.69 deg.
 ExpMin= 1.22D-01 ExpMax= 2.27D+03 ExpMxC= 3.41D+02 IAcc=3 IRadAn=         5 AccDes= 0.00D+00
 Harris functional with IExCor= 4639 and IRadAn=       5 diagonalized for initial guess.
 HarFok:  IExCor= 4639 AccDes= 0.00D+00 IRadAn=         5 IDoV= 1 UseB2=F ITyADJ=14
 ICtDFT=  3500011 ScaDFX=  1.000000  1.000000  1.000000  1.000000
 FoFCou: FMM=F IPFlag=           0 FMFlag=      100000 FMFlg1=           0
         NFxFlg=           0 DoJE=T BraDBF=F KetDBF=T FulRan=T
         wScrn=  0.000000 ICntrl=       500 IOpCl=  0 I1Cent=   200000004 NGrid=           0
         NMat0=    1 NMatS0=      1 NMatT0=    0 NMatD0=    1 NMtDS0=    0 NMtDT0=    0
 Petite list used in FoFCou.
     Accept linear search using points  3 and  4.
     Accept linear search using points  2 and  3.
     Accept linear search using points  1 and  2.
     Accept linear search using points  1 and  2.
     Accept linear search using points  1 and  2.
     Accept linear search using points  1 and  2.
     Accept linear search using points  1 and  2.
     Accept linear search using points  1 and  2.
     Accept linear search using points  1 and  2.
     Accept linear search using points  1 and  2.
     Accept linear search using points  1 and  2.
     Accept linear search using points  1 and  2.
     Accept linear search using points  1 and  2.
     Accept linear search using points  1 and  2.
     Minimum is close to point  2 DX= -3.62D-03 DF= -3.45D-09 DXR=  3.63D-03 DFR=  1.32D-05 which will be used.
     Minimum is close to point  2 DX=  5.78D-05 DF=  0.00D+00 DXR=  5.78D-05 DFR=  0.00D+00 which will be used.
 SCF Done:  E(RwB97XD) =  -587.922179282     a.u. after   27 cycles
            Convg  =    0.1236D-07                    93 Fock formations.
              S**2 =  0.0000                  -V/T =  2.0068
   1 Symmetry operations used in ECPInt.
 ECPInt:  NShTT=    3081 NPrTT=   12403 LenC2=    3046 LenP2D=    9548.
 LDataN:  DoStor=T MaxTD1= 5 Len=  102
 Calling FoFJK, ICntrl=      2127 FMM=F ISym2X=0 I1Cent= 0 IOpClX= 0 NMat=1 NMatS=1 NMatT=0.

 GradGradGradGradGradGradGradGradGradGradGradGradGradGradGradGradGradGrad
 Using GEDIIS/GDIIS optimizer.
 FormGI is forming the generalized inverse of G from B-inverse, IUseBI=4.
 Internal  Forces:  Max     0.040574495 RMS     0.009431742
 Step number   3 out of a maximum of  100
 All quantities printed in internal units (Hartrees-Bohrs-Radians)
 Mixed Optimization -- RFO/linear search
 Trust test=-2.92D+00 RLast= 7.53D-01 DXMaxT set to 2.52D-01
 ITU= -1  1  0
 Use linear search instead of GDIIS.
     Eigenvalues ---    0.00232   0.00248   0.00253   0.00290   0.01248
     Eigenvalues ---    0.01306   0.01352   0.04108   0.04853   0.04875
     Eigenvalues ---    0.05109   0.05309   0.05964   0.06076   0.06185
     Eigenvalues ---    0.06271   0.08408   0.10877   0.11117   0.11508
     Eigenvalues ---    0.13516   0.13890   0.13956   0.15058   0.15341
     Eigenvalues ---    0.15900   0.16001   0.16107   0.21299   0.22119
     Eigenvalues ---    0.22394   0.24926   0.25692   0.27983   0.28811
     Eigenvalues ---    0.29133   0.30100   0.33900   0.34045   0.34063
     Eigenvalues ---    0.34133   0.34137   0.34176   0.36876   0.41149
     Eigenvalues ---    0.41628   0.50720   0.51483   0.51957   0.86237
     Eigenvalues ---    0.88326
 Quartic linear search produced a step of -0.82199.
 Iteration  1 RMS(Cart)=  0.06742172 RMS(Int)=  0.01561039
 Iteration  2 RMS(Cart)=  0.01572491 RMS(Int)=  0.00064142
 Iteration  3 RMS(Cart)=  0.00049292 RMS(Int)=  0.00043222
 Iteration  4 RMS(Cart)=  0.00000030 RMS(Int)=  0.00043222
 Variable       Old X    -DE/DX   Delta X   Delta X   Delta X     New X
                                 (Linear)    (Quad)   (Total)
    R1        2.65713   0.00063   0.02607  -0.02735  -0.00128   2.65584
    R2        1.80987   0.00694   0.01213  -0.00278   0.00935   1.81922
    R3        2.85584   0.01462   0.01047   0.01711   0.02759   2.88343
    R4        2.10383  -0.00344  -0.01030   0.00239  -0.00791   2.09593
    R5        2.08425  -0.00245  -0.00429   0.00034  -0.00395   2.08030
    R6        2.89980   0.00525  -0.00808   0.02500   0.01693   2.91673
    R7        2.89849   0.00773   0.00019   0.00747   0.00767   2.90615
    R8        2.87676   0.01752  -0.00943   0.02972   0.02029   2.89706
    R9        2.63636   0.00089   0.02349  -0.01683   0.00666   2.64301
   R10        2.09165  -0.00296  -0.00728   0.00293  -0.00435   2.08730
   R11        2.09024  -0.00232  -0.00582   0.00035  -0.00548   2.08476
   R12        1.81432   0.00741   0.01194  -0.00186   0.01007   1.82440
   R13        2.60527   0.00726   0.03671  -0.02419   0.01251   2.61778
   R14        2.11283  -0.00324  -0.01320   0.00415  -0.00906   2.10377
   R15        2.08659  -0.00079  -0.00566   0.00268  -0.00298   2.08362
   R16        1.82920   0.00413   0.00934  -0.00187   0.00747   1.83667
   R17        2.24928   0.04057   0.03201  -0.00609   0.02592   2.27520
   R18        2.26314   0.03929   0.02557  -0.00158   0.02399   2.28714
    A1        1.94882  -0.00237  -0.02863   0.01175  -0.01688   1.93194
    A2        1.89310   0.01389   0.02922  -0.01005   0.01917   1.91227
    A3        1.95682  -0.00649  -0.02503  -0.01474  -0.03947   1.91735
    A4        1.98564  -0.00780  -0.03296   0.01702  -0.01581   1.96983
    A5        1.84912   0.00053   0.01424   0.00717   0.02138   1.87050
    A6        1.87242   0.00153   0.02627   0.00139   0.02741   1.89982
    A7        1.89986  -0.00059  -0.00785  -0.00077  -0.00856   1.89130
    A8        1.91449  -0.00124  -0.00809   0.02102   0.01290   1.92739
    A9        1.97997   0.00191   0.00928  -0.02818  -0.01885   1.96112
   A10        1.91473   0.00023  -0.00157   0.01197   0.01035   1.92508
   A11        1.92428  -0.00086  -0.00383   0.00746   0.00366   1.92793
   A12        1.85603   0.00075  -0.00050  -0.00181  -0.00238   1.85364
   A13        1.86980  -0.00083   0.00435  -0.00953  -0.00514   1.86466
   A14        1.95584   0.00351  -0.00489   0.01956   0.01459   1.97043
   A15        1.86699   0.00403   0.03512  -0.01150   0.02375   1.89073
   A16        1.88272  -0.00159   0.00874  -0.00471   0.00415   1.88688
   A17        1.98344  -0.00457  -0.02380  -0.00324  -0.02723   1.95621
   A18        1.87942  -0.00080  -0.00609  -0.00111  -0.00729   1.87214
   A19        1.89237  -0.00062  -0.00866   0.00046  -0.00794   1.88443
   A20        1.91559  -0.00142  -0.01382   0.01226  -0.00157   1.91402
   A21        1.97304   0.00484   0.01664  -0.01658  -0.00010   1.97295
   A22        1.84828   0.00366   0.02734  -0.01504   0.01206   1.86034
   A23        1.86770   0.00038   0.02089   0.00055   0.02137   1.88908
   A24        2.01053  -0.00527  -0.03900   0.00057  -0.03812   1.97241
   A25        1.86317  -0.00171  -0.01207   0.02754   0.01579   1.87896
   A26        1.89562  -0.00180  -0.01272   0.00346  -0.00850   1.88712
   A27        1.87963   0.00063   0.00016   0.00191   0.00207   1.88170
   A28        2.03640   0.01267   0.03045   0.01323   0.04584   2.08224
   A29        1.97932   0.01761   0.04246   0.00541   0.05004   2.02936
   A30        2.13592  -0.00469   0.03421  -0.00087   0.03550   2.17142
    D1       -2.77942  -0.00012  -0.03216   0.04332   0.01100  -2.76842
    D2        1.46801  -0.00566  -0.05280   0.04931  -0.00370   1.46432
    D3       -0.69734   0.00652  -0.00028   0.04883   0.04893  -0.64841
    D4       -2.92122  -0.00048  -0.04657   0.11334   0.06684  -2.85438
    D5       -0.76092  -0.00117  -0.05110   0.11879   0.06771  -0.69321
    D6        1.32928  -0.00080  -0.04045   0.09646   0.05597   1.38525
    D7       -0.81727  -0.00049  -0.05212   0.09463   0.04245  -0.77481
    D8        1.34304  -0.00118  -0.05666   0.10007   0.04332   1.38636
    D9       -2.84995  -0.00081  -0.04601   0.07774   0.03158  -2.81836
   D10        1.21010  -0.00019  -0.04094   0.09788   0.05707   1.26717
   D11       -2.91278  -0.00088  -0.04548   0.10333   0.05794  -2.85484
   D12       -0.82258  -0.00051  -0.03483   0.08100   0.04620  -0.77638
   D13       -0.97508  -0.00020  -0.00163  -0.01590  -0.01748  -0.99256
   D14        3.12338   0.00040   0.00678  -0.01652  -0.00987   3.11351
   D15        1.09074  -0.00014  -0.00646  -0.00880  -0.01514   1.07560
   D16        3.11555  -0.00116  -0.00508  -0.00009  -0.00512   3.11043
   D17        0.93082  -0.00056   0.00334  -0.00071   0.00248   0.93331
   D18       -1.10182  -0.00109  -0.00990   0.00701  -0.00278  -1.10460
   D19        1.09428  -0.00016  -0.00800   0.00839   0.00041   1.09469
   D20       -1.09045   0.00044   0.00042   0.00777   0.00802  -1.08243
   D21       -3.12309  -0.00010  -0.01283   0.01549   0.00276  -3.12034
   D22        1.17211   0.00093  -0.01261   0.02536   0.01271   1.18482
   D23       -1.04494   0.00166   0.00535   0.04712   0.05252  -0.99243
   D24       -3.06485   0.00180  -0.00399   0.05008   0.04613  -3.01872
   D25       -2.95612   0.00004  -0.01942   0.03808   0.01863  -2.93749
   D26        1.11001   0.00077  -0.00146   0.05984   0.05843   1.16844
   D27       -0.90989   0.00091  -0.01080   0.06280   0.05204  -0.85785
   D28       -0.94351   0.00003  -0.01958   0.03450   0.01484  -0.92867
   D29        3.12262   0.00076  -0.00163   0.05627   0.05464  -3.10592
   D30        1.10272   0.00090  -0.01096   0.05923   0.04825   1.15097
   D31        0.15982  -0.02165  -0.21660  -0.00853  -0.22511  -0.06530
   D32        2.78693   0.02241   0.24787   0.02271   0.27057   3.05751
   D33       -1.90938  -0.02072  -0.20592  -0.03877  -0.24467  -2.15405
   D34        0.71774   0.02334   0.25855  -0.00754   0.25101   0.96875
   D35        2.31612  -0.01970  -0.20339  -0.04178  -0.24518   2.07095
   D36       -1.33994   0.02436   0.26109  -0.01055   0.25051  -1.08943
   D37       -1.52055  -0.00108  -0.03358   0.04504   0.01153  -1.50902
   D38        0.59851   0.00351  -0.00874   0.04233   0.03345   0.63196
   D39        2.69486  -0.00066  -0.03761   0.04012   0.00257   2.69743
   D40       -0.83990  -0.00178   0.05630  -0.07839  -0.02230  -0.86220
   D41        1.28849   0.00298   0.07548  -0.11202  -0.03570   1.25279
   D42       -2.88879  -0.00386   0.02903  -0.08728  -0.05888  -2.94768
         Item               Value     Threshold  Converged?
 Maximum Force            0.040574     0.000015     NO 
 RMS     Force            0.009432     0.000010     NO 
 Maximum Displacement     0.376673     0.000060     NO 
 RMS     Displacement     0.076762     0.000040     NO 
 GradGradGradGradGradGradGradGradGradGradGradGradGradGradGradGradGradGrad

                    Distance matrix (angstroms):
                    1          2          3          4          5
     1  O    0.000000
     2  C    1.405412   0.000000
     3  C    2.395751   1.525845   0.000000
     4  C    3.734590   2.520862   1.543464   0.000000
     5  O    4.293710   2.925179   2.453215   1.398623   0.000000
     6  C    2.746590   2.545373   1.537870   2.531194   3.786693
     7  O    2.605725   3.056265   2.439603   3.766821   4.874815
     8  N    3.083987   2.510278   1.533057   2.460352   2.901096
     9  O    3.005680   2.680127   2.367833   3.395797   3.491852
    10  O    4.193520   3.615441   2.336184   2.792937   3.304886
    11  H    0.962690   1.964202   3.222043   4.465706   4.808794
    12  H    2.064998   1.109116   2.134858   2.597434   3.015963
    13  H    2.095056   1.100846   2.150716   2.852091   2.717714
    14  H    4.530006   3.466189   2.162104   1.104554   2.082723
    15  H    3.924571   2.751508   2.158226   1.103209   2.022158
    16  H    4.799123   3.518353   2.844246   1.948590   0.965430
    17  H    2.924219   2.723787   2.140575   2.785438   4.075256
    18  H    3.815183   3.477024   2.154536   2.659943   3.978188
    19  H    1.804402   2.622288   2.524601   3.999089   4.946525
                    6          7          8          9         10
     6  C    0.000000
     7  O    1.385272   0.000000
     8  N    2.465991   2.812255   0.000000
     9  O    3.368191   3.370530   1.203985   0.000000
    10  O    2.861242   3.258829   1.210301   2.135763   0.000000
    11  H    3.708595   3.486990   3.763716   3.417579   4.931765
    12  H    2.922120   3.666016   3.430556   3.745379   4.418041
    13  H    3.469130   3.924124   2.615303   2.430208   3.760479
    14  H    2.697145   3.933969   2.682276   3.794425   2.510826
    15  H    2.773653   4.101684   3.421840   4.309041   3.814752
    16  H    4.163448   5.150749   2.782792   3.329464   2.939766
    17  H    1.113268   2.089026   3.421917   4.267274   3.883955
    18  H    1.102602   2.015255   2.722475   3.811941   2.625050
    19  H    1.920252   0.971923   2.949236   3.204205   3.691580
                   11         12         13         14         15
    11  H    0.000000
    12  H    2.490727   0.000000
    13  H    2.259847   1.792017   0.000000
    14  H    5.340303   3.625803   3.829204   0.000000
    15  H    4.632483   2.370095   3.260262   1.785777   0.000000
    16  H    5.315812   3.825022   3.190446   2.224143   2.805779
    17  H    3.832220   2.672643   3.772895   3.087381   2.568101
    18  H    4.773347   3.824561   4.283204   2.354497   2.992929
    19  H    2.601828   3.289467   3.459915   4.400902   4.293836
                   16         17         18         19
    16  H    0.000000
    17  H    4.649872   0.000000
    18  H    4.197624   1.794095   0.000000
    19  H    5.291737   2.407959   2.817176   0.000000
 Framework group  C1[X(C4H9NO5)]
 Deg. of freedom    51
                         Standard orientation:                         
 ---------------------------------------------------------------------
 Center     Atomic      Atomic             Coordinates (Angstroms)
 Number     Number       Type             X           Y           Z
 ---------------------------------------------------------------------
      1          8           0       -1.817514   -1.212131    0.720084
      2          6           0       -0.452025   -1.412764    0.454808
      3          6           0        0.095933   -0.224654   -0.330266
      4          6           0        1.446842   -0.587021   -0.982967
      5          8           0        2.401074   -1.017849   -0.055619
      6          6           0       -0.894912    0.282669   -1.391347
      7          8           0       -2.027144    0.862358   -0.842721
      8          7           0        0.377851    0.951135    0.612235
      9          8           0        0.092533    0.853535    1.777845
     10          8           0        0.901763    1.922411    0.115277
     11          1           0       -2.101249   -1.748544    1.467430
     12          1           0       -0.319747   -2.313191   -0.179126
     13          1           0        0.146957   -1.541489    1.369418
     14          1           0        1.796682    0.284597   -1.564287
     15          1           0        1.275379   -1.418991   -1.686882
     16          1           0        2.867225   -0.255117    0.309068
     17          1           0       -1.125765   -0.584016   -2.050839
     18          1           0       -0.387101    1.050130   -1.998687
     19          1           0       -2.378071    0.252710   -0.172040
 ---------------------------------------------------------------------
 Rotational constants (GHZ):           1.6235593           1.2034785           1.0804802
   158 basis functions,   286 primitive gaussians,   168 cartesian basis functions
    40 alpha electrons       40 beta electrons
       nuclear repulsion energy       625.8468098787 Hartrees.
 NAtoms=   19 NActive=   19 NUniq=   19 SFac= 1.00D+00 NAtFMM=   60 NAOKFM=F Big=F
 Nuclear repulsion after empirical dispersion term =      625.8341716286 Hartrees.
   1 Symmetry operations used in ECPInt.
 ECPInt:  NShTT=    3081 NPrTT=   12403 LenC2=    3044 LenP2D=    9519.
 LDataN:  DoStor=T MaxTD1= 4 Len=   56
 Lowest energy guess from the checkpoint file:  "/scratch/user/peterchao1/peterchao1/6097812_1659647584000000577401975/Gau-153065.chk"
 B after Tr=    -0.000000    0.000000   -0.000000
         Rot=    0.997004    0.073939   -0.000543    0.022722 Ang=   8.87 deg.
 B after Tr=    -0.000000   -0.000000    0.000000
         Rot=    0.995285    0.088315    0.032735   -0.023165 Ang=  11.13 deg.
     Accept linear search using points  3 and  4.
     Accept linear search using points  2 and  3.
     Accept linear search using points  1 and  2.
     Accept linear search using points  1 and  2.
     Accept linear search using points  1 and  2.
     Accept linear search using points  2 and  3.
     Accept linear search using points  1 and  2.
     Minimum is close to point  2 DX=  3.91D-03 DF= -6.10D-10 DXR=  3.90D-03 DFR=  1.52D-05 which will be used.
     Accept linear search using points  1 and  2.
     Minimum is close to point  2 DX= -7.40D-05 DF= -3.41D-13 DXR=  7.40D-05 DFR=  4.86D-09 which will be used.
 SCF Done:  E(RwB97XD) =  -587.940449675     a.u. after   13 cycles
            Convg  =    0.2468D-09                    54 Fock formations.
              S**2 =  0.0000                  -V/T =  2.0072
   1 Symmetry operations used in ECPInt.
 ECPInt:  NShTT=    3081 NPrTT=   12403 LenC2=    3044 LenP2D=    9519.
 LDataN:  DoStor=T MaxTD1= 5 Len=  102
 Calling FoFJK, ICntrl=      2127 FMM=F ISym2X=0 I1Cent= 0 IOpClX= 0 NMat=1 NMatS=1 NMatT=0.

 GradGradGradGradGradGradGradGradGradGradGradGradGradGradGradGradGradGrad
 Using GEDIIS/GDIIS optimizer.
 FormGI is forming the generalized inverse of G from B-inverse, IUseBI=4.
 Internal  Forces:  Max     0.009001450 RMS     0.002188902
 Step number   4 out of a maximum of  100
 All quantities printed in internal units (Hartrees-Bohrs-Radians)
 Mixed Optimization -- RFO/linear search
 Trust test= 3.78D-01 RLast= 4.50D-01 DXMaxT set to 2.52D-01
 ITU=  0 -1  1  0
 Use linear search instead of GDIIS.
     Eigenvalues ---    0.00218   0.00246   0.00256   0.00300   0.01079
     Eigenvalues ---    0.01284   0.01352   0.04127   0.04399   0.04741
     Eigenvalues ---    0.04990   0.05137   0.05831   0.05942   0.05965
     Eigenvalues ---    0.06069   0.06969   0.11124   0.11555   0.11909
     Eigenvalues ---    0.13695   0.13970   0.14016   0.15057   0.15729
     Eigenvalues ---    0.15965   0.16012   0.17007   0.21925   0.22095
     Eigenvalues ---    0.24770   0.24940   0.26484   0.28205   0.28775
     Eigenvalues ---    0.29859   0.33748   0.33972   0.34057   0.34119
     Eigenvalues ---    0.34135   0.34171   0.34536   0.38510   0.41457
     Eigenvalues ---    0.41870   0.50721   0.51509   0.52056   0.87211
     Eigenvalues ---    0.88892
 Quartic linear search produced a step of -0.25279.
 Iteration  1 RMS(Cart)=  0.06886822 RMS(Int)=  0.00228616
 Iteration  2 RMS(Cart)=  0.00271212 RMS(Int)=  0.00018441
 Iteration  3 RMS(Cart)=  0.00000390 RMS(Int)=  0.00018438
 Iteration  4 RMS(Cart)=  0.00000000 RMS(Int)=  0.00018438
 Variable       Old X    -DE/DX   Delta X   Delta X   Delta X     New X
                                 (Linear)    (Quad)   (Total)
    R1        2.65584   0.00297   0.00834  -0.01409  -0.00575   2.65009
    R2        1.81922   0.00182   0.00137   0.00079   0.00216   1.82138
    R3        2.88343   0.00275  -0.00375   0.01938   0.01563   2.89906
    R4        2.09593  -0.00104  -0.00117  -0.00072  -0.00189   2.09403
    R5        2.08030   0.00016  -0.00032   0.00047   0.00015   2.08045
    R6        2.91673  -0.00321  -0.00676   0.01019   0.00343   2.92015
    R7        2.90615   0.00476  -0.00188   0.01683   0.01495   2.92110
    R8        2.89706  -0.00386  -0.00803   0.01213   0.00409   2.90115
    R9        2.64301   0.00030   0.00554  -0.01098  -0.00544   2.63757
   R10        2.08730  -0.00027  -0.00114   0.00138   0.00024   2.08755
   R11        2.08476  -0.00048  -0.00041  -0.00093  -0.00133   2.08343
   R12        1.82440   0.00137   0.00112   0.00088   0.00200   1.82640
   R13        2.61778   0.00165   0.00813  -0.01375  -0.00562   2.61216
   R14        2.10377  -0.00064  -0.00177   0.00128  -0.00049   2.10328
   R15        2.08362  -0.00059  -0.00099   0.00055  -0.00044   2.08318
   R16        1.83667   0.00025   0.00098  -0.00071   0.00027   1.83694
   R17        2.27520   0.00537   0.00329   0.00076   0.00405   2.27925
   R18        2.28714   0.00249   0.00180   0.00152   0.00331   2.29045
    A1        1.93194  -0.00008  -0.00454   0.00722   0.00269   1.93463
    A2        1.91227   0.00900   0.00414   0.02383   0.02791   1.94018
    A3        1.91735  -0.00138   0.00228  -0.00545  -0.00340   1.91394
    A4        1.96983  -0.00464  -0.00614  -0.01103  -0.01720   1.95262
    A5        1.87050  -0.00199  -0.00103   0.00498   0.00387   1.87437
    A6        1.89982  -0.00139   0.00115  -0.00372  -0.00250   1.89732
    A7        1.89130   0.00040  -0.00025  -0.00813  -0.00845   1.88285
    A8        1.92739  -0.00227  -0.00575   0.00337  -0.00248   1.92491
    A9        1.96112   0.00514   0.00762   0.01357   0.02120   1.98232
   A10        1.92508  -0.00202  -0.00310  -0.00462  -0.00761   1.91747
   A11        1.92793  -0.00163  -0.00210   0.00157  -0.00066   1.92727
   A12        1.85364   0.00192   0.00045  -0.00501  -0.00455   1.84909
   A13        1.86466  -0.00131   0.00264  -0.01044  -0.00778   1.85689
   A14        1.97043  -0.00131  -0.00519   0.00987   0.00466   1.97509
   A15        1.89073   0.00074   0.00480  -0.00311   0.00169   1.89243
   A16        1.88688  -0.00011   0.00164  -0.00559  -0.00392   1.88296
   A17        1.95621   0.00049  -0.00044   0.00022  -0.00026   1.95595
   A18        1.87214   0.00039  -0.00003  -0.00193  -0.00196   1.87018
   A19        1.88443  -0.00019  -0.00066  -0.00004  -0.00067   1.88376
   A20        1.91402  -0.00066  -0.00386   0.00569   0.00183   1.91585
   A21        1.97295   0.00526   0.00514   0.00655   0.01169   1.98464
   A22        1.86034  -0.00056   0.00536  -0.00435   0.00100   1.86134
   A23        1.88908  -0.00042   0.00102  -0.00289  -0.00188   1.88719
   A24        1.97241  -0.00099  -0.00236   0.00514   0.00285   1.97526
   A25        1.87896  -0.00322  -0.00770  -0.00012  -0.00780   1.87115
   A26        1.88712  -0.00019  -0.00176  -0.00513  -0.00682   1.88029
   A27        1.88170  -0.00142  -0.00047  -0.00478  -0.00526   1.87644
   A28        2.08224  -0.00379  -0.00222  -0.00630  -0.00948   2.07276
   A29        2.02936  -0.00161   0.00041  -0.00566  -0.00622   2.02314
   A30        2.17142   0.00540   0.00155   0.01013   0.01070   2.18212
    D1       -2.76842   0.00059  -0.01267   0.05330   0.04068  -2.72774
    D2        1.46432  -0.00151  -0.01530   0.03635   0.02114   1.48545
    D3       -0.64841   0.00209  -0.01246   0.05807   0.04548  -0.60293
    D4       -2.85438  -0.00146  -0.03122  -0.02388  -0.05519  -2.90958
    D5       -0.69321  -0.00155  -0.03283  -0.00951  -0.04235  -0.73556
    D6        1.38525  -0.00122  -0.02659  -0.01697  -0.04359   1.34166
    D7       -0.77481   0.00071  -0.02676  -0.01436  -0.04112  -0.81593
    D8        1.38636   0.00062  -0.02838   0.00001  -0.02827   1.35809
    D9       -2.81836   0.00095  -0.02213  -0.00745  -0.02951  -2.84787
   D10        1.26717  -0.00062  -0.02702  -0.02319  -0.05028   1.21689
   D11       -2.85484  -0.00071  -0.02863  -0.00882  -0.03744  -2.89228
   D12       -0.77638  -0.00038  -0.02239  -0.01628  -0.03867  -0.81505
   D13       -0.99256   0.00250   0.00392   0.03959   0.04347  -0.94908
   D14        3.11351   0.00224   0.00458   0.03475   0.03926  -3.13041
   D15        1.07560   0.00213   0.00184   0.03945   0.04125   1.11686
   D16        3.11043  -0.00131  -0.00027   0.01863   0.01842   3.12884
   D17        0.93331  -0.00158   0.00040   0.01379   0.01421   0.94752
   D18       -1.10460  -0.00168  -0.00234   0.01850   0.01620  -1.08840
   D19        1.09469  -0.00001  -0.00256   0.03292   0.03038   1.12507
   D20       -1.08243  -0.00027  -0.00190   0.02808   0.02617  -1.05626
   D21       -3.12034  -0.00038  -0.00464   0.03278   0.02816  -3.09217
   D22        1.18482   0.00172  -0.00709   0.11912   0.11194   1.29676
   D23       -0.99243  -0.00007  -0.01163   0.11143   0.09975  -0.89268
   D24       -3.01872   0.00065  -0.01289   0.12105   0.10810  -2.91062
   D25       -2.93749   0.00128  -0.01068   0.13450   0.12382  -2.81368
   D26        1.16844  -0.00051  -0.01522   0.12681   0.11163   1.28007
   D27       -0.85785   0.00021  -0.01648   0.13643   0.11997  -0.73788
   D28       -0.92867   0.00199  -0.00977   0.12359   0.11385  -0.81482
   D29       -3.10592   0.00020  -0.01431   0.11591   0.10166  -3.00426
   D30        1.15097   0.00092  -0.01557   0.12552   0.11001   1.26098
   D31       -0.06530  -0.00255  -0.00971  -0.02853  -0.03830  -0.10359
   D32        3.05751  -0.00288   0.00783  -0.13089  -0.12305   2.93446
   D33       -2.15405   0.00013  -0.00148  -0.02709  -0.02861  -2.18266
   D34        0.96875  -0.00020   0.01606  -0.12944  -0.11336   0.85539
   D35        2.07095   0.00169  -0.00057  -0.02130  -0.02187   2.04908
   D36       -1.08943   0.00136   0.01697  -0.12365  -0.10662  -1.19605
[...]
 91,0.02651666,0.04137401,0.53768095,-0.00169648,-0.00858883,-0.0021877
 4,0.00778967,-0.00289216,0.01423355,-0.01649917,0.02835321,-0.08763855
 ,0.00803271,0.06534655,0.52982075,0.00048261,-0.00093896,-0.00028048,0
 .00061815,0.00078448,0.00112418,0.00334189,-0.00286144,0.00063745,-0.1
 2359808,-0.00781375,0.08572031,0.57741663,0.00018192,-0.00039630,0.001
 85728,-0.00068956,0.00081603,-0.00263574,-0.01284157,0.00525158,0.0322
 4411,-0.01582404,-0.07161473,0.00311161,0.15105272,0.10394465,0.000119
 92,0.00219275,0.00162673,-0.00163723,-0.00353625,-0.00221335,0.0115445
 5,0.01096644,-0.04044815,0.04012153,-0.01787909,-0.25323001,-0.0694703
 9,0.00708658,0.38103065,-0.00098800,0.00048892,-0.00087726,0.00722495,
 0.00028700,-0.01359187,-0.08942717,0.00465807,0.02048592,0.00646698,-0
 .00560292,-0.00586715,0.00001209,0.00265516,-0.00388657,0.59630872,0.0
 0195943,0.00291866,0.01010158,0.00710357,0.00259288,-0.03627308,0.0049
 3270,-0.08552961,-0.02044772,-0.01034030,0.00421283,0.02599603,0.00108
 488,-0.00563182,0.00493717,0.03149825,0.62274387,-0.00033922,0.0045742
 2,-0.00785548,0.00087363,-0.01293456,-0.01788041,0.01478634,-0.0227314
 7,-0.14330039,0.00076269,0.00787590,-0.02212780,-0.00089992,-0.0011281
 1,0.00348526,0.04395935,0.02692640,0.46718912,0.00443503,-0.00165781,-
 0.00164337,-0.00094821,-0.00001307,0.00030939,0.00570796,-0.00466282,0
 .00148237,-0.00091074,0.00055076,0.00161723,0.00076649,-0.00037809,0.0
 0076944,-0.09796812,0.03157893,-0.04783775,0.15785999,-0.00254302,0.00
 155306,-0.01760405,-0.00018405,-0.01015010,0.00387938,-0.00245913,-0.0
 0486439,0.01821919,0.00000617,0.00232219,-0.00115304,-0.00045823,-0.00
 056348,0.00268619,0.05250585,-0.21617083,0.09487855,0.05786640,0.60088
 254,-0.00264340,-0.00878316,-0.01031857,0.00060835,-0.00050332,0.00499
 062,-0.01059500,0.04019640,-0.03275726,0.00372484,-0.00687196,-0.00341
 393,0.00034768,0.00364244,-0.00455244,-0.05149241,0.06462852,-0.147275
 27,0.14914870,0.03034792,0.30374310,-0.00499684,0.00708002,-0.00114997
 ,-0.02585303,-0.01396477,-0.00241796,-0.09793663,-0.00447904,-0.008283
 92,-0.01685055,0.02007428,-0.01288737,-0.00459887,-0.00219668,0.008746
 63,-0.02019138,0.00024490,0.03016459,-0.00179525,0.00725085,-0.0085276
 0,0.73022225,0.01371270,-0.00421937,0.00423367,-0.03721006,0.01269242,
 -0.00223656,-0.00047242,-0.08978928,0.00700527,0.03852360,-0.00077518,
 -0.00368609,-0.00675542,0.00066368,-0.00228502,0.00149896,0.00727920,-
 0.00475495,0.00424438,-0.00805378,-0.00113076,0.03496905,1.10437349,0.
 00222085,-0.00111844,0.00066433,-0.01918790,0.00528822,0.00015127,0.00
 009406,-0.00021228,-0.11013263,-0.02476325,0.00259030,0.00296684,0.001
 57847,-0.00256667,-0.00137919,0.05015439,-0.00892812,0.00119252,-0.003
 57570,0.00143302,0.00267353,-0.00231914,0.06076878,0.27426777,-0.00752
 280,-0.00702455,0.00037170,0.00065689,0.00211767,0.00191540,-0.0156215
 8,0.04529474,0.00058316,-0.00879875,-0.00272967,0.00599096,0.00222810,
 -0.00060095,-0.00233760,-0.00330451,0.00289538,-0.00483847,0.00208004,
 -0.00220401,0.00156561,-0.25041770,0.20295819,0.01296971,0.24030053,-0
 .01529230,0.00244550,-0.00111451,0.00092835,-0.00976686,0.00221312,0.0
 1955507,-0.01700328,-0.00679675,0.00232208,0.00081790,-0.00215088,0.00
 064302,0.00187455,0.00167539,0.00339038,-0.00609991,0.00705538,-0.0039
 1197,0.00606337,0.00000014,0.20210816,-0.52733998,-0.03416422,-0.21461
 258,0.67762596,0.00084063,0.00161429,0.00280773,0.00048793,0.00014607,
 -0.00181630,-0.00132774,-0.00598028,0.02483745,0.00281901,0.00131263,-
 0.00183814,-0.00044111,0.00067927,0.00116486,-0.00583654,0.00351736,-0
 .00326743,0.00248897,-0.00204844,-0.00105248,0.01767179,-0.03304233,-0
 .07777776,-0.01543346,0.04749124,0.03200332,0.00119744,-0.00226930,0.0
 0080723,-0.00949130,0.00584193,0.00174605,-0.02995551,-0.04287767,-0.0
 0379393,-0.00542488,-0.00356226,0.00367455,0.00209399,0.00069272,-0.00
 242926,-0.00284200,-0.00063468,-0.00654937,0.00094924,-0.00092185,0.00
 247131,-0.32317020,-0.24090883,-0.01342770,0.05296158,-0.00037050,-0.0
 0157892,0.32041411,-0.00500393,0.00154221,-0.00065711,-0.00014510,-0.0
 0129638,0.00093514,-0.01975790,-0.00613802,-0.00084752,0.00129904,-0.0
 0597128,0.00379207,0.00456265,0.00093758,-0.00071673,0.00007750,-0.002
 39299,-0.00414244,-0.00064555,0.00230148,0.00180029,-0.24257118,-0.463
 34341,-0.02375767,-0.02958054,-0.13765070,-0.01323065,0.28494510,0.600
 72028,-0.00068799,0.00041926,-0.00060645,0.00106303,-0.00252106,0.0007
 7857,0.00030771,0.00088117,0.02253670,0.00330099,0.00050706,-0.0031301
 7,-0.00415894,0.00062947,0.00004456,-0.00443158,-0.00040261,-0.0019373
 7,0.00020122,-0.00007977,0.00036418,-0.01864795,-0.02941589,-0.0807753
 2,-0.00089727,-0.00975995,0.02541983,0.02308374,0.03847382,0.03338033,
 -0.45528613,0.11023332,0.01920601,-0.00713982,0.00528034,-0.00140100,0
 .00126900,-0.00100811,0.00148097,-0.00094895,-0.00038790,-0.00054482,-
 0.00038296,-0.00027139,0.00010832,-0.00053533,0.00090859,-0.00083656,-
 0.00058722,-0.00159037,-0.00083784,0.00644556,-0.01028214,-0.00123070,
 -0.00980420,0.00513275,0.00043200,-0.00023846,0.00579257,0.00062880,0.
 46379478,0.06837802,-0.05322894,0.01478944,0.04137218,-0.01446078,0.00
 163306,0.00172095,0.00051285,-0.00069792,-0.00006935,-0.00055717,0.000
 89587,-0.00006178,0.00019223,-0.00063476,0.00043996,-0.00103803,-0.000
 47162,-0.00086361,0.00029113,0.00093435,0.00071832,-0.01220947,-0.0009
 6440,0.00054924,0.00651391,-0.00010883,0.00088842,0.00455454,0.0004248
 3,-0.11312447,0.07204308,0.04571183,0.00601501,-0.02784924,-0.02572199
 ,0.00992315,0.00059313,0.00126509,0.00058709,0.00000102,-0.00022772,-0
 .00018933,0.00057704,0.00028689,-0.00029035,-0.00053221,0.00094502,-0.
 00209319,0.00151236,-0.00217618,0.00224461,-0.00047993,-0.00119282,0.0
 0060914,0.00042105,-0.00032474,-0.00119387,-0.00338940,0.00032873,-0.0
 0043401,0.00053957,-0.02126236,-0.01753629,0.03320551,-0.00058470,0.00
 505432,-0.00255694,-0.31694811,0.03688950,-0.00787101,-0.01407626,0.00
 176821,0.00056177,-0.00051126,0.00133648,-0.00027373,0.00038980,-0.000
 44122,0.00015912,0.00006630,0.00094244,0.00096939,0.00034208,-0.000318
 86,-0.00027445,0.00078730,-0.00059874,-0.00118927,-0.00001563,-0.00070
 623,-0.00009355,-0.00118183,-0.00096256,0.00007944,0.00210403,-0.00018
 792,-0.00085085,0.33509973,0.03705203,-0.01572511,0.00700962,0.0296546
 5,-0.05127875,-0.00155553,-0.02390074,0.00372837,-0.00063402,-0.001867
 59,0.00018825,-0.00014532,0.00043812,-0.00005041,0.00003848,-0.0002241
 9,0.00080433,0.00099979,0.00016340,0.00033562,-0.00008997,-0.00057154,
 -0.00451538,-0.00337782,-0.00031698,0.00074235,0.00011901,-0.00262726,
 -0.00049958,0.00055080,0.00026734,-0.00471438,0.00434003,-0.04290171,0
 .07180900,-0.02190211,0.00959968,-0.00131252,-0.00028942,-0.00148810,-
 0.05287053,-0.01693403,0.00055090,-0.00145100,0.00035752,0.00119408,0.
 00045827,-0.00036344,0.00028452,-0.00018520,-0.00121510,0.00090683,0.0
 0058417,0.00043283,-0.00036053,-0.00017733,0.00032342,-0.00472727,-0.0
 0140780,0.00028569,0.00088972,0.00078490,-0.00142738,0.00004095,0.0003
 1589,-0.00053523,0.00331697,-0.00181783,0.01257414,-0.00636519,0.05243
 603,0.00672350,0.00037054,-0.00752969,-0.08949401,0.01164404,0.0891649
 0,0.00392976,-0.00428519,-0.01510871,0.00012982,0.00057967,0.00012810,
 -0.00047698,-0.00001792,0.00021538,-0.00133237,-0.00244332,-0.00018181
 ,0.00001604,0.00033228,0.00038815,0.00157568,-0.00006329,-0.00137513,-
 0.00080693,0.00048403,-0.00018518,0.00015646,0.00005232,0.00016126,0.0
 0065436,-0.00065469,-0.00141945,-0.00728802,0.00408049,0.02816040,0.08
 549710,-0.00935655,-0.00778620,0.04021092,0.01264311,-0.05376555,-0.03
 018700,0.00889351,-0.00213729,-0.02542698,0.00114515,0.00107330,-0.001
 91106,-0.00063090,0.00023575,0.00147582,-0.00319534,-0.00566985,-0.000
 12770,0.00004178,0.00192528,0.00045149,0.00214226,-0.00058588,0.000027
 87,-0.00002287,0.00122496,0.00006343,-0.00033527,-0.00011076,0.0001909
 8,-0.00201682,0.00141201,-0.00018891,0.00046114,0.00076997,-0.00382046
 ,-0.00929833,0.06486635,0.00166592,0.01125051,-0.01584244,0.08445661,-
 0.02757983,-0.27499703,0.00541520,-0.00467993,-0.01344185,-0.00001252,
 -0.00007932,-0.00173685,-0.00015437,0.00184639,0.00071593,-0.00174861,
 -0.00237539,0.00011681,-0.00010424,0.00004347,-0.00000625,0.00174894,-
 0.00199846,-0.00000981,-0.00042018,0.00125219,0.00101268,0.00000083,0.
 00054497,-0.00006917,0.00136103,0.00051215,-0.00006274,-0.00126703,-0.
 00027313,0.00460208,-0.09134876,0.02149726,0.29915770,0.00058742,0.000
 68389,0.00011820,-0.00132597,-0.00019067,-0.00105242,0.00308252,0.0097
 9966,0.00278048,-0.08016099,-0.07007844,-0.04250771,0.00572528,0.01288
 975,0.01528999,0.00049446,-0.00040710,0.00051576,-0.00022744,0.0001419
 3,0.00010489,0.00086429,0.00062802,0.00042829,0.00004030,-0.00077482,0
 .00011286,-0.00233776,0.00086625,-0.00046616,0.00013143,-0.00011097,0.
 00001075,0.00047897,0.00015780,0.00005174,0.00000763,-0.00002077,-0.00
 000304,0.07615665,-0.00022312,-0.00267185,-0.00000862,0.00306445,-0.00
 064402,0.00391044,-0.01023069,-0.02504893,-0.01146114,-0.06458919,-0.2
 2283665,-0.10494543,0.00381959,0.00798263,0.00007311,-0.00016011,-0.00
 051149,-0.00239946,0.00026165,0.00095725,0.00048351,-0.00304317,-0.004
 05570,-0.00023103,0.00056657,0.00174312,-0.00001014,-0.00012553,0.0034
 3256,0.00007092,-0.00045777,0.00002834,-0.00002392,0.00000252,0.000187
 14,0.00017330,-0.00006679,0.00011574,-0.00016350,0.06989510,0.23632340
 ,0.00031037,0.00152477,0.00024359,-0.00153665,0.00119378,-0.00230066,0
 .00464369,0.01331144,0.00797282,-0.03722482,-0.10267445,-0.11376840,-0
 .00061733,-0.02604063,-0.03322683,0.00032041,0.00191891,0.00084050,0.0
 0008424,-0.00037155,0.00004755,0.00027241,-0.00037522,0.00019403,-0.00
 020130,0.00007909,0.00010052,-0.00112998,0.00074476,-0.00013894,0.0001
 1886,-0.00009020,-0.00005139,-0.00001181,-0.00000561,-0.00010584,-0.00
 004511,0.00022852,0.00019257,0.03878286,0.11244179,0.13878996,0.000745
 69,-0.00002415,-0.00005927,-0.00061181,-0.00167562,0.00010585,-0.00893
 007,0.00035102,-0.00191487,-0.31371231,0.00644438,-0.03070530,-0.01294
 603,-0.00262965,0.00786721,-0.00081730,0.00036756,0.00052617,0.0006168
 7,-0.00013166,-0.00016074,0.00064724,-0.00083890,-0.00087312,-0.000439
 29,0.00088172,0.00025600,-0.00002188,0.00098601,-0.00008308,-0.0001118
 7,-0.00030619,0.00004927,0.00086971,0.00007397,0.00028207,0.00005700,-
 0.00002713,-0.00009807,-0.00559896,0.00089135,-0.00122621,0.33895283,-
 0.00061121,0.00083474,-0.00036816,0.00157860,-0.00038068,0.00027804,0.
 02885210,-0.00161924,0.00459302,0.00483556,-0.05317700,-0.00196308,-0.
 00243342,0.00212662,0.00130071,0.00039592,0.00031304,-0.00086870,-0.00
 042825,-0.00015162,0.00006257,-0.00225098,-0.00620036,0.00412909,0.002
 32918,-0.00061638,-0.00096574,-0.00024761,0.00177935,-0.00082073,0.000
 35221,0.00025740,-0.00002268,-0.00051068,-0.00135976,0.00015278,-0.000
 05195,-0.00006978,-0.00019760,-0.02501052,0.00342681,-0.00198832,-0.00
 670158,0.05374033,0.00022384,-0.00002231,-0.00015421,-0.00010834,-0.00
 064028,0.00049008,-0.01374624,-0.00208619,0.00058666,-0.04168863,-0.00
 018079,-0.05371163,0.04376598,0.00340889,-0.00618906,-0.00081175,-0.00
 017106,0.00010944,0.00047664,-0.00010816,-0.00002864,-0.00016214,0.001
 14528,-0.00200818,-0.00121022,0.00119049,0.00034128,-0.00086813,0.0009
 1627,0.00041658,-0.00016938,-0.00019491,-0.00000570,0.00025426,0.00018
 509,0.00031756,0.00011266,0.00018863,-0.00005606,-0.01445552,0.0021345
 4,0.00068016,0.02422988,-0.00440037,0.06548351,-0.00014634,0.00052712,
 -0.00005942,-0.00034568,-0.00026163,-0.00020158,0.00082415,0.00025250,
 -0.00151454,-0.01888731,-0.00444119,-0.00101540,-0.45149303,-0.1319568
 6,-0.00512315,-0.00067226,0.00029408,0.00010257,0.00001041,0.00040799,
 -0.00047536,0.00334468,0.00274562,-0.00127918,-0.00049882,-0.00138042,
 0.00023431,-0.00289193,-0.00115999,0.00000929,0.00026670,0.00005885,-0
 .00004900,-0.00002712,-0.00003133,0.00001547,-0.00000128,-0.00033881,0
 .00004374,0.00188674,0.00018833,-0.00248357,0.00073151,0.00010780,0.00
 390209,0.46781021,0.00016229,0.00023356,-0.00020736,0.00013515,-0.0005
 8534,0.00027592,-0.00234157,-0.00026391,-0.00010864,0.00259655,-0.0006
 1107,-0.00173267,-0.14080491,-0.04645278,-0.00599842,0.00024437,0.0000
 8710,0.00077798,0.00014733,0.00011619,-0.00041623,-0.00005778,-0.00234
 183,0.00231540,0.00003792,-0.00025287,0.00005665,0.00104893,0.00038649
 ,-0.00062170,-0.00016466,-0.00024639,0.00008585,0.00019220,0.00005558,
 -0.00016202,-0.00034005,-0.00013661,0.00000472,0.00177023,0.00117115,-
 0.00006157,0.00235821,0.00081725,-0.00205786,0.13513537,0.04817515,-0.
 00029943,-0.00035371,-0.00000399,0.00020630,0.00013220,0.00010397,0.00
 157352,0.00007193,-0.00020203,0.04567433,0.01322515,-0.00524044,-0.056
 54828,-0.02224246,-0.04687566,-0.00010886,0.00012879,-0.00060632,-0.00
 026970,-0.00021609,0.00027700,0.00147040,0.00877538,-0.00050238,0.0003
 5445,-0.00324150,-0.00098721,-0.00217640,-0.00423019,0.00126720,0.0002
 5243,0.00038236,0.00005881,-0.00012733,-0.00009224,-0.00007071,-0.0001
 2046,0.00007041,0.00005354,0.00049740,-0.00089833,0.00095394,0.0019504
 7,0.00047475,-0.00554440,0.00772261,0.00797788,0.05725880,0.00055629,0
 .00028920,0.00084461,-0.00005983,-0.00033586,-0.00140252,-0.01202695,-
 0.00057378,0.00108067,-0.00089853,0.00048879,-0.00050568,0.00068020,-0
 .00017520,0.00022809,-0.29000130,0.01586634,0.01100363,-0.00421110,0.0
 1410513,-0.00782035,0.00131392,-0.00027684,0.00171087,-0.00016787,0.00
 024892,0.00005528,-0.00023529,0.00014008,0.00002595,-0.00011070,-0.000
 32132,-0.00035879,0.00057675,0.00038112,0.00037459,0.00031412,-0.00016
 241,0.00008803,-0.00011795,0.00000597,0.00021888,0.00068056,-0.0002492
 7,0.00032364,-0.00000276,0.00008067,-0.00024395,0.31411289,-0.00054216
 ,-0.00006761,-0.00079355,0.00102402,-0.00024764,0.00066791,0.00673086,
 0.00084150,-0.00456562,0.00010778,-0.00005831,0.00033770,-0.00009061,0
 .00000839,-0.00034489,0.01319761,-0.05651819,-0.00214723,0.03378091,-0
 .01126260,0.00923834,-0.00157228,-0.00070323,-0.00126680,-0.00008122,0
 .00028735,0.00033857,0.00041526,0.00093142,0.00082004,0.00002858,0.000
 12216,0.00031414,-0.00021110,-0.00006680,-0.00035836,-0.00013143,0.000
 17761,0.00002760,-0.00009769,0.00003052,-0.00025302,-0.00015449,0.0002
 1601,0.00050933,-0.00004569,-0.00006498,0.00003663,-0.02963226,0.05932
 597,-0.00032542,-0.00036119,0.00078716,0.00073972,0.00085121,0.0013036
 8,0.03330049,-0.00298546,-0.00419438,0.00064365,-0.00012940,0.00059248
 ,-0.00063949,0.00000978,0.00029250,0.01068393,-0.00418985,-0.05078764,
 -0.02619122,0.01324500,-0.00188774,-0.00262032,0.00004995,-0.00917944,
 0.00165337,-0.00161426,0.00178494,0.00155306,0.00088046,0.00137860,0.0
 0032364,0.00019189,-0.00029399,-0.00054927,-0.00042499,-0.00046362,-0.
 00016290,0.00037172,0.00021226,-0.00011816,0.00016612,0.00005107,-0.00
 024238,0.00041042,-0.00078039,0.00011564,-0.00019504,0.00027232,-0.005
 86461,-0.00541118,0.05923836,-0.00016064,-0.00005272,-0.00002682,-0.00
 046394,-0.00045884,0.00160103,0.00323241,0.00869180,0.00677886,0.00012
 977,-0.00012480,-0.00073586,-0.00015025,0.00032959,0.00012772,-0.10686
 459,-0.09981295,-0.04783733,0.00844817,0.01414656,0.00451543,0.0017188
 7,0.00165696,-0.00006933,-0.00023668,-0.00009923,0.00016872,-0.0003958
 7,-0.00032661,0.00016088,0.00007616,-0.00000888,-0.00007940,0.00031490
 ,0.00012595,0.00024712,0.00051649,0.00026389,0.00033510,0.00033342,0.0
 0020519,-0.00032454,0.00004714,-0.00008041,0.00000098,0.00006753,-0.00
 008893,0.00004630,-0.01057985,-0.02431983,-0.01274444,0.10350141,-0.00
 007548,-0.00009003,-0.00088856,0.00068115,0.00065578,-0.00032194,-0.00
 118779,-0.00259688,-0.00325119,0.00052428,0.00020610,0.00154088,0.0002
 1386,0.00023303,0.00006891,-0.09127196,-0.22171942,-0.08344061,-0.0074
 2323,-0.03456845,-0.00415504,-0.00163977,-0.00211456,-0.00045532,0.000
 09864,0.00088741,0.00004898,0.00077638,0.00131537,0.00065684,-0.000244
 36,0.00008916,0.00028688,-0.00008001,0.00003293,-0.00000712,-0.0002545
 3,-0.00008730,-0.00008369,-0.00011854,0.00042598,0.00031857,0.00011269
 ,0.00001969,0.00012763,-0.00001324,-0.00002656,-0.00007122,0.00107438,
 0.00519497,0.00096748,0.09723598,0.25367874,0.00044602,-0.00007087,0.0
 0177158,0.00301645,0.00193004,-0.00600368,-0.01330475,-0.02447160,-0.0
 1456626,-0.00024247,-0.00254190,0.00007003,0.00009849,0.00069061,0.000
 56182,-0.04595369,-0.09096410,-0.09196149,0.00834930,0.02679451,0.0086
 1502,-0.00292797,-0.00261234,0.00083755,0.00037497,0.00056443,-0.00010
 748,0.00071997,0.00171957,0.00042028,-0.00016365,-0.00002928,-0.000228
 36,0.00008522,0.00025902,0.00015416,-0.00070515,-0.00168261,-0.0006984
 9,-0.00008040,0.00134672,-0.00066773,0.00004506,0.00010484,-0.00004158
 ,0.00005611,-0.00010428,-0.00010886,0.00190870,0.00222425,0.00250063,0
 .04938574,0.08353472,0.10189487,-0.00582401,0.00008103,-0.00123586,0.0
 0076982,0.00073364,-0.00051383,0.00165935,0.00009662,-0.00243734,0.000
 31680,-0.00059350,0.00028514,-0.00010902,0.00022128,-0.00041372,0.0043
 7081,0.01396131,0.00565629,-0.07458425,-0.13595200,-0.08004781,-0.0011
 0933,-0.00353082,0.00013378,-0.00063269,0.00145356,-0.00067101,0.00041
 408,0.00143185,0.00035066,0.00040362,0.00158323,0.00506573,-0.00039667
 ,0.00004646,-0.00043830,-0.00017839,-0.00018563,0.00004141,-0.00002005
 ,-0.00000437,0.00004959,-0.00015902,0.00012449,-0.00006963,0.00002460,
 -0.00011132,0.00014621,0.00017741,0.00159373,0.00044470,0.00046553,0.0
 0159155,-0.00110794,0.07441140,0.00130536,-0.00875467,0.00147850,-0.00
 119915,0.00602140,0.00186767,-0.00055788,0.00218543,-0.00105983,0.0003
 5694,-0.00120790,-0.00020535,0.00025010,0.00044281,-0.00110640,-0.0108
 8344,-0.03966978,-0.00794138,-0.10865114,-0.33096285,-0.12983555,-0.00
 224064,0.00123862,0.00049010,0.00032584,-0.00149640,-0.00000108,0.0002
 7204,-0.00049818,-0.00000347,0.00155230,0.00043834,-0.00243337,0.00027
 220,-0.00044335,0.00017931,0.00006410,-0.00145173,0.00045157,-0.000023
 12,-0.00005599,0.00009895,0.00002247,0.00004359,0.00005578,-0.00008849
 ,-0.00006012,0.00007027,-0.00095369,0.00185347,-0.00183267,0.00271731,
 -0.00153595,0.00330826,0.11745890,0.37391326,0.00128456,-0.00169916,0.
 00638460,-0.00217652,0.00887326,-0.00729135,0.00157036,0.00147044,0.00
 127583,-0.00062385,0.00007177,-0.00069530,0.00001428,-0.00058701,-0.00
 009022,0.00927237,0.02678354,0.01196943,-0.08356217,-0.17183020,-0.118
 76119,0.00073899,0.00367741,-0.00019638,-0.00040179,-0.00237525,-0.000
 02132,-0.00100440,-0.00183199,-0.00020487,0.00306948,-0.00235271,-0.00
 219768,0.00038189,-0.00053803,0.00020930,-0.00014851,-0.00143235,0.000
 85713,-0.00000982,-0.00065886,0.00019307,0.00005106,0.00008916,0.00009
 458,-0.00000065,0.00017140,-0.00010359,-0.00166702,0.00062612,-0.00082
 679,-0.00155017,0.00512379,-0.00244200,0.07476192,0.13641869,0.1118467
 5\\-0.00000127,0.00000027,0.00000171,-0.00000089,0.00000032,0.00000149
 ,-0.00000041,0.00000007,-0.00000070,0.00000078,-0.00000021,-0.00000079
 ,-0.00000096,-0.00000130,-0.00000070,0.00000184,-0.00000015,0.00000077
 ,0.00000064,0.00000219,0.,-0.00000057,-0.00000080,-0.00000067,-0.00000
 027,-0.00000210,-0.00000068,0.00000108,-0.00000080,-0.00000203,-0.0000
 0166,-0.00000025,0.00000115,-0.00000100,0.00000069,0.00000151,-0.00000
 193,-0.00000091,0.00000090,0.00000115,0.,-0.00000121,0.00000036,0.0000
 0036,0.00000013,0.,-0.00000202,-0.00000159,0.00000098,0.00000204,0.000
 00055,0.00000192,0.00000118,-0.00000085,0.00000021,0.00000139,0.000000
 98\\\@


 EVERYBODY NEEDS BEAUTY AS WELL AS BREAD, PLACES TO PLAY IN AND PRAY IN,
 WHERE NATURE MAY HEAL AND CHEER AND GIVE STRENGTH TO BODY AND SOUL ALIKE.

                                    -- JOHN MUIR
 Job cpu time:       0 days  0 hours  9 minutes 15.8 seconds.
 Elapsed time:       0 days  0 hours  2 minutes 19.9 seconds.
 File lengths (MBytes):  RWF=     66 Int=      0 D2E=      0 Chk=      3 Scr=      1
 Normal termination of Gaussian 16 at Thu Aug  4 16:39:58 2022.
real 1613.24
user 6045.54
sys 25.00
