You are running Q-Chem version: 5.3.2

#
# job setting
#
local host:  tnxt-0725.cluster
current dir: /scratch/user/peterli3819/peterli3819/12613579_1663277319000000514311623
input file:  qchem_test.inp
output file: 
nprocs     : 0
nthreads   : 8
#
# qchem installation setting
#
QC:          /sw/restricted/qchem/sw/5.3.2
QCAUX:       /sw/restricted/qchem/sw/5.3.2/qcaux
QCPROG:      /sw/restricted/qchem/sw/5.3.2/exe/qcprog.exe_s
QCPROG_S:    /sw/restricted/qchem/sw/5.3.2/exe/qcprog.exe_s
PARALLEL:    -DSERIAL
QCMPI:       seq
#
# qchem directory setting
#
qcrun:       qchem28990
QCSCRATCH:   /scratch/user/peterli3819/peterli3819/12613579_1663277319000000514311623
QCLOCALSCR:  
QCTMPDIR:    /scratch/user/peterli3819/peterli3819/12613579_1663277319000000514311623
QCFILEPREF:  /scratch/user/peterli3819/peterli3819/12613579_1663277319000000514311623/qchem28990
QCSAVEDIR:   
workdirs:    /scratch/user/peterli3819/peterli3819/12613579_1663277319000000514311623/qchem28990
workdir0:    /scratch/user/peterli3819/peterli3819/12613579_1663277319000000514311623/qchem28990
partmpdirs =  
#
# parallel setting
#
QCRSH:           ssh
QCMPI:           seq
QCMPIRUN:        
QCMACHINEFILE:   /scratch/user/peterli3819/peterli3819/12613579_1663277319000000514311623/qchem28990/hostfile

#
# env setting
#
exported envs:   QC QCAUX QCSCRATCH QCRUNNAME QCFILEPREF QCPROG QCPROG_S GUIFILE

Running Job 1 of 1 qchem_test.inp
qchem qchem_test.inp_28990.0 /scratch/user/peterli3819/peterli3819/12613579_1663277319000000514311623/qchem28990/ 0
/sw/restricted/qchem/sw/5.3.2/exe/qcprog.exe_s qchem_test.inp_28990.0 /scratch/user/peterli3819/peterli3819/12613579_1663277319000000514311623/qchem28990/
                  Welcome to Q-Chem
     A Quantum Leap Into The Future Of Chemistry


 Q-Chem 5.3, Q-Chem, Inc., Pleasanton, CA (2020)

 License issued to: MRG Daniel Tabor and Mike Hall, Texas A&M University

 Yihan Shao,  Zhengting Gan,  E. Epifanovsky,  A. T. B. Gilbert,  M. Wormit,  
 J. Kussmann,  A. W. Lange,  A. Behn,  Jia Deng,  Xintian Feng,  D. Ghosh,  
 M. Goldey,  P. R. Horn,  L. D. Jacobson,  I. Kaliman,  T. Kus,  A. Landau,  
 Jie Liu,  E. I. Proynov,  R. M. Richard,  R. P. Steele,  E. J. Sundstrom,  
 H. L. Woodcock III,  P. M. Zimmerman,  D. Zuev,  B. Alam,  B. Albrecht,  
 A. Aldossary,  E. Alguire,  S. A. Baeppler,  D. Barton,  Z. Benda,  
 Y. A. Bernard,  E. J. Berquist,  K. B. Bravaya,  H. Burton,  K. Carter-Fenk,  
 D. Casanova,  Chun-Min Chang,  Yunqing Chen,  A. Chien,  K. D. Closser,  
 M. P. Coons,  S. Coriani,  S. Dasgupta,  A. L. Dempwolff,  M. Diedenhofen,  
 Hainam Do,  R. G. Edgar,  Po-Tung Fang,  S. Faraji,  S. Fatehi,  
 Qingguo Feng,  J. Fosso-Tande,  J. Gayvert,  Qinghui Ge,  A. Ghysels,  
 G. Gidofalvi,  J. Gomes,  J. Gonthier,  S. Gulania,  A. Gunina,  D. Hait,  
 M. W. D. Hanson-Heine,  S. Hammes-Schiffer,  P. H. P. Harbach,  
 A. W. Hauser,  M. F. Herbst,  J. E. Herr,  E. G. Hohenstein,  Z. C. Holden,  
 S. Houck,  Kerwin Hui,  B. C. Huynh,  M. Ivanov,  T.-C. Jagau,  Hyunjun Ji,  
 B. Kaduk,  K. Khistyaev,  Jaehoon Kim,  P. Klunzinger,  K. Koh,  
 D. Kosenkov,  L. Koulias,  T. Kowalczyk,  C. M. Krauter,  A. Kunitsa,  
 Ka Un Lao,  A. Laurent,  K. V. Lawler,  Joonho Lee,  D. Lefrancois,  
 S. Lehtola,  D. S. Levine,  Yi-Pei Li,  You-Sheng Lin,  Fenglai Liu,  
 Kuan-Yu Liu,  E. Livshits,  M. Loipersberger,  A. Luenser,  A. Manjanath,  
 P. Manohar,  E. Mansoor,  S. F. Manzer,  Shan-Ping Mao,  Yuezhi Mao,  
 N. Mardirossian,  A. V. Marenich,  T. Markovich,  L. A. Martinez-Martinez,  
 S. A. Maurer,  N. J. Mayhall,  S. C. McKenzie,  J.-M. Mewes,  P. Morgante,  
 A. F. Morrison,  J. W. Mullinax,  K. Nanda,  T. S. Nguyen-Beck,  
 R. Olivares-Amaya,  K. J. Oosterbaan,  J. A. Parkhill,  S. K. Paul,  
 F. Pavosevic,  Zheng Pei,  T. M. Perrine,  F. Plasser,  P. Pokhilko,  
 S. Prager,  A. Prociuk,  E. Ramos,  B. Rana,  D. R. Rehn,  F. Rob,  
 E. Rossomme,  M. Scheurer,  M. Schneider,  N. Sergueev,  S. M. Sharada,  
 S. Sharma,  W. Skomorowski,  D. W. Small,  T. Stauch,  C. J. Stein,  
 T. Stein,  Yu-Chuan Su,  S. P. Veccham,  Zhen Tao,  A. J. W. Thom,  
 A. Tkatchenko,  T. Tsuchimochi,  N. M. Tubman,  L. Vogt,  M. L. Vidal,  
 O. Vydrov,  M. A. Watson,  J. Wenzel,  M. de Wergifosse,  T. A. Wesolowski,  
 A. White,  J. Witte,  A. Yamada,  Jun Yang,  K. Yao,  S. Yeganeh,  
 S. R. Yost,  Zhi-Qiang You,  A. Zech,  Igor Ying Zhang,  Xing Zhang,  
 Yan Zhao,  Ying Zhu,  B. R. Brooks,  G. K. L. Chan,  C. J. Cramer,  
 M. S. Gordon,  W. J. Hehre,  A. Klamt,  M. W. Schmidt,  C. D. Sherrill,  
 D. G. Truhlar,  A. Aspuru-Guzik,  R. Baer,  A. T. Bell,  N. A. Besley,  
 Jeng-Da Chai,  A. E. DePrince, III,  R. A. DiStasio Jr.,  A. Dreuw,  
 B. D. Dunietz,  T. R. Furlani,  Chao-Ping Hsu,  Yousung Jung,  Jing Kong,  
 D. S. Lambrecht,  WanZhen Liang,  C. Ochsenfeld,  V. A. Rassolov,  
 L. V. Slipchenko,  J. E. Subotnik,  T. Van Voorhis,  J. M. Herbert,  
 A. I. Krylov,  P. M. W. Gill,  M. Head-Gordon

 Contributors to earlier versions of Q-Chem not listed above: 
 R. D. Adamson,  B. Austin,  J. Baker,  G. J. O. Beran,  K. Brandhorst,  
 S. T. Brown,  E. F. C. Byrd,  A. K. Chakraborty,  C.-L. Cheng,  
 Siu Hung Chien,  D. M. Chipman,  D. L. Crittenden,  H. Dachsel,  
 R. J. Doerksen,  A. D. Dutoi,  L. Fusti-Molnar,  W. A. Goddard III,  
 A. Golubeva-Zadorozhnaya,  S. R. Gwaltney,  G. Hawkins,  A. Heyden,  
 S. Hirata,  G. Kedziora,  F. J. Keil,  C. Kelley,  Jihan Kim,  R. A. King,  
 R. Z. Khaliullin,  P. P. Korambath,  W. Kurlancheek,  A. M. Lee,  M. S. Lee,  
 S. V. Levchenko,  Ching Yeh Lin,  D. Liotard,  R. C. Lochan,  I. Lotan,  
 P. E. Maslen,  N. Nair,  D. P. O'Neill,  D. Neuhauser,  E. Neuscamman,  
 C. M. Oana,  R. Olson,  B. Peters,  R. Peverati,  P. A. Pieniazek,  
 Y. M. Rhee,  J. Ritchie,  M. A. Rohrdanz,  E. Rosta,  N. J. Russ,  
 H. F. Schaefer III,  N. E. Schultz,  N. Shenvi,  A. C. Simmonett,  A. Sodt,  
 D. Stuck,  K. S. Thanthiriwatte,  V. Vanovschi,  Tao Wang,  A. Warshel,  
 C. F. Williams,  Q. Wu,  X. Xu,  W. Zhang

 Please cite Q-Chem as follows:
 Y. Shao et al., Mol. Phys. 113, 184-215 (2015)
 DOI: 10.1080/00268976.2014.952696

 Q-Chem 5.3.2 for Intel X86 EM64T Linux

 Parts of Q-Chem use Armadillo 9.800.1 (Horizon Scraper).
 http://arma.sourceforge.net/

 Q-Chem begins on Thu Sep 15 16:28:57 2022  

Host: 
0

     Scratch files written to /scratch/user/peterli3819/peterli3819/12613579_1663277319000000514311623/qchem28990//
 Dec820 |scratch|qcdevops|jenkins|workspace|build_RNUM 7711   
Processing $rem in /sw/restricted/qchem/sw/5.3.2/config/preferences:
Processing $rem in /home/peterli3819/.qchemrc:

 Q-Chem warning in module libgen/rem_setup.C, line 2945:

 Neither GIA nor STOLL is specified by user. Use STOLL as the default


Checking the input file for inconsistencies... 	...done.

--------------------------------------------------------------
User input:
--------------------------------------------------------------
$molecule
0 1
--
0 1
F       -1.140060   -1.789084   -0.188094
C       -1.843987   -0.852034   -0.924215
C       -2.713636    0.000000    0.000000
C       -1.843988    0.852034    0.924217
F       -1.140062    1.789087    0.188099
C       -3.591916    0.916908   -0.855116
F       -4.424995    0.168052   -1.654233
C       -3.591918   -0.916906    0.855114
F       -4.424998   -0.168050    1.654230
H       -2.469618   -1.395109   -1.651142
H       -1.114661   -0.223496   -1.458222
H       -1.114662    0.223495    1.458224
H       -2.469620    1.395107    1.651145
H       -2.970919    1.555637   -1.504574
H       -4.214337    1.555484   -0.206394
H       -2.970923   -1.555636    1.504574
H       -4.214339   -1.555482    0.206392
--
0 1
F        4.425009   -1.654220   -0.168050
C        3.591926   -0.855108   -0.916907
C        2.713636   -0.000001   -0.000001
C        3.591909    0.855119    0.916909
F        4.424982    1.654245    0.168056
C        1.843984    0.924210   -0.852036
F        1.140061    0.188086   -1.789088
C        1.843993   -0.924225    0.852030
F        1.140060   -0.188112    1.789082
H        2.970937   -1.504571   -1.555639
H        4.214344   -0.206381   -1.555480
H        4.214335    0.206400    1.555484
H        2.970907    1.504571    1.555640
H        2.469611    1.651141   -1.395109
H        1.114654    1.458213   -0.223498
H        2.469628   -1.651149    1.395103
H        1.114671   -1.458235    0.223489
$end

$rem
JOBTYPE           eda
EDA2              2
METHOD            wB97X-D
BASIS             def2-SV(P)
SCF_CONVERGENCE   8
THRESH            14
SYMMETRY          false
DISP_FREE_X       wB97X-D
DISP_FREE_C       none
EDA_BSSE          true
$end
--------------------------------------------------------------
 ----------------------------------------------------------------
             Standard Nuclear Orientation (Angstroms)
    I     Atom           X                Y                Z
 ----------------------------------------------------------------
    1      F      -1.1400600063    -1.6774577893    -0.6498741172
    2      C      -1.8439870051    -0.5803851457    -1.1150283340
    3      C      -2.7136359932    -0.0000000668     0.0000001340
    4      C      -1.8439879814     0.5803844805     1.1150305178
    5      F      -1.1400619802     1.6774592278     0.6498799700
    6      C      -3.5919159930     1.1087829967    -0.5852722577
    7      F      -4.4249950033     0.5952303096    -1.5525555196
    8      C      -3.5919179935    -1.1087806685     0.5852711334
    9      F      -4.4249979831    -0.5952277120     1.5525534440
   10      H      -2.4696180136    -0.9142303084    -1.9587704247
   11      H      -1.1146610046     0.1660251194    -1.4658776021
   12      H      -1.1146619819    -0.1660267563     1.4658795121
   13      H      -2.4696199729     0.9142274569     1.9587730604
   14      H      -2.9709189932     1.8952511942    -1.0448788326
   15      H      -4.2143369844     1.5552711114     0.2079918315
   16      H      -2.9709229933    -1.8952503604     1.0448793665
   17      H      -4.2143390021    -1.5552687775    -0.2079929455
   18      F       4.4250089947    -1.5525437441    -0.5952249603
   19      C       3.5919259949    -0.5852650354    -1.1087799183
   20      C       2.7136360068    -0.0000007951    -0.0000011378
   21      C       3.5919090186     0.5852749368     1.1087848918
   22      F       4.4249820188     1.5525661026     0.5952374454
   23      C       1.8439840071     1.1150240709    -0.5803882177
   24      F       1.1400609959     0.6498674797    -1.6774635679
   25      C       1.8439930064    -1.1150371526     0.5803786929
   26      F       1.1400600176    -0.6498911714     1.6774511751
   27      H       2.9709369863    -1.0448756426    -1.8952523178
   28      H       4.2143439949     0.2080030861    -1.5552638311
   29      H       4.2143350187    -0.2079859930     1.5552728187
   30      H       2.9709070272     1.0448751951     1.8952534569
   31      H       2.4696110082     1.9587695009    -0.9142304111
   32      H       1.1146540149     1.4658694759     0.1660210096
   33      H       2.4696280053    -1.9587758325     0.9142227083
   34      H       1.1146709987    -1.4658885215    -0.1660352502
 ----------------------------------------------------------------
 Molecular Point Group                 C1    NOp =  1
 Largest Abelian Subgroup              C1    NOp =  1
 Nuclear Repulsion Energy =        1578.38490189 hartrees
 There are       74 alpha and       74 beta electrons
 Requested basis set is def2-SV(P)
 There are 140 shells and 284 basis functions

 Total QAlloc Memory Limit  56000 MB
 Mega-Array Size       188 MB
 MEM_STATIC part       192 MB
 A cutoff of  1.0D-14 yielded   7856 shell pairs
 There are     31032 function pairs (     34722 Cartesian)
 Smallest overlap matrix eigenvalue = 1.56E-03

 Scale SEOQF with 1.000000e-01/1.000000e-01/1.000000e-01

 Standard Electronic Orientation quadrupole field applied
 Nucleus-field energy     =     0.0000000426 hartrees

 -----------------------------------------------------------------------
  General SCF calculation program by
  Eric Jon Sundstrom, Paul Horn, Yuezhi Mao, Dmitri Zuev, Alec White,
  David Stuck, Shaama M.S., Shane Yost, Joonho Lee, David Small,
  Daniel Levine, Susi Lehtola, Hugh Burton, Evgeny Epifanovsky,
  Bang C. Huynh
 -----------------------------------------------------------------------
================================================================
                 ALMO-EDA with the EDA2 driver                  
================================================================
 The second-generation ALMO-EDA (for DFT):                      
 P. R. Horn, Y. Mao and M. Head-Gordon, PCCP, 18, 23067 (2016)  
 Decomposition of the frozen energy:                            
 P. R. Horn, Y. Mao and M. Head-Gordon, JCP, 144, 114107 (2016) 
Using eda2 option set 2
Option set summary: Frozen orbital wavefunction, initial wavefunction decomposition, and traditional AO-based POL.
--------------------------------
Printing EDA Options
--------------------------------
eda_child_super_basis      0
fragmo_guess_mode          0
child_mp                   0
child_mp_orders            0
cls_elec                   1
cls_disp                   0
scfmi_mode                 1
scfmi_occs                 0
scfmi_virts                0
frz_relax                  0
frz_relax_method           0
dc_pen_start               0
dc_pen_conv                0
dc_pen_increment           0
dc_pen_steps               0
dc_pen_thresh_factor       0
dc_pen_pre_newton_thresh   0
frz_ortho_decomp           1
frz_ortho_decomp_conv      6
plot_mo_ortho_frz          0
frgm_method                2
scfmi_freeze_ss            0
separate_rehyb             0
plot_diff_den              0
eda_nocv                   0
eda_vct_relax              1
disp_free_x                -110
disp_free_c                0
eda_bsse                   1
eda_pct_a                  0
eda_covp                   0
--------------------------------
Attempting to make child job directory: /scratch/user/peterli3819/peterli3819/12613579_1663277319000000514311623/qchem28990//Frg1/
Attempting to make child job directory: /scratch/user/peterli3819/peterli3819/12613579_1663277319000000514311623/qchem28990//Frg2/
Creating input file /scratch/user/peterli3819/peterli3819/12613579_1663277319000000514311623/qchem28990/Frg1.input
using default PutDataFrgm: nothing
calling putenv with: QCSCRATCH=/scratch/user/peterli3819/peterli3819/12613579_1663277319000000514311623/qchem28990/ 
Spawning Job For Fragment 0
Done Job For Fragment 0
calling putenv with: QCSCRATCH=/scratch/user/peterli3819/peterli3819/12613579_1663277319000000514311623 
calling putenv with: QCTHREADS=8 
Creating input file /scratch/user/peterli3819/peterli3819/12613579_1663277319000000514311623/qchem28990/Frg2.input
using default PutDataFrgm: nothing
calling putenv with: QCSCRATCH=/scratch/user/peterli3819/peterli3819/12613579_1663277319000000514311623/qchem28990/ 
Spawning Job For Fragment 1
Done Job For Fragment 1
calling putenv with: QCSCRATCH=/scratch/user/peterli3819/peterli3819/12613579_1663277319000000514311623 
calling putenv with: QCTHREADS=8 
Doing General SCFMI
 Exchange:     0.2220 Hartree-Fock + 1.0000 wB97X-D + LR-HF
 Correlation:  1.0000 wB97X-D
 Using SG-2 standard quadrature grid
 Dispersion:   Grimme D
performing fock build before subrot guess so that all methods have access
Printing subrot_rss_gen Method Specification:
Occupied Subspace Method is 0
Virtual Subspace Method is 0
Energy of the unrelaxed supersystem initial determinant -1188.116328987983
write pseudocanon occs and virts to disk
write pseudocanon orbital energies to disk
Tolerance of ortho_decomp_scf: 1.00e-06
GDM subspace size: 20
Beginning the Orthogonal Decomposition of the Initial Supersystem Wavefunction
    1   -1188.0877286820      3.07e-02     ortho_decomp Preconditoned Steepest Descent
    2   -1188.0917939790      4.93e-04     ortho_decomp BFGS Step
    3   -1188.0918014221      3.70e-05     ortho_decomp BFGS Step
    4   -1188.0918014327      1.01e-06     ortho_decomp BFGS Step
    5   -1188.0918014327      1.83e-08     ortho_decomp 00000 Convergence criterion met
 Exchange:     0.2220 Hartree-Fock + 1.0000 wB97X-D + LR-HF
 Correlation:  1.0000 wB97X-D
 Using SG-2 standard quadrature grid
 Dispersion:   Grimme D
 Long-range K will be added via erf
 Coulomb attenuation parameter = 0.2 bohr**(-1)
 Exchange:     0.2220 Hartree-Fock + 1.0000 wB97X-D + LR-HF
 Correlation:  1.0000 wB97X-D
 Using SG-2 standard quadrature grid
 Dispersion:   Grimme D
 Long-range K will be added via erf
 Coulomb attenuation parameter = 0.2 bohr**(-1)
 Exchange:     0.2220 Hartree-Fock + 1.0000 wB97X-D + LR-HF
 Correlation:  1.0000 wB97X-D
 Using SG-2 standard quadrature grid
 Dispersion:   Grimme D
 Long-range K will be added via erf
 Coulomb attenuation parameter = 0.2 bohr**(-1)
Doing General SCFMI
 Exchange:     0.2220 Hartree-Fock + 1.0000 wB97X-D + LR-HF
 Correlation:  1.0000 wB97X-D
 Using SG-2 standard quadrature grid
 Dispersion:   Grimme D
performing fock build at end of subrot_r(subrot) constructor so that all methods have access
<S^2> of initial wavefunction before polarization iterations 0.0000000000
Beginning iterations for the determination of the polarized wavefunction
Energy prior to optimization (guess energy) = -1188.116328987983
Begin Timing: Total SCF Calculation
begin iterations for algorithm: DIIS         
the SCF tolerance is set to 1.00e-08
    1   -1188.1163289880      1.04e-04     00000 
    2   -1188.1167588182      3.11e-05     00000 
    3   -1188.1167884087      2.12e-05     00000 
    4   -1188.1167955978      6.46e-06     00000 
    5   -1188.1167966254      1.23e-06     00000 
    6   -1188.1167966671      4.77e-07     00000 
    7   -1188.1167966716      1.33e-07     00000 
    8   -1188.1167966719      4.56e-08     00000 
    9   -1188.1167966719      1.07e-08     00000 
   10   -1188.1167966719      2.86e-09     00000 Convergence criterion met
write pseudocanon occs and virts to disk
write pseudocanon orbital energies to disk
Timing for Total SCF: 35.00s (wall), 253.81s (cpu)
<S^2> of polarized wavefunction after polarization iterations 0.0000000000
relaxing scfmi constraint to allow all rotations in the entire AO span
Doing General SCFMI
 Exchange:     0.2220 Hartree-Fock + 1.0000 wB97X-D + LR-HF
 Correlation:  1.0000 wB97X-D
 Using SG-2 standard quadrature grid
 Dispersion:   Grimme D
performing fock build at end of subrot_r(subrot) constructor so that all methods have access
<S^2> of polarized wavefunction before ct-allowed iterations 0.0000000000
Beginning iterations for the determination of the CT-Allowed wavefunction
Energy prior to optimization (guess energy) = -1188.116796671913
Begin Timing: Total SCF Calculation
begin iterations for algorithm: DIIS         
the SCF tolerance is set to 1.00e-08
    1   -1188.1167966719      3.78e-04     00000 
    2   -1188.1273497507      7.82e-05     00000 
    3   -1188.1278944259      4.38e-05     00000 
    4   -1188.1279472068      1.40e-05     00000 
    5   -1188.1279546791      2.15e-06     00000 
    6   -1188.1279548915      7.24e-07     00000 
    7   -1188.1279549158      2.79e-07     00000 
    8   -1188.1279549184      6.67e-08     00000 
    9   -1188.1279549186      1.84e-08     00000 
   10   -1188.1279549186      5.63e-09     00000 Convergence criterion met
write pseudocanon occs and virts to disk
write pseudocanon orbital energies to disk
Timing for Total SCF: 35.00s (wall), 267.04s (cpu)
<S^2> of ct_allowed wavefunction after ct-allowed iterations 0.0000000000
Attempting to make child job directory: /scratch/user/peterli3819/peterli3819/12613579_1663277319000000514311623/qchem28990//FrgBSSE1/
Attempting to make child job directory: /scratch/user/peterli3819/peterli3819/12613579_1663277319000000514311623/qchem28990//FrgBSSE2/
Creating input file /scratch/user/peterli3819/peterli3819/12613579_1663277319000000514311623/qchem28990/FrgBSSE1.input
calling putenv with: QCSCRATCH=/scratch/user/peterli3819/peterli3819/12613579_1663277319000000514311623/qchem28990/ 
Spawning Job For Fragment 0
Done Job For Fragment 0
calling putenv with: QCSCRATCH=/scratch/user/peterli3819/peterli3819/12613579_1663277319000000514311623 
calling putenv with: QCTHREADS=8 
Creating input file /scratch/user/peterli3819/peterli3819/12613579_1663277319000000514311623/qchem28990/FrgBSSE2.input
calling putenv with: QCSCRATCH=/scratch/user/peterli3819/peterli3819/12613579_1663277319000000514311623/qchem28990/ 
Spawning Job For Fragment 1
Done Job For Fragment 1
calling putenv with: QCSCRATCH=/scratch/user/peterli3819/peterli3819/12613579_1663277319000000514311623 
calling putenv with: QCTHREADS=8 
====================================================================
   Evaluating the BSSE with fragment SCF in the supersystem basis
   Fragment contributions (kJ/mol) 
   Frgm 1: 11.3693
   Frgm 2: 11.3693
   BSSE (kJ/mol) = 22.7387
====================================================================

================================
        Results of EDA2         
================================
Basic EDA Quantities
--------------------
Fragment Energies (Ha):
1 -594.0570639997
2 -594.0570639943
--------------------
  E_prp (kJ/mol) = 0.0000
  E_frz (kJ/mol) = -5.7788
  E_pol (kJ/mol) = -1.2279
  E_vct (kJ/mol) = -6.5577 (CP-corrected)
  E_int (kJ/mol) = -13.5644 (CP-corrected)
--------------------


Decomposition of frozen interaction energy
--------------------
  --------------------
  Orthogonal Frozen Decomposition:
  --------------------
     E_elec   (ELEC)   (kJ/mol) = -37.1446
     E_pauli  (PAULI)  (kJ/mol) = 47.2043
     E_disp   (DISP)   (kJ/mol) = -15.8385
  --------------------
  Classical Frozen Decomposition:
  --------------------
     E_cls_elec  (CLS ELEC)  (kJ/mol) = -18.4722
     E_mod_pauli (MOD PAULI) (kJ/mol) = 28.5319 (FRZ - CLS ELEC - DISP)
     E_disp      (DISP)      (kJ/mol) = -15.8385
  --------------------
--------------------

Simplified EDA Summary (kJ/mol)
--------------------
 PREPARATION      0.0000
 FROZEN           -5.7788 (ELEC + PAULI + DISP)
[ELEC + PAULI = 10.0597, DISP = -15.8385]
 POLARIZATION    -1.2279
 CHARGE TRANSFER -6.5577     (counterpoise-corrected)
 TOTAL           -13.5644     (PRP + FRZ + POL + CT)
--------------------
 
 --------------------------------------------------------------
 
                    Orbital Energies (a.u.)
 --------------------------------------------------------------
 
 Alpha MOs
 -- Occupied --
-24.8138 -24.8138 -24.8137 -24.8137 -24.8076 -24.8076 -24.8076 -24.8076
-10.3797 -10.3797 -10.3796 -10.3796 -10.3783 -10.3783 -10.3783 -10.3783
-10.3349 -10.3349  -1.2966  -1.2951  -1.2920  -1.2920  -1.2920  -1.2916
 -1.2884  -1.2884  -0.9445  -0.9437  -0.8009  -0.8009  -0.7989  -0.7989
 -0.7893  -0.7867  -0.6781  -0.6741  -0.6376  -0.6336  -0.6303  -0.6303
 -0.6248  -0.6248  -0.6110  -0.6026  -0.6020  -0.5939  -0.5830  -0.5700
 -0.5700  -0.5698  -0.5680  -0.5680  -0.5482  -0.5482  -0.5442  -0.5442
 -0.5437  -0.5420  -0.4967  -0.4944  -0.4599  -0.4590  -0.4590  -0.4554
 -0.4554  -0.4551  -0.4334  -0.4261  -0.4190  -0.4160  -0.4160  -0.4146
 -0.4146  -0.4083
 -- Virtual --
  0.1179   0.1371   0.1478   0.1554   0.1554   0.1654   0.1738   0.1738
  0.1807   0.1874   0.2054   0.2054   0.2086   0.2099   0.2119   0.2119
  0.2308   0.2419   0.2484   0.2490   0.2490   0.2738   0.2738   0.2754
  0.2922   0.3002   0.3088   0.3162   0.3224   0.3224   0.3362   0.3362
  0.4632   0.5146   0.5278   0.5525   0.5526   0.5526   0.5588   0.5588
  0.5695   0.5752   0.5752   0.5789   0.5855   0.5855   0.6215   0.6255
  0.6349   0.6365   0.6592   0.6633   0.7166   0.7166   0.7183   0.7293
  0.7293   0.7303   0.7322   0.7371   0.7371   0.7578   0.7657   0.7657
  0.7728   0.7777   0.7905   0.7905   0.8001   0.8007   0.8175   0.8188
  0.8188   0.8445   0.8498   0.8579   0.8933   0.8933   0.9184   0.9184
  0.9983   1.0564   1.1028   1.1028   1.1286   1.1286   1.1495   1.1637
  1.2678   1.2688   1.2946   1.2946   1.2991   1.3091   1.3199   1.3215
  1.3338   1.3338   1.3399   1.3766   1.3953   1.3953   1.4190   1.4190
  1.4533   1.4578   1.4644   1.4644   1.4947   1.5321   1.5490   1.5815
  1.5815   1.6004   1.6191   1.6941   1.7417   1.7417   1.7459   1.7505
  1.7505   1.7666   1.8262   1.8524   1.8524   1.8574   1.8574   1.8625
  1.8902   1.8956   1.9808   1.9808   1.9832   1.9919   2.0055   2.0094
  2.0094   2.0382   2.0487   2.0583   2.0583   2.0732   2.0732   2.0805
  2.0855   2.1389   2.1479   2.1479   2.1544   2.1615   2.1880   2.1880
  2.2384   2.2384   2.2461   2.2506   2.2548   2.2548   2.2841   2.2878
  2.5131   2.5162   2.5638   2.5703   2.6944   2.6952   2.7295   2.7295
  2.7442   2.7442   3.1727   3.1738   3.1824   3.1831   3.1831   3.1842
  3.1923   3.1923   3.1962   3.1962   3.1985   3.2016   3.2020   3.2020
  3.2086   3.2089   3.3552   3.3601   3.3629   3.3629   3.3718   3.3718
  3.3747   3.3749   3.3907   3.3907   3.4097   3.4097   3.4192   3.4192
  3.4586   3.4587   3.8360   3.8508   3.8508   3.8520   3.8559   3.8559
  3.8844   3.8909
 --------------------------------------------------------------
 
          Ground-State Mulliken Net Atomic Charges

     Atom                 Charge (a.u.)
  ----------------------------------------
      1 F                    -0.275373
      2 C                     0.113561
      3 C                    -0.455983
      4 C                     0.113561
      5 F                    -0.275373
      6 C                     0.139379
      7 F                    -0.276721
      8 C                     0.139378
      9 F                    -0.276722
     10 H                     0.128835
     11 H                     0.144245
     12 H                     0.144245
     13 H                     0.128835
     14 H                     0.127681
     15 H                     0.126385
     16 H                     0.127681
     17 H                     0.126385
     18 F                    -0.276722
     19 C                     0.139379
     20 C                    -0.455983
     21 C                     0.139378
     22 F                    -0.276721
     23 C                     0.113561
     24 F                    -0.275373
     25 C                     0.113562
     26 F                    -0.275373
     27 H                     0.127681
     28 H                     0.126385
     29 H                     0.126385
     30 H                     0.127681
     31 H                     0.128835
     32 H                     0.144245
     33 H                     0.128835
     34 H                     0.144245
  ----------------------------------------
  Sum of atomic charges =     0.000000

 -----------------------------------------------------------------
                    Cartesian Multipole Moments
 -----------------------------------------------------------------
    Charge (ESU x 10^10)
                -0.0000
    Dipole Moment (Debye)
         X       0.0000      Y      -0.0000      Z      -0.0000
       Tot       0.0000
    Quadrupole Moments (Debye-Ang)
        XX    -118.5879     XY      -0.0000     YY    -103.3296
        XZ      -0.0000     YZ      -0.0000     ZZ    -103.3296
    Octopole Moments (Debye-Ang^2)
       XXX       0.0003    XXY      -0.0001    XYY     -20.7263
       YYY      -0.0002    XXZ      -0.0002    XYZ     -11.4502
       YYZ      -0.0002    XZZ      20.7263    YZZ       0.0000
       ZZZ       0.0002
    Hexadecapole Moments (Debye-Ang^3)
      XXXX   -6320.2905   XXXY       0.0010   XXYY   -1080.4116
      XYYY      -0.0007   YYYY    -749.4005   XXXZ      -0.0004
      XXYZ      -0.0002   XYYZ      -0.0003   YYYZ     -19.1186
      XXZZ   -1080.4116   XYZZ       0.0000   YYZZ    -241.2351
      XZZZ       0.0002   YZZZ      19.1185   ZZZZ    -749.4002
 -----------------------------------------------------------------
Archival summary:
1\1\tnxt-0725.cluster\SP\ProcedureUnspecified\BasisUnspecified\81016\peterli3\ThuSep1516:33:112022ThuSep1516:33:112022\0\\#,ProcedureUnspecified,BasisUnspecified,\\0,1\F\C,1,1.384\H,2,1.10097,1,107.913\H,2,1.10216,1,107.812,3,118.446,0\C,2,1.52854,1,110.193,3,-120.862,0\C,5,1.52854,2,110.647,1,66.1382,0\H,6,1.10097,5,110.606,2,-53.0976,0\H,6,1.10217,5,110.517,2,-174.807,0\F,6,1.384,5,110.193,2,66.1384,0\C,5,1.53079,2,109.287,1,-53.6667,0\H,10,1.10246,5,110.666,2,62.7909,0\H,10,1.10274,5,110.003,2,-57.9734,0\F,10,1.37601,5,110.231,2,-177.413,0\C,5,1.53079,2,108.817,1,-173.775,0\H,14,1.10246,5,110.666,2,-58.1344,0\H,14,1.10274,5,110.003,2,-178.899,0\F,14,1.37601,5,110.231,2,61.6618,0\H,9,2.31574,6,119.539,5,-103.936,0\C,18,1.10097,9,144.662,6,79.6975,0\H,19,1.10216,18,109.72,9,119.821,0\F,19,1.384,18,107.913,9,2.60296,0\C,19,1.52854,18,110.606,9,-118.001,0\C,22,1.52854,19,110.647,18,53.0978,0\H,23,1.10097,22,110.606,19,53.0975,0\H,23,1.10216,22,110.518,19,174.807,0\F,23,1.384,22,110.193,19,-66.1384,0\C,22,1.53079,19,108.817,18,-66.989,0\H,27,1.10246,22,110.666,19,58.1346,0\H,27,1.10274,22,110.003,19,178.899,0\F,27,1.37601,22,110.231,19,-61.6616,0\C,22,1.53079,19,109.287,18,172.903,0\H,31,1.10246,22,110.666,19,-62.7909,0\H,31,1.10274,22,110.003,19,57.9734,0\F,31,1.37601,22,110.231,19,177.413,0\\\@

 Total job time:  254.74s(wall), 1125.15s(cpu) 
 Thu Sep 15 16:33:11 2022

        *************************************************************
        *                                                           *
        *  Thank you very much for using Q-Chem.  Have a nice day.  *
        *                                                           *
        *************************************************************


remove work dirs /scratch/user/peterli3819/peterli3819/12613579_1663277319000000514311623/qchem28990.0 -- /scratch/user/peterli3819/peterli3819/12613579_1663277319000000514311623/qchem28990.-1
rm -rf /scratch/user/peterli3819/peterli3819/12613579_1663277319000000514311623/qchem28990
real 269.46
user 1696.92
sys 55.11
