 Entering Gaussian System, Link 0=g16
 Input=gaussian_test.inp
 Output=gaussian_test.log
 Initial command:
 /sw/restricted/lms/sw/Gaussian/g16_B01/g16/l1.exe "/scratch/user/peterchao1/peterchao1/6326747_1664223032000000078541621/Gau-105566.inp" -scrdir="/scratch/user/peterchao1/peterchao1/6326747_1664223032000000078541621/"
 Entering Link 1 = /sw/restricted/lms/sw/Gaussian/g16_B01/g16/l1.exe PID=    105568.
  
 Copyright (c) 1988-2017, Gaussian, Inc.  All Rights Reserved.
  
 This is part of the Gaussian(R) 16 program.  It is based on
 the Gaussian(R) 09 system (copyright 2009, Gaussian, Inc.),
 the Gaussian(R) 03 system (copyright 2003, Gaussian, Inc.),
 the Gaussian(R) 98 system (copyright 1998, Gaussian, Inc.),
 the Gaussian(R) 94 system (copyright 1995, Gaussian, Inc.),
 the Gaussian 92(TM) system (copyright 1992, Gaussian, Inc.),
 the Gaussian 90(TM) system (copyright 1990, Gaussian, Inc.),
 the Gaussian 88(TM) system (copyright 1988, Gaussian, Inc.),
 the Gaussian 86(TM) system (copyright 1986, Carnegie Mellon
 University), and the Gaussian 82(TM) system (copyright 1983,
 Carnegie Mellon University). Gaussian is a federally registered
 trademark of Gaussian, Inc.
  
 This software contains proprietary and confidential information,
 including trade secrets, belonging to Gaussian, Inc.
  
 This software is provided under written license and may be
 used, copied, transmitted, or stored only in accord with that
 written license.
  
 The following legend is applicable only to US Government
 contracts under FAR:
  
                    RESTRICTED RIGHTS LEGEND
  
 Use, reproduction and disclosure by the US Government is
 subject to restrictions as set forth in subparagraphs (a)
 and (c) of the Commercial Computer Software - Restricted
 Rights clause in FAR 52.227-19.
  
 Gaussian, Inc.
 340 Quinnipiac St., Bldg. 40, Wallingford CT 06492
  
  
 ---------------------------------------------------------------
 Warning -- This program may not be used in any manner that
 competes with the business of Gaussian, Inc. or will provide
 assistance to any competitor of Gaussian, Inc.  The licensee
 of this program is prohibited from giving any competitor of
 Gaussian, Inc. access to this program.  By using this program,
 the user acknowledges that Gaussian, Inc. is engaged in the
 business of creating and licensing software in the field of
 computational chemistry and represents and warrants to the
 licensee that it is not a competitor of Gaussian, Inc. and that
 it will not use this program in any manner prohibited above.
 ---------------------------------------------------------------
  

 Cite this work as:
 Gaussian 16, Revision B.01,
 M. J. Frisch, G. W. Trucks, H. B. Schlegel, G. E. Scuseria, 
 M. A. Robb, J. R. Cheeseman, G. Scalmani, V. Barone, 
 G. A. Petersson, H. Nakatsuji, X. Li, M. Caricato, A. V. Marenich, 
 J. Bloino, B. G. Janesko, R. Gomperts, B. Mennucci, H. P. Hratchian, 
 J. V. Ortiz, A. F. Izmaylov, J. L. Sonnenberg, D. Williams-Young, 
 F. Ding, F. Lipparini, F. Egidi, J. Goings, B. Peng, A. Petrone, 
 T. Henderson, D. Ranasinghe, V. G. Zakrzewski, J. Gao, N. Rega, 
 G. Zheng, W. Liang, M. Hada, M. Ehara, K. Toyota, R. Fukuda, 
 J. Hasegawa, M. Ishida, T. Nakajima, Y. Honda, O. Kitao, H. Nakai, 
 T. Vreven, K. Throssell, J. A. Montgomery, Jr., J. E. Peralta, 
 F. Ogliaro, M. J. Bearpark, J. J. Heyd, E. N. Brothers, K. N. Kudin, 
 V. N. Staroverov, T. A. Keith, R. Kobayashi, J. Normand, 
 K. Raghavachari, A. P. Rendell, J. C. Burant, S. S. Iyengar, 
 J. Tomasi, M. Cossi, J. M. Millam, M. Klene, C. Adamo, R. Cammi, 
 J. W. Ochterski, R. L. Martin, K. Morokuma, O. Farkas, 
 J. B. Foresman, and D. J. Fox, Gaussian, Inc., Wallingford CT, 2016.
 
 ******************************************
 Gaussian 16:  ES64L-G16RevB.01 20-Dec-2017
                26-Sep-2022 
 ******************************************
 %nprocshared=8
 Will use up to    8 processors via shared memory.
 %mem=20GB
 ----------------------------------------------------------------------
 # opt=(calcall,tight,modredundant) wb97xd scf=(qc,verytight) def2svpp 
 int=grid=ultrafine
 ----------------------------------------------------------------------
 1/7=10,10=4,18=120,19=15,26=4,38=1/1,3;
 2/9=110,12=2,17=6,18=5,40=1/2;
 3/5=43,7=202,11=2,25=1,30=1,71=2,74=-58,75=-5,140=1/1,2,3;
 4//1;
 5/5=2,8=3,17=3,38=5/8;
 8/6=4,10=90,11=11/1;
 11/6=1,8=1,9=11,15=111,16=1/1,2,10;
 10/6=1/2;
 6/7=2,8=2,9=2,10=2,18=1,28=1/1;
 7/10=1,25=1/1,2,3,16;
 1/7=10,10=4,18=20,19=15,26=4/3(3);
 2/9=110/2;
 7/8=1,9=1,25=1,44=-1/16;
 99//99;
 2/9=110/2;
 3/5=43,7=202,11=2,25=1,30=1,71=2,74=-58,75=-5,140=1/1,2,3;
 4/5=5,16=3,69=1/1;
 5/5=2,8=3,17=3,38=5/8;
 8/6=4,10=90,11=11/1;
 11/6=1,8=1,9=11,15=111,16=1/1,2,10;
 10/6=1/2;
 7/10=1,25=1/1,2,3,16;
 1/7=10,10=4,18=20,19=15,26=4/3(-8);
 2/9=110/2;
 6/7=2,8=2,9=2,10=2,18=1,19=2,28=1/1;
 7/8=1,9=1,25=1,44=-1/16;
 99//99;
 -----
 dimer
 -----
 Symbolic Z-matrix:
 Charge =  0 Multiplicity = 1
 Br                    1.76653  -1.84112   0.12794 
 C                     2.35526  -0.00042  -0.00253 
 Br                    4.16573   0.04918  -0.69448 
 Br                    1.18273   0.97747  -1.19196 
 Br                    2.32158   0.81498   1.75752 
 Br                   -4.35446  -0.37347   0.59004 
 C                    -2.54474  -0.00189   0.00188 
 Br                   -1.95582  -1.40672  -1.19445 
 Br                   -2.51308   1.69808  -0.93236 
 Br                   -1.37104   0.08176   1.53857 
 
 Add virtual bond connecting atoms Br9        and Br4        Dist= 7.13D+00.
 Add virtual bond connecting atoms Br10       and Br4        Dist= 7.26D+00.
 Add virtual bond connecting atoms Br10       and Br5        Dist= 7.13D+00.
 The following ModRedundant input section has been read:
 B       2       7 F                                                           
 

 GradGradGradGradGradGradGradGradGradGradGradGradGradGradGradGradGradGrad
 Berny optimization.
 Initialization pass.
                           ----------------------------
                           !    Initial Parameters    !
                           ! (Angstroms and Degrees)  !
 --------------------------                            --------------------------
 ! Name  Definition              Value          Derivative Info.                !
 --------------------------------------------------------------------------------
 ! R1    R(1,2)                  1.937          calculate D2E/DX2 analytically  !
 ! R2    R(2,3)                  1.9388         calculate D2E/DX2 analytically  !
 ! R3    R(2,4)                  1.9354         calculate D2E/DX2 analytically  !
 ! R4    R(2,5)                  1.94           calculate D2E/DX2 analytically  !
 ! R5    R(2,7)                  4.9            frozen, calculate D2E/DX2 analyt!
 ! R6    R(4,9)                  3.7744         calculate D2E/DX2 analytically  !
 ! R7    R(4,10)                 3.8445         calculate D2E/DX2 analytically  !
 ! R8    R(5,10)                 3.7711         calculate D2E/DX2 analytically  !
 ! R9    R(6,7)                  1.9388         calculate D2E/DX2 analytically  !
 ! R10   R(7,8)                  1.9369         calculate D2E/DX2 analytically  !
 ! R11   R(7,9)                  1.94           calculate D2E/DX2 analytically  !
 ! R12   R(7,10)                 1.9355         calculate D2E/DX2 analytically  !
 ! A1    A(1,2,3)              109.4006         calculate D2E/DX2 analytically  !
 ! A2    A(1,2,4)              109.719          calculate D2E/DX2 analytically  !
 ! A3    A(1,2,5)              109.4527         calculate D2E/DX2 analytically  !
 ! A4    A(3,2,4)              109.479          calculate D2E/DX2 analytically  !
 ! A5    A(3,2,5)              109.2228         calculate D2E/DX2 analytically  !
 ! A6    A(4,2,5)              109.552          calculate D2E/DX2 analytically  !
 ! A7    A(2,4,9)              130.3472         calculate D2E/DX2 analytically  !
 ! A8    A(2,4,10)              81.2702         calculate D2E/DX2 analytically  !
 ! A9    A(9,4,10)              49.0938         calculate D2E/DX2 analytically  !
 ! A10   A(2,5,10)              83.2583         calculate D2E/DX2 analytically  !
 ! A11   A(6,7,8)              109.4002         calculate D2E/DX2 analytically  !
 ! A12   A(6,7,9)              109.2234         calculate D2E/DX2 analytically  !
 ! A13   A(6,7,10)             109.4788         calculate D2E/DX2 analytically  !
 ! A14   A(8,7,9)              109.4605         calculate D2E/DX2 analytically  !
 ! A15   A(8,7,10)             109.7163         calculate D2E/DX2 analytically  !
 ! A16   A(9,7,10)             109.547          calculate D2E/DX2 analytically  !
 ! A17   A(4,9,7)               83.2117         calculate D2E/DX2 analytically  !
 ! A18   A(4,10,5)              49.1168         calculate D2E/DX2 analytically  !
 ! A19   A(4,10,7)              81.3139         calculate D2E/DX2 analytically  !
 ! A20   A(5,10,7)             130.4138         calculate D2E/DX2 analytically  !
 ! D1    D(1,2,4,9)             61.7785         calculate D2E/DX2 analytically  !
 ! D2    D(1,2,4,10)            63.1708         calculate D2E/DX2 analytically  !
 ! D3    D(3,2,4,9)           -178.1511         calculate D2E/DX2 analytically  !
 ! D4    D(3,2,4,10)          -176.7588         calculate D2E/DX2 analytically  !
 ! D5    D(5,2,4,9)            -58.4011         calculate D2E/DX2 analytically  !
 ! D6    D(5,2,4,10)           -57.0089         calculate D2E/DX2 analytically  !
 ! D7    D(1,2,5,10)           -62.0155         calculate D2E/DX2 analytically  !
 ! D8    D(3,2,5,10)           178.2335         calculate D2E/DX2 analytically  !
 ! D9    D(4,2,5,10)            58.3265         calculate D2E/DX2 analytically  !
 ! D10   D(2,4,9,7)            -30.4695         calculate D2E/DX2 analytically  !
 ! D11   D(10,4,9,7)           -32.2904         calculate D2E/DX2 analytically  !
 ! D12   D(2,4,10,5)            32.5356         calculate D2E/DX2 analytically  !
 ! D13   D(2,4,10,7)          -146.0562         calculate D2E/DX2 analytically  !
 ! D14   D(9,4,10,5)          -148.8683         calculate D2E/DX2 analytically  !
 ! D15   D(9,4,10,7)            32.5399         calculate D2E/DX2 analytically  !
 ! D16   D(2,5,10,4)           -32.2773         calculate D2E/DX2 analytically  !
 ! D17   D(2,5,10,7)           -30.4489         calculate D2E/DX2 analytically  !
 ! D18   D(6,7,9,4)            178.2272         calculate D2E/DX2 analytically  !
 ! D19   D(8,7,9,4)            -62.0171         calculate D2E/DX2 analytically  !
 ! D20   D(10,7,9,4)            58.3233         calculate D2E/DX2 analytically  !
 ! D21   D(6,7,10,4)          -176.8112         calculate D2E/DX2 analytically  !
 ! D22   D(6,7,10,5)          -178.2095         calculate D2E/DX2 analytically  !
 ! D23   D(8,7,10,4)            63.1207         calculate D2E/DX2 analytically  !
 ! D24   D(8,7,10,5)            61.7224         calculate D2E/DX2 analytically  !
 ! D25   D(9,7,10,4)           -57.0637         calculate D2E/DX2 analytically  !
 ! D26   D(9,7,10,5)           -58.462          calculate D2E/DX2 analytically  !
 --------------------------------------------------------------------------------
 Trust Radius=3.00D-01 FncErr=1.00D-07 GrdErr=1.00D-06 EigMax=2.50D+02 EigMin=1.00D-04
 Number of steps in this run=     68 maximum allowed number of steps=    100.
 GradGradGradGradGradGradGradGradGradGradGradGradGradGradGradGradGradGrad

                          Input orientation:                          
 ---------------------------------------------------------------------
 Center     Atomic      Atomic             Coordinates (Angstroms)
 Number     Number       Type             X           Y           Z
 ---------------------------------------------------------------------
      1         35           0        1.766532   -1.841116    0.127941
      2          6           0        2.355263   -0.000418   -0.002527
      3         35           0        4.165728    0.049175   -0.694482
      4         35           0        1.182735    0.977470   -1.191956
      5         35           0        2.321581    0.814982    1.757517
      6         35           0       -4.354464   -0.373474    0.590041
      7          6           0       -2.544735   -0.001887    0.001875
      8         35           0       -1.955823   -1.406715   -1.194450
      9         35           0       -2.513084    1.698076   -0.932358
     10         35           0       -1.371043    0.081760    1.538568
 ---------------------------------------------------------------------
                    Distance matrix (angstroms):
                    1          2          3          4          5
     1  Br   0.000000
     2  C    1.936955   0.000000
     3  Br   3.163182   1.938826   0.000000
     4  Br   3.166603   1.935414   3.163457   0.000000
     5  Br   3.165194   1.940043   3.162220   3.165875   0.000000
     6  Br   6.311426   6.746165   8.626836   5.971694   6.880771
     7  C    4.688889   4.900000   6.746690   4.034650   5.237422
     8  Br   3.974085   4.688690   6.312129   3.941433   5.652100
     9  Br   5.653780   5.239300   6.883457   3.774353   5.602613
    10  Br   3.941027   4.033247   5.970210   3.844455   3.771077
                    6          7          8          9         10
     6  Br   0.000000
     7  C    1.938849   0.000000
     8  Br   3.163143   1.936893   0.000000
     9  Br   3.162230   1.940017   3.165274   0.000000
    10  Br   3.163502   1.935452   3.166530   3.165787   0.000000
 Stoichiometry    C2Br8
 Framework group  C1[X(C2Br8)]
 Deg. of freedom    24
 Full point group                 C1      NOp   1
 Largest Abelian subgroup         C1      NOp   1
 Largest concise Abelian subgroup C1      NOp   1
                         Standard orientation:                         
 ---------------------------------------------------------------------
 Center     Atomic      Atomic             Coordinates (Angstroms)
 Number     Number       Type             X           Y           Z
 ---------------------------------------------------------------------
      1         35           0       -1.861293    1.840611    0.134099
      2          6           0       -2.449993    0.000364   -0.002715
      3         35           0       -4.260428   -0.046877   -0.694914
      4         35           0       -1.277400   -0.973417   -1.195446
      5         35           0       -2.416374   -0.821076    1.754519
      6         35           0        4.259703    0.371477    0.591417
      7          6           0        2.450005    0.001887    0.001901
      8         35           0        1.861124    1.410807   -1.189617
      9         35           0        2.418418   -1.694858   -0.938167
     10         35           0        1.276248   -0.087054    1.538247
 ---------------------------------------------------------------------
 Rotational constants (GHZ):           0.3195538           0.0914600           0.0914592
 Standard basis: def2SVPP (5D, 7F)
 There are   310 symmetry adapted cartesian basis functions of A   symmetry.
 There are   284 symmetry adapted basis functions of A   symmetry.
   284 basis functions,   690 primitive gaussians,   310 cartesian basis functions
   146 alpha electrons      146 beta electrons
       nuclear repulsion energy      5134.2299195024 Hartrees.
 NAtoms=   10 NActive=   10 NUniq=   10 SFac= 1.00D+00 NAtFMM=   60 NAOKFM=F Big=F
 Integral buffers will be    131072 words long.
 Raffenetti 2 integral format.
 Two-electron integral symmetry is turned on.
 Nuclear repulsion after empirical dispersion term =     5134.2220085656 Hartrees.
 One-electron integrals computed using PRISM.
   1 Symmetry operations used in ECPInt.
 ECPInt:  NShTT=    5886 NPrTT=   35326 LenC2=    4783 LenP2D=   16536.
 LDataN:  DoStor=T MaxTD1= 4 Len=   56
 NBasis=   284 RedAO= T EigKep=  5.41D-03  NBF=   284
 NBsUse=   284 1.00D-06 EigRej= -1.00D+00 NBFU=   284
 ExpMin= 1.30D-01 ExpMax= 1.13D+05 ExpMxC= 1.70D+04 IAcc=3 IRadAn=         5 AccDes= 0.00D+00
 Harris functional with IExCor= 4639 and IRadAn=       5 diagonalized for initial guess.
 HarFok:  IExCor= 4639 AccDes= 0.00D+00 IRadAn=         5 IDoV= 1 UseB2=F ITyADJ=14
 ICtDFT=  3500011 ScaDFX=  1.000000  1.000000  1.000000  1.000000
 FoFCou: FMM=F IPFlag=           0 FMFlag=      100000 FMFlg1=           0
         NFxFlg=           0 DoJE=T BraDBF=F KetDBF=T FulRan=T
         wScrn=  0.000000 ICntrl=       500 IOpCl=  0 I1Cent=   200000004 NGrid=           0
         NMat0=    1 NMatS0=      1 NMatT0=    0 NMatD0=    1 NMtDS0=    0 NMtDT0=    0
 Petite list used in FoFCou.
 Keep R1 ints in memory in canonical form, NReq=1652903131.
 Gradient too large for Newton-Raphson -- use scaled steepest descent instead.
     Accept linear search using points  3 and  4.
 Gradient too large for Newton-Raphson -- use scaled steepest descent instead.
     Accept linear search using points  2 and  3.
 Gradient too large for Newton-Raphson -- use scaled steepest descent instead.
     Minimum is close to point  2 DX=  4.69D-02 DF= -1.03D-05 DXR=  7.25D-02 DFR=  5.29D-03 which will be used.
 Gradient too large for Newton-Raphson -- use scaled steepest descent instead.
     Minimum is close to point  2 DX=  5.29D-02 DF= -2.92D-06 DXR=  8.10D-02 DFR=  6.61D-03 which will be used.
 Gradient too large for Newton-Raphson -- use scaled steepest descent instead.
 LinEq1:  Iter=  0 NonCon=     1 RMS=4.69D-05 Max=2.07D-03 NDo=     1
 AX will form     1 AO Fock derivatives at one time.
 LinEq1:  Iter=  1 NonCon=     1 RMS=4.14D-05 Max=1.40D-03 NDo=     1
 LinEq1:  Iter=  2 NonCon=     1 RMS=4.97D-06 Max=1.15D-04 NDo=     1
 LinEq1:  Iter=  3 NonCon=     1 RMS=5.43D-07 Max=1.65D-05 NDo=     1
 LinEq1:  Iter=  4 NonCon=     1 RMS=1.66D-07 Max=5.78D-06 NDo=     1
 LinEq1:  Iter=  5 NonCon=     1 RMS=5.19D-08 Max=2.20D-06 NDo=     1
 LinEq1:  Iter=  6 NonCon=     1 RMS=2.21D-08 Max=6.88D-07 NDo=     1
 LinEq1:  Iter=  7 NonCon=     1 RMS=5.85D-09 Max=2.12D-07 NDo=     1
 LinEq1:  Iter=  8 NonCon=     1 RMS=3.90D-09 Max=1.41D-07 NDo=     1
 LinEq1:  Iter=  9 NonCon=     1 RMS=1.53D-09 Max=2.96D-08 NDo=     1
 LinEq1:  Iter= 10 NonCon=     0 RMS=5.97D-10 Max=1.71D-08 NDo=     1
 Linear equations converged to 2.007D-09 2.007D-08 after    10 iterations.
     Minimum is close to point  2 DX=  1.87D-03 DF= -1.64D-10 DXR=  1.87D-03 DFR=  3.49D-06 which will be used.
 LinEq1:  Iter=  0 NonCon=     1 RMS=9.29D-08 Max=3.72D-06 NDo=     1
 LinEq1:  Iter=  1 NonCon=     1 RMS=8.77D-08 Max=3.25D-06 NDo=     1
 LinEq1:  Iter=  2 NonCon=     1 RMS=1.57D-08 Max=3.93D-07 NDo=     1
 LinEq1:  Iter=  3 NonCon=     1 RMS=4.67D-09 Max=1.17D-07 NDo=     1
 LinEq1:  Iter=  4 NonCon=     1 RMS=1.14D-09 Max=3.77D-08 NDo=     1
 LinEq1:  Iter=  5 NonCon=     1 RMS=4.70D-10 Max=2.32D-08 NDo=     1
 LinEq1:  Iter=  6 NonCon=     1 RMS=1.07D-10 Max=4.61D-09 NDo=     1
 LinEq1:  Iter=  7 NonCon=     0 RMS=3.58D-11 Max=9.32D-10 NDo=     1
 Linear equations converged to 1.380D-10 1.380D-09 after     7 iterations.
 SCF Done:  E(RwB97XD) =  -20667.2716174     a.u. after    8 cycles
            Convg  =    0.5363D-08                    35 Fock formations.
              S**2 =  0.0000                  -V/T =  2.0011
 DoSCS=F DFT=T ScalE2(SS,OS)=  1.000000  1.000000
 Range of M.O.s used for correlation:     1   284
 NBasis=   284 NAE=   146 NBE=   146 NFC=     0 NFV=     0
 NROrb=    284 NOA=   146 NOB=   146 NVA=   138 NVB=   138
   1 Symmetry operations used in ECPInt.
 ECPInt:  NShTT=    5886 NPrTT=   35326 LenC2=    4783 LenP2D=   16536.
 LDataN:  DoStor=T MaxTD1= 5 Len=  102
 Symmetrizing basis deriv contribution to polar:
 IMax=3 JMax=2 DiffMx= 0.00D+00
 G2DrvN: will do    11 centers at a time, making    1 passes.
 Calling FoFCou, ICntrl=  3107 FMM=F I1Cent=   0 AccDes= 0.00D+00.
 End of G2Drv F.D. properties file   721 does not exist.
 End of G2Drv F.D. properties file   722 does not exist.
 End of G2Drv F.D. properties file   788 does not exist.
          IDoAtm=1111111111
          Differentiating once with respect to electric field.
                with respect to dipole field.
          Differentiating once with respect to nuclear coordinates.
 Keep R1 ints in memory in canonical form, NReq=1652907510.
          There are    33 degrees of freedom in the 1st order CPHF.  IDoFFX=6 NUNeed=     3.
     30 vectors produced by pass  0 Test12= 6.11D-14 3.03D-09 XBig12= 7.66D+01 1.95D+00.
 AX will form    30 AO Fock derivatives at one time.
     30 vectors produced by pass  1 Test12= 6.11D-14 3.03D-09 XBig12= 5.18D+00 5.33D-01.
     30 vectors produced by pass  2 Test12= 6.11D-14 3.03D-09 XBig12= 2.43D-01 7.00D-02.
     30 vectors produced by pass  3 Test12= 6.11D-14 3.03D-09 XBig12= 1.58D-02 2.67D-02.
     30 vectors produced by pass  4 Test12= 6.11D-14 3.03D-09 XBig12= 4.62D-04 4.24D-03.
     30 vectors produced by pass  5 Test12= 6.11D-14 3.03D-09 XBig12= 1.21D-05 7.39D-04.
     30 vectors produced by pass  6 Test12= 6.11D-14 3.03D-09 XBig12= 1.24D-07 6.11D-05.
     30 vectors produced by pass  7 Test12= 6.11D-14 3.03D-09 XBig12= 1.08D-09 7.95D-06.
      6 vectors produced by pass  8 Test12= 6.11D-14 3.03D-09 XBig12= 6.55D-12 4.48D-07.
      3 vectors produced by pass  9 Test12= 6.11D-14 3.03D-09 XBig12= 4.13D-14 3.83D-08.
      2 vectors produced by pass 10 Test12= 6.11D-14 3.03D-09 XBig12= 4.88D-16 5.22D-09.
 InvSVY:  IOpt=1 It=  1 EMax= 8.88D-15
 Solved reduced A of dimension   251 with    33 vectors.
 Isotropic polarizability for W=    0.000000      147.28 Bohr**3.
 End of Minotr F.D. properties file   721 does not exist.
 End of Minotr F.D. properties file   722 does not exist.
 End of Minotr F.D. properties file   788 does not exist.

 **********************************************************************

            Population analysis using the SCF Density.

 **********************************************************************

 Orbital symmetries:
       Occupied  (A) (A) (A) (A) (A) (A) (A) (A) (A) (A) (A) (A)
                 (A) (A) (A) (A) (A) (A) (A) (A) (A) (A) (A) (A)
                 (A) (A) (A) (A) (A) (A) (A) (A) (A) (A) (A) (A)
                 (A) (A) (A) (A) (A) (A) (A) (A) (A) (A) (A) (A)
                 (A) (A) (A) (A) (A) (A) (A) (A) (A) (A) (A) (A)
                 (A) (A) (A) (A) (A) (A) (A) (A) (A) (A) (A) (A)
                 (A) (A) (A) (A) (A) (A) (A) (A) (A) (A) (A) (A)
                 (A) (A) (A) (A) (A) (A) (A) (A) (A) (A) (A) (A)
                 (A) (A) (A) (A) (A) (A) (A) (A) (A) (A) (A) (A)
                 (A) (A) (A) (A) (A) (A) (A) (A) (A) (A) (A) (A)
                 (A) (A) (A) (A) (A) (A) (A) (A) (A) (A) (A) (A)
                 (A) (A) (A) (A) (A) (A) (A) (A) (A) (A) (A) (A)
                 (A) (A)
       Virtual   (A) (A) (A) (A) (A) (A) (A) (A) (A) (A) (A) (A)
                 (A) (A) (A) (A) (A) (A) (A) (A) (A) (A) (A) (A)
                 (A) (A) (A) (A) (A) (A) (A) (A) (A) (A) (A) (A)
                 (A) (A) (A) (A) (A) (A) (A) (A) (A) (A) (A) (A)
                 (A) (A) (A) (A) (A) (A) (A) (A) (A) (A) (A) (A)
                 (A) (A) (A) (A) (A) (A) (A) (A) (A) (A) (A) (A)
                 (A) (A) (A) (A) (A) (A) (A) (A) (A) (A) (A) (A)
                 (A) (A) (A) (A) (A) (A) (A) (A) (A) (A) (A) (A)
                 (A) (A) (A) (A) (A) (A) (A) (A) (A) (A) (A) (A)
                 (A) (A) (A) (A) (A) (A) (A) (A) (A) (A) (A) (A)
                 (A) (A) (A) (A) (A) (A) (A) (A) (A) (A) (A) (A)
                 (A) (A) (A) (A) (A) (A)
 The electronic state is 1-A.
 Alpha  occ. eigenvalues -- -483.09013-483.09012-483.08873-483.08872-483.08866
 Alpha  occ. eigenvalues -- -483.08865-483.08843-483.08841 -62.67234 -62.67233
 Alpha  occ. eigenvalues --  -62.67103 -62.67102 -62.67087 -62.67086 -62.67054
 Alpha  occ. eigenvalues --  -62.67053 -56.48050 -56.48049 -56.47920 -56.47919
 Alpha  occ. eigenvalues --  -56.47904 -56.47904 -56.47874 -56.47873 -56.47617
 Alpha  occ. eigenvalues --  -56.47616 -56.47613 -56.47612 -56.47482 -56.47481
 Alpha  occ. eigenvalues --  -56.47481 -56.47480 -56.47467 -56.47466 -56.47466
 Alpha  occ. eigenvalues --  -56.47464 -56.47435 -56.47433 -56.47433 -56.47432
 Alpha  occ. eigenvalues --  -10.50478 -10.50477  -8.84195  -8.84194  -8.84070
 Alpha  occ. eigenvalues --   -8.84068  -8.84048  -8.84047  -8.84010  -8.84009
 Alpha  occ. eigenvalues --   -6.66899  -6.66898  -6.66782  -6.66781  -6.66760
 Alpha  occ. eigenvalues --   -6.66760  -6.66726  -6.66725  -6.65337  -6.65336
 Alpha  occ. eigenvalues --   -6.65325  -6.65324  -6.65203  -6.65202  -6.65201
 Alpha  occ. eigenvalues --   -6.65200  -6.65183  -6.65182  -6.65177  -6.65176
 Alpha  occ. eigenvalues --   -6.65142  -6.65141  -6.65138  -6.65137  -2.77232
 Alpha  occ. eigenvalues --   -2.77231  -2.77113  -2.77112  -2.77092  -2.77091
 Alpha  occ. eigenvalues --   -2.77057  -2.77056  -2.76797  -2.76796  -2.76787
 Alpha  occ. eigenvalues --   -2.76786  -2.76671  -2.76670  -2.76670  -2.76668
 Alpha  occ. eigenvalues --   -2.76650  -2.76650  -2.76646  -2.76645  -2.76614
 Alpha  occ. eigenvalues --   -2.76613  -2.76610  -2.76609  -2.75541  -2.75541
 Alpha  occ. eigenvalues --   -2.75540  -2.75540  -2.75410  -2.75410  -2.75409
 Alpha  occ. eigenvalues --   -2.75409  -2.75387  -2.75387  -2.75387  -2.75387
 Alpha  occ. eigenvalues --   -2.75347  -2.75347  -2.75346  -2.75345  -1.01376
 Alpha  occ. eigenvalues --   -1.01185  -0.89623  -0.89583  -0.89554  -0.89390
 Alpha  occ. eigenvalues --   -0.89360  -0.89302  -0.70025  -0.69650  -0.55239
 Alpha  occ. eigenvalues --   -0.55175  -0.54910  -0.54892  -0.54639  -0.54568
 Alpha  occ. eigenvalues --   -0.43401  -0.42882  -0.42749  -0.41910  -0.41428
 Alpha  occ. eigenvalues --   -0.39837  -0.39800  -0.39768  -0.39739  -0.37827
 Alpha  occ. eigenvalues --   -0.36972  -0.36928  -0.36611  -0.36599  -0.36378
 Alpha  occ. eigenvalues --   -0.36354
 Alpha virt. eigenvalues --   -0.01848  -0.01842   0.04035   0.04201   0.04231
 Alpha virt. eigenvalues --    0.04287   0.04434   0.04726   0.24710   0.31489
 Alpha virt. eigenvalues --    0.36231   0.36323   0.38076   0.40136   0.40389
 Alpha virt. eigenvalues --    0.41620   0.43652   0.44220   0.44431   0.44861
 Alpha virt. eigenvalues --    0.45774   0.46110   0.46211   0.46282   0.46871
 Alpha virt. eigenvalues --    0.47280   0.52077   0.55031   0.55057   0.55660
 Alpha virt. eigenvalues --    0.55712   0.56672   0.56749   0.57378   0.57604
 Alpha virt. eigenvalues --    0.57916   0.58374   0.58492   0.59031   0.59049
 Alpha virt. eigenvalues --    0.59153   0.59252   0.59459   0.59729   0.60328
 Alpha virt. eigenvalues --    0.60746   0.60806   0.60934   0.61064   0.61417
 Alpha virt. eigenvalues --    0.61974   0.62725   0.63586   0.64023   0.65124
 Alpha virt. eigenvalues --    0.67683   0.69530   0.70204   0.70909   0.71206
 Alpha virt. eigenvalues --    0.72089   0.72578   0.73289   0.76702   0.77072
 Alpha virt. eigenvalues --    0.81305   0.82171   0.85875   0.86993   0.88431
 Alpha virt. eigenvalues --    0.89449   0.89805   0.92011   0.92543   1.02626
 Alpha virt. eigenvalues --    1.03413   1.03876   1.04095   1.04583   1.05374
 Alpha virt. eigenvalues --    1.11452   1.12506   1.14502   1.15067   1.15328
 Alpha virt. eigenvalues --    1.16180   1.17114   1.19432   1.78218   1.78298
 Alpha virt. eigenvalues --    1.78429   1.78644   2.08003   2.08349   2.08493
 Alpha virt. eigenvalues --    2.09581   2.10066   2.10099   3.46478   3.46636
 Alpha virt. eigenvalues --    3.46736   3.46978   3.48310   3.48429   3.48467
 Alpha virt. eigenvalues --    3.48697   3.48791   3.49948   3.50112   3.50438
 Alpha virt. eigenvalues --    3.50508   3.50517   3.50632   3.51019   3.52777
 Alpha virt. eigenvalues --    3.52913   3.53296   3.53412   3.59738   3.59929
 Alpha virt. eigenvalues --    3.59975   3.60142   3.60355   3.60599   3.68960
 Alpha virt. eigenvalues --    3.69071   3.69199   3.69321   3.69400   3.69620
 Alpha virt. eigenvalues --    3.85833   3.86339   3.86621   3.87110   3.87224
 Alpha virt. eigenvalues --    3.87292   3.89205   3.89634
          Condensed to atoms (all electrons):
               1          2          3          4          5          6
     1  Br  34.915420   0.219101  -0.071257  -0.071166  -0.070990   0.000000
     2  C    0.219101   5.430032   0.222353   0.216838   0.215859  -0.000001
     3  Br  -0.071257   0.222353  34.916303  -0.070964  -0.070888   0.000000
     4  Br  -0.071166   0.216838  -0.070964  34.917198  -0.071237   0.000021
     5  Br  -0.070990   0.215859  -0.070888  -0.071237  34.927587  -0.000001
     6  Br   0.000000  -0.000001   0.000000   0.000021  -0.000001  34.916396
     7  C   -0.000832   0.000131  -0.000001  -0.002913   0.000139   0.222313
     8  Br   0.001345  -0.000831   0.000000   0.001304  -0.000019  -0.071270
     9  Br  -0.000019   0.000137  -0.000001   0.000332  -0.000008  -0.070892
    10  Br   0.001308  -0.002944   0.000021   0.000663   0.000302  -0.070966
               7          8          9         10
     1  Br  -0.000832   0.001345  -0.000019   0.001308
     2  C    0.000131  -0.000831   0.000137  -0.002944
     3  Br  -0.000001   0.000000  -0.000001   0.000021
     4  Br  -0.002913   0.001304   0.000332   0.000663
     5  Br   0.000139  -0.000019  -0.000008   0.000302
     6  Br   0.222313  -0.071270  -0.070892  -0.070966
     7  C    5.430201   0.219116   0.215904   0.216811
     8  Br   0.219116  34.915328  -0.070986  -0.071160
     9  Br   0.215904  -0.070986  34.927447  -0.071268
    10  Br   0.216811  -0.071160  -0.071268  34.917317
 Mulliken charges:
               1
     1  Br   0.077090
     2  C   -0.300675
     3  Br   0.074432
     4  Br   0.079924
     5  Br   0.069256
     6  Br   0.074400
     7  C   -0.300869
     8  Br   0.077173
     9  Br   0.069353
    10  Br   0.079917
 Sum of Mulliken charges =   0.00000
 Mulliken charges with hydrogens summed into heavy atoms:
               1
     1  Br   0.077090
     2  C   -0.300675
     3  Br   0.074432
     4  Br   0.079924
     5  Br   0.069256
     6  Br   0.074400
     7  C   -0.300869
     8  Br   0.077173
     9  Br   0.069353
    10  Br   0.079917
 APT charges:
               1
     1  Br  -0.240820
     2  C    0.983104
     3  Br  -0.264536
     4  Br  -0.223834
     5  Br  -0.257003
     6  Br  -0.264842
     7  C    0.984139
     8  Br  -0.239859
     9  Br  -0.256268
    10  Br  -0.220080
 Sum of APT charges =   0.00000
 APT charges with hydrogens summed into heavy atoms:
               1
     1  Br  -0.240820
     2  C    0.983104
     3  Br  -0.264536
     4  Br  -0.223834
     5  Br  -0.257003
     6  Br  -0.264842
     7  C    0.984139
     8  Br  -0.239859
     9  Br  -0.256268
    10  Br  -0.220080
 Electronic spatial extent (au):  <R**2>=          10373.4736
 Charge=              0.0000 electrons
 Dipole moment (field-independent basis, Debye):
    X=             -0.0006    Y=              0.0356    Z=             -0.0121  Tot=              0.0376
 Quadrupole moment (field-independent basis, Debye-Ang):
   XX=           -153.1542   YY=           -152.4756   ZZ=           -152.5887
   XY=              0.0514   XZ=              0.1593   YZ=             -0.0405
 Traceless Quadrupole moment (field-independent basis, Debye-Ang):
   XX=             -0.4147   YY=              0.2639   ZZ=              0.1508
   XY=              0.0514   XZ=              0.1593   YZ=             -0.0405
 Octapole moment (field-independent basis, Debye-Ang**2):
  XXX=             -0.0322  YYY=              5.0773  ZZZ=              8.0134  XYY=              3.5686
  XXY=              1.1650  XXZ=             -0.3687  XZZ=             -3.5477  YZZ=             -5.9072
  YYZ=             -7.7573  XYZ=              4.9132
 Hexadecapole moment (field-independent basis, Debye-Ang**3):
 XXXX=          -6548.6976 YYYY=          -1178.2175 ZZZZ=          -1197.2304 XXXY=             35.9703
 XXXZ=            110.7587 YYYX=            -24.4468 YYYZ=              8.1533 ZZZX=            -23.2440
 ZZZY=            -15.0603 XXYY=          -1364.7382 XXZZ=          -1345.1744 YYZZ=           -390.8457
 XXYZ=              7.1656 YYXZ=            -21.0025 ZZXY=             10.0538
 N-N= 5.134222008566D+03 E-N=-5.966207412361D+04  KE= 2.064452599853D+04
  Exact polarizability: 171.131   0.680 135.650   2.085  -0.199 135.047
 Approx polarizability: 188.396   0.135 181.038   0.404   0.009 181.057
   1 Symmetry operations used in ECPInt.
 ECPInt:  NShTT=    5886 NPrTT=   35326 LenC2=    4783 LenP2D=   16536.
 LDataN:  DoStor=T MaxTD1= 6 Len=  172
 Calling FoFJK, ICntrl=    100127 FMM=F ISym2X=0 I1Cent= 0 IOpClX= 0 NMat=1 NMatS=1 NMatT=0.
 ***** Axes restored to original set *****
 -------------------------------------------------------------------
 Center     Atomic                   Forces (Hartrees/Bohr)
 Number     Number              X              Y              Z
 -------------------------------------------------------------------
      1       35           0.000954375   -0.000268842    0.000020131
      2        6          -0.000085649   -0.000100773   -0.000215607
      3       35           0.000045169    0.000009175    0.000054882
      4       35           0.001453239    0.000209981   -0.000257171
      5       35           0.000995069    0.000214712    0.000200422
      6       35          -0.000026108    0.000037564   -0.000053000
      7        6           0.000027582   -0.000207137    0.000138902
      8       35          -0.000902528   -0.000180345   -0.000179976
      9       35          -0.000989019    0.000271307   -0.000040333
     10       35          -0.001472130    0.000014358    0.000331750
 -------------------------------------------------------------------
 Cartesian Forces:  Max     0.001472130 RMS     0.000536325
 FormGI is forming the generalized inverse of G from B-inverse, IUseBI=4.

 GradGradGradGradGradGradGradGradGradGradGradGradGradGradGradGradGradGrad
 Berny optimization.
 Internal  Forces:  Max     0.001326113 RMS     0.000455886
 Search for a local minimum.
 Step number   1 out of a maximum of   68
 All quantities printed in internal units (Hartrees-Bohrs-Radians)
 Mixed Optimization -- En-DIIS/RFO-DIIS
 Second derivative matrix not updated -- analytic derivatives used.
 ITU=  0
     Eigenvalues ---    0.00103   0.00213   0.00305   0.00415   0.00796
     Eigenvalues ---    0.04612   0.06755   0.07168   0.07794   0.09555
     Eigenvalues ---    0.10718   0.11673   0.13744   0.15121   0.16310
     Eigenvalues ---    0.16808   0.17522   0.17763   0.18295   0.22865
     Eigenvalues ---    0.23328   0.23831   0.249601000.000001000.00000
     Eigenvalues --- 1000.000001000.000001000.000001000.000001000.00000
     Eigenvalues --- 1000.000001000.000001000.000001000.000001000.00000
     Eigenvalues --- 1000.000001000.000001000.000001000.000001000.00000
     Eigenvalues --- 1000.000001000.000001000.000001000.000001000.00000
     Eigenvalues --- 1000.000001000.000001000.000001000.000001000.00000
     Eigenvalues --- 1000.000001000.000001000.000001000.000001000.00000
     Eigenvalues --- 1000.000001000.000001000.00000
 RFO step:  Lambda=-2.19968587D-04 EMin= 1.02675714D-03
 Linear search not attempted -- first point.
 Iteration  1 RMS(Cart)=  0.02354033 RMS(Int)=  0.00030522
 Iteration  2 RMS(Cart)=  0.00032417 RMS(Int)=  0.00011813
 Iteration  3 RMS(Cart)=  0.00000005 RMS(Int)=  0.00011813
 Iteration  1 RMS(Cart)=  0.00002448 RMS(Int)=  0.00001204
 Iteration  2 RMS(Cart)=  0.00000651 RMS(Int)=  0.00001317
 Iteration  3 RMS(Cart)=  0.00000173 RMS(Int)=  0.00001380
 Iteration  4 RMS(Cart)=  0.00000046 RMS(Int)=  0.00001399
 Variable       Old X    -DE/DX   Delta X   Delta X   Delta X     New X
                                 (Linear)    (Quad)   (Total)
    R1        3.66031  -0.00003   0.00000  -0.00271  -0.00271   3.65761
    R2        3.66385   0.00002   0.00000   0.00717   0.00717   3.67102
    R3        3.65740  -0.00003   0.00000  -0.00641  -0.00631   3.65109
    R4        3.66615   0.00011   0.00000   0.00048   0.00043   3.66658
    R5        9.25966   0.00120   0.00000   0.00000  -0.00000   9.25966
    R6        7.13249   0.00089   0.00000   0.10044   0.10059   7.23308
    R7        7.26497   0.00054   0.00000   0.15219   0.15220   7.41716
    R8        7.12630   0.00091   0.00000   0.08319   0.08333   7.20963
    R9        3.66389   0.00000   0.00000   0.00665   0.00665   3.67054
   R10        3.66020  -0.00003   0.00000  -0.00259  -0.00259   3.65761
   R11        3.66610   0.00010   0.00000   0.00039   0.00033   3.66643
   R12        3.65747  -0.00003   0.00000  -0.00645  -0.00638   3.65109
    A1        1.90940  -0.00076   0.00000  -0.00673  -0.00673   1.90267
    A2        1.91496   0.00121   0.00000   0.01110   0.01113   1.92609
    A3        1.91031  -0.00012   0.00000   0.00346   0.00341   1.91372
    A4        1.91077  -0.00002   0.00000  -0.00611  -0.00603   1.90474
    A5        1.90630  -0.00014   0.00000  -0.00669  -0.00655   1.89975
    A6        1.91204  -0.00019   0.00000   0.00488   0.00453   1.91657
    A7        2.27499   0.00004   0.00000  -0.03423  -0.03415   2.24084
    A8        1.41843   0.00018   0.00000  -0.01904  -0.01904   1.39940
    A9        0.85685  -0.00013   0.00000  -0.01546  -0.01532   0.84153
   A10        1.45313   0.00007   0.00000  -0.00207  -0.00208   1.45105
   A11        1.90939  -0.00071   0.00000  -0.00619  -0.00620   1.90320
   A12        1.90631  -0.00016   0.00000  -0.00636  -0.00621   1.90010
   A13        1.91077  -0.00001   0.00000  -0.00565  -0.00555   1.90521
   A14        1.91045  -0.00014   0.00000   0.00301   0.00298   1.91343
   A15        1.91491   0.00117   0.00000   0.01055   0.01057   1.92548
   A16        1.91196  -0.00016   0.00000   0.00456   0.00419   1.91615
   A17        1.45232   0.00006   0.00000  -0.00247  -0.00248   1.44984
   A18        0.85725  -0.00014   0.00000  -0.01432  -0.01423   0.84302
   A19        1.41920   0.00016   0.00000  -0.01505  -0.01505   1.40414
   A20        2.27615   0.00002   0.00000  -0.02908  -0.02906   2.24709
    D1        1.07824   0.00043   0.00000   0.00295   0.00292   1.08116
    D2        1.10254   0.00046   0.00000  -0.00837  -0.00826   1.09428
    D3       -3.10932   0.00024   0.00000  -0.00225  -0.00227  -3.11159
    D4       -3.08502   0.00027   0.00000  -0.01357  -0.01344  -3.09846
    D5       -1.01929  -0.00006   0.00000  -0.01120  -0.01120  -1.03049
    D6       -0.99499  -0.00003   0.00000  -0.02252  -0.02237  -1.01737
    D7       -1.08237  -0.00133   0.00000   0.01562   0.01568  -1.06669
    D8        3.11076  -0.00025   0.00000   0.02580   0.02579   3.13655
    D9        1.01799  -0.00002   0.00000   0.03439   0.03440   1.05239
   D10       -0.53179   0.00000   0.00000  -0.01976  -0.01960  -0.55139
   D11       -0.56357  -0.00005   0.00000  -0.00529  -0.00516  -0.56874
   D12        0.56785   0.00007   0.00000   0.00876   0.00872   0.57658
   D13       -2.54916   0.00010   0.00000  -0.00256  -0.00293  -2.55209
   D14       -2.59824   0.00003   0.00000   0.01913   0.01943  -2.57882
   D15        0.56793   0.00006   0.00000   0.00781   0.00777   0.57570
   D16       -0.56335  -0.00006   0.00000  -0.00580  -0.00562  -0.56896
   D17       -0.53143  -0.00002   0.00000  -0.02136  -0.02119  -0.55262
   D18        3.11065  -0.00022   0.00000   0.02326   0.02323   3.13388
   D19       -1.08240  -0.00127   0.00000   0.01367   0.01372  -1.06869
   D20        1.01793  -0.00002   0.00000   0.03129   0.03126   1.04919
   D21       -3.08594   0.00026   0.00000  -0.01384  -0.01373  -3.09966
   D22       -3.11034   0.00024   0.00000  -0.00169  -0.00169  -3.11203
   D23        1.10166   0.00042   0.00000  -0.00923  -0.00915   1.09251
   D24        1.07726   0.00040   0.00000   0.00292   0.00288   1.08014
   D25       -0.99595  -0.00003   0.00000  -0.02230  -0.02216  -1.01811
   D26       -1.02035  -0.00006   0.00000  -0.01015  -0.01013  -1.03048
         Item               Value     Threshold  Converged?
 Maximum Force            0.001312     0.000015     NO 
 RMS     Force            0.000421     0.000010     NO 
 Maximum Displacement     0.061584     0.000060     NO 
 RMS     Displacement     0.023574     0.000040     NO 
 Predicted change in Energy=-1.160981D-04
 GradGradGradGradGradGradGradGradGradGradGradGradGradGradGradGradGradGrad

                          Input orientation:                          
 ---------------------------------------------------------------------
 Center     Atomic      Atomic             Coordinates (Angstroms)
 Number     Number       Type             X           Y           Z
 ---------------------------------------------------------------------
      1         35           0        1.755198   -1.832569    0.145309
      2          6           0        2.354997    0.001267   -0.008111
      3         35           0        4.174032    0.017318   -0.689744
      4         35           0        1.215324    0.981870   -1.221568
      5         35           0        2.333166    0.843213    1.739830
      6         35           0       -4.360850   -0.397860    0.573475
      7          6           0       -2.544975   -0.004238    0.007394
      8         35           0       -1.947272   -1.389173   -1.205435
      9         35           0       -2.528761    1.709769   -0.901596
     10         35           0       -1.398169    0.068258    1.560615
 ---------------------------------------------------------------------
                    Distance matrix (angstroms):
                    1          2          3          4          5
     1  Br   0.000000
     2  C    1.935523   0.000000
     3  Br   3.157555   1.942619   0.000000
     4  Br   3.175041   1.932075   3.157079   0.000000
     5  Br   3.168020   1.940270   3.158119   3.168387   0.000000
     6  Br   6.296646   6.752788   8.637841   6.018268   6.907279
     7  C    4.674752   4.900000   6.755111   4.077083   5.245548
     8  Br   3.966030   4.677224   6.301945   3.952735   5.655111
     9  Br   5.656543   5.250561   6.916408   3.827583   5.600570
    10  Br   3.944611   4.068371   6.009670   3.924994   3.815172
                    6          7          8          9         10
     6  Br   0.000000
     7  C    1.942367   0.000000
     8  Br   3.157940   1.935524   0.000000
     9  Br   3.158241   1.940192   3.167632   0.000000
    10  Br   3.157402   1.932075   3.174374   3.167851   0.000000
 Stoichiometry    C2Br8
 Framework group  C1[X(C2Br8)]
 Deg. of freedom    24
 Full point group                 C1      NOp   1
 Largest Abelian subgroup         C1      NOp   1
 Largest concise Abelian subgroup C1      NOp   1
                         Standard orientation:                         
 ---------------------------------------------------------------------
 Center     Atomic      Atomic             Coordinates (Angstroms)
 Number     Number       Type             X           Y           Z
 ---------------------------------------------------------------------
      1         35           0       -1.848106    1.751397    0.564530
      2          6           0       -2.449689    0.001327   -0.002571
      3         35           0       -4.270233    0.141975   -0.665599
      4         35           0       -1.313466   -0.676275   -1.410679
      5         35           0       -2.424672   -1.217845    1.506615
      6         35           0        4.267736    0.255184    0.639229
      7          6           0        2.450308    0.001844    0.002390
      8         35           0        1.851028    1.627482   -0.860407
      9         35           0        2.430739   -1.459032   -1.274248
     10         35           0        1.306870   -0.423430    1.500590
 ---------------------------------------------------------------------
 Rotational constants (GHZ):           0.3186625           0.0909862           0.0909812
 Standard basis: def2SVPP (5D, 7F)
 There are   310 symmetry adapted cartesian basis functions of A   symmetry.
 There are   284 symmetry adapted basis functions of A   symmetry.
   284 basis functions,   690 primitive gaussians,   310 cartesian basis functions
   146 alpha electrons      146 beta electrons
       nuclear repulsion energy      5123.8816254708 Hartrees.
 NAtoms=   10 NActive=   10 NUniq=   10 SFac= 1.00D+00 NAtFMM=   60 NAOKFM=F Big=F
 Integral buffers will be    131072 words long.
 Raffenetti 2 integral format.
 Two-electron integral symmetry is turned on.
 Nuclear repulsion after empirical dispersion term =     5123.8736935891 Hartrees.
 One-electron integrals computed using PRISM.
   1 Symmetry operations used in ECPInt.
 ECPInt:  NShTT=    5886 NPrTT=   35326 LenC2=    4777 LenP2D=   16518.
 LDataN:  DoStor=T MaxTD1= 4 Len=   56
 NBasis=   284 RedAO= T EigKep=  5.42D-03  NBF=   284
 NBsUse=   284 1.00D-06 EigRej= -1.00D+00 NBFU=   284
 Initial guess from the checkpoint file:  "/scratch/user/peterchao1/peterchao1/6326747_1664223032000000078541621/Gau-105568.chk"
 B after Tr=     0.000000    0.000000    0.000000
         Rot=    0.993556   -0.113337   -0.001328    0.000307 Ang= -13.02 deg.
 ExpMin= 1.30D-01 ExpMax= 1.13D+05 ExpMxC= 1.70D+04 IAcc=3 IRadAn=         5 AccDes= 0.00D+00
 Harris functional with IExCor= 4639 and IRadAn=       5 diagonalized for initial guess.
 HarFok:  IExCor= 4639 AccDes= 0.00D+00 IRadAn=         5 IDoV= 1 UseB2=F ITyADJ=14
 ICtDFT=  3500011 ScaDFX=  1.000000  1.000000  1.000000  1.000000
 FoFCou: FMM=F IPFlag=           0 FMFlag=      100000 FMFlg1=           0
         NFxFlg=           0 DoJE=T BraDBF=F KetDBF=T FulRan=T
         wScrn=  0.000000 ICntrl=       500 IOpCl=  0 I1Cent=   200000004 NGrid=           0
         NMat0=    1 NMatS0=      1 NMatT0=    0 NMatD0=    1 NMtDS0=    0 NMtDT0=    0
 Petite list used in FoFCou.
 Keep R1 ints in memory in canonical form, NReq=1652903131.
 Gradient too large for Newton-Raphson -- use scaled steepest descent instead.
     Minimum is close to point  4 DX=  4.61D-02 DF= -6.00D-07 DXR=  3.70D-02 DFR=  1.37D-03 which will be used.
 Gradient too large for Newton-Raphson -- use scaled steepest descent instead.
     Accept linear search using points  2 and  3.
 LinEq1:  Iter=  0 NonCon=     1 RMS=6.55D-05 Max=2.95D-03 NDo=     1
 AX will form     1 AO Fock derivatives at one time.
 LinEq1:  Iter=  1 NonCon=     1 RMS=7.71D-06 Max=3.63D-04 NDo=     1
 LinEq1:  Iter=  2 NonCon=     1 RMS=4.04D-06 Max=1.45D-04 NDo=     1
 LinEq1:  Iter=  3 NonCon=     1 RMS=2.37D-06 Max=1.03D-04 NDo=     1
 LinEq1:  Iter=  4 NonCon=     1 RMS=1.17D-06 Max=2.98D-05 NDo=     1
 LinEq1:  Iter=  5 NonCon=     1 RMS=2.52D-07 Max=6.72D-06 NDo=     1
 LinEq1:  Iter=  6 NonCon=     1 RMS=9.33D-08 Max=2.77D-06 NDo=     1
 LinEq1:  Iter=  7 NonCon=     1 RMS=3.46D-08 Max=1.16D-06 NDo=     1
 LinEq1:  Iter=  8 NonCon=     1 RMS=1.43D-08 Max=3.60D-07 NDo=     1
 LinEq1:  Iter=  9 NonCon=     1 RMS=9.92D-09 Max=3.24D-07 NDo=     1
 LinEq1:  Iter= 10 NonCon=     1 RMS=4.20D-09 Max=1.78D-07 NDo=     1
 LinEq1:  Iter= 11 NonCon=     1 RMS=1.33D-09 Max=3.49D-08 NDo=     1
 LinEq1:  Iter= 12 NonCon=     0 RMS=2.81D-10 Max=5.13D-09 NDo=     1
 Linear equations converged to 2.007D-09 2.007D-08 after    12 iterations.
     Accept linear search using points  1 and  2.
     Minimum is close to point  2 DX= -1.90D-04 DF= -3.64D-12 DXR=  1.90D-04 DFR=  2.41D-08 which will be used.
 LinEq1:  Iter=  0 NonCon=     1 RMS=3.93D-07 Max=1.79D-05 NDo=     1
 LinEq1:  Iter=  1 NonCon=     1 RMS=1.34D-07 Max=4.27D-06 NDo=     1
 LinEq1:  Iter=  2 NonCon=     1 RMS=4.41D-08 Max=1.04D-06 NDo=     1
 LinEq1:  Iter=  3 NonCon=     1 RMS=1.43D-08 Max=3.55D-07 NDo=     1
 LinEq1:  Iter=  4 NonCon=     1 RMS=5.80D-09 Max=1.61D-07 NDo=     1
 LinEq1:  Iter=  5 NonCon=     1 RMS=1.48D-09 Max=3.68D-08 NDo=     1
 LinEq1:  Iter=  6 NonCon=     1 RMS=9.85D-10 Max=3.41D-08 NDo=     1
 LinEq1:  Iter=  7 NonCon=     1 RMS=5.39D-10 Max=1.67D-08 NDo=     1
 LinEq1:  Iter=  8 NonCon=     0 RMS=1.92D-10 Max=4.64D-09 NDo=     1
 Linear equations converged to 6.028D-10 6.028D-09 after     8 iterations.
 SCF Done:  E(RwB97XD) =  -20667.2717251     a.u. after    5 cycles
            Convg  =    0.1310D-07                    30 Fock formations.
              S**2 =  0.0000                  -V/T =  2.0011
 DoSCS=F DFT=T ScalE2(SS,OS)=  1.000000  1.000000
 Range of M.O.s used for correlation:     1   284
 NBasis=   284 NAE=   146 NBE=   146 NFC=     0 NFV=     0
 NROrb=    284 NOA=   146 NOB=   146 NVA=   138 NVB=   138
   1 Symmetry operations used in ECPInt.
 ECPInt:  NShTT=    5886 NPrTT=   35326 LenC2=    4777 LenP2D=   16518.
 LDataN:  DoStor=T MaxTD1= 5 Len=  102
 Symmetrizing basis deriv contribution to polar:
 IMax=3 JMax=2 DiffMx= 0.00D+00
 G2DrvN: will do    11 centers at a time, making    1 passes.
 Calling FoFCou, ICntrl=  3107 FMM=F I1Cent=   0 AccDes= 0.00D+00.
 End of G2Drv F.D. properties file   721 does not exist.
 End of G2Drv F.D. properties file   722 does not exist.
 End of G2Drv F.D. properties file   788 does not exist.
          IDoAtm=1111111111
          Differentiating once with respect to electric field.
                with respect to dipole field.
          Differentiating once with respect to nuclear coordinates.
 Keep R1 ints in memory in canonical form, NReq=1652907510.
          There are    33 degrees of freedom in the 1st order CPHF.  IDoFFX=6 NUNeed=     3.
     30 vectors produced by pass  0 Test12= 6.11D-14 3.03D-09 XBig12= 7.58D+01 2.01D+00.
 AX will form    30 AO Fock derivatives at one time.
     30 vectors produced by pass  1 Test12= 6.11D-14 3.03D-09 XBig12= 5.09D+00 5.55D-01.
     30 vectors produced by pass  2 Test12= 6.11D-14 3.03D-09 XBig12= 2.41D-01 7.40D-02.
     30 vectors produced by pass  3 Test12= 6.11D-14 3.03D-09 XBig12= 1.55D-02 2.69D-02.
     30 vectors produced by pass  4 Test12= 6.11D-14 3.03D-09 XBig12= 4.55D-04 4.39D-03.
     30 vectors produced by pass  5 Test12= 6.11D-14 3.03D-09 XBig12= 1.19D-05 7.30D-04.
     30 vectors produced by pass  6 Test12= 6.11D-14 3.03D-09 XBig12= 1.14D-07 5.49D-05.
     30 vectors produced by pass  7 Test12= 6.11D-14 3.03D-09 XBig12= 9.11D-10 7.51D-06.
      8 vectors produced by pass  8 Test12= 6.11D-14 3.03D-09 XBig12= 5.82D-12 4.47D-07.
      3 vectors produced by pass  9 Test12= 6.11D-14 3.03D-09 XBig12= 3.65D-14 3.14D-08.
      3 vectors produced by pass 10 Test12= 6.11D-14 3.03D-09 XBig12= 4.37D-16 4.69D-09.
 InvSVY:  IOpt=1 It=  1 EMax= 5.33D-15
 Solved reduced A of dimension   254 with    33 vectors.
 Isotropic polarizability for W=    0.000000      146.93 Bohr**3.
 End of Minotr F.D. properties file   721 does not exist.
 End of Minotr F.D. properties file   722 does not exist.
 End of Minotr F.D. properties file   788 does not exist.
   1 Symmetry operations used in ECPInt.
 ECPInt:  NShTT=    5886 NPrTT=   35326 LenC2=    4777 LenP2D=   16518.
 LDataN:  DoStor=T MaxTD1= 6 Len=  172
 Calling FoFJK, ICntrl=    100127 FMM=F ISym2X=0 I1Cent= 0 IOpClX= 0 NMat=1 NMatS=1 NMatT=0.
 ***** Axes restored to original set *****
 -------------------------------------------------------------------
 Center     Atomic                   Forces (Hartrees/Bohr)
 Number     Number              X              Y              Z
 -------------------------------------------------------------------
      1       35           0.000006409   -0.000007665   -0.000000333
      2        6           0.002879510   -0.000056777   -0.000056622
      3       35          -0.000002590    0.000007896    0.000027245
      4       35          -0.000140165   -0.000038374    0.000058329
      5       35           0.000101904    0.000049452    0.000049910
      6       35          -0.000018087   -0.000003858   -0.000006189
      7        6          -0.002712962   -0.000038684   -0.000025064
      8       35          -0.000008306    0.000002905   -0.000034569
      9       35          -0.000101008    0.000079422   -0.000032491
     10       35          -0.000004705    0.000005682    0.000019784
 -------------------------------------------------------------------
 Cartesian Forces:  Max     0.002879510 RMS     0.000723895
 FormGI is forming the generalized inverse of G from B-inverse, IUseBI=4.

 GradGradGradGradGradGradGradGradGradGradGradGradGradGradGradGradGradGrad
 Berny optimization.
 Using GEDIIS/GDIIS optimizer.
 Internal  Forces:  Max     0.002052461 RMS     0.000316932
 Search for a local minimum.
 Step number   2 out of a maximum of   68
 All quantities printed in internal units (Hartrees-Bohrs-Radians)
 Mixed Optimization -- En-DIIS/RFO-DIIS
 Swapping is turned off.
 Second derivative matrix not updated -- analytic derivatives used.
 DE= -1.08D-04 DEPred=-1.16D-04 R= 9.27D-01
 TightC=F SS=  1.41D+00  RLast= 2.26D-01 DXNew= 5.0454D-01 6.7729D-01
 Trust test= 9.27D-01 RLast= 2.26D-01 DXMaxT set to 5.05D-01
 ITU=  1  0
     Eigenvalues ---    0.00111   0.00245   0.00354   0.00661   0.00887
     Eigenvalues ---    0.04805   0.06862   0.07124   0.07879   0.09658
     Eigenvalues ---    0.10838   0.12062   0.13924   0.15164   0.16253
     Eigenvalues ---    0.16816   0.17699   0.17915   0.18392   0.22941
     Eigenvalues ---    0.23424   0.23960   0.251211000.000001000.00000
     Eigenvalues --- 1000.000001000.000001000.000001000.000001000.00000
     Eigenvalues --- 1000.000001000.000001000.000001000.000001000.00000
     Eigenvalues --- 1000.000001000.000001000.000001000.000001000.00000
     Eigenvalues --- 1000.000001000.000001000.000001000.000001000.00000
     Eigenvalues --- 1000.000001000.000001000.000001000.000001000.00000
     Eigenvalues --- 1000.000001000.000001000.000001000.000001000.00000
     Eigenvalues --- 1000.000001000.000001000.00000
 En-DIIS/RFO-DIIS/Sim-DIIS IScMMF=       -3 using points:     2    1
 RFO step:  Lambda=-7.33160066D-06.
 DidBck=F Rises=F RFO-DIIS coefs:    0.89455    0.10545
 Iteration  1 RMS(Cart)=  0.00628298 RMS(Int)=  0.00002415
 Iteration  2 RMS(Cart)=  0.00002433 RMS(Int)=  0.00001341
 Iteration  3 RMS(Cart)=  0.00000000 RMS(Int)=  0.00001341
 Iteration  1 RMS(Cart)=  0.00000146 RMS(Int)=  0.00000072
 Iteration  2 RMS(Cart)=  0.00000039 RMS(Int)=  0.00000079
 Variable       Old X    -DE/DX   Delta X   Delta X   Delta X     New X
                                 (Linear)    (Quad)   (Total)
    R1        3.65761   0.00001   0.00029  -0.00028   0.00001   3.65762
    R2        3.67102  -0.00001  -0.00076   0.00054  -0.00021   3.67080
    R3        3.65109   0.00034   0.00067  -0.00053   0.00013   3.65123
    R4        3.66658   0.00002  -0.00005   0.00050   0.00046   3.66704
    R5        9.25966   0.00205   0.00000   0.00000   0.00000   9.25966
    R6        7.23308   0.00035  -0.01061   0.00532  -0.00530   7.22778
    R7        7.41716  -0.00001  -0.01605  -0.01467  -0.03072   7.38644
    R8        7.20963   0.00041  -0.00879   0.02891   0.02011   7.22974
    R9        3.67054   0.00002  -0.00070   0.00101   0.00031   3.67085
   R10        3.65761   0.00002   0.00027  -0.00037  -0.00010   3.65751
   R11        3.66643   0.00002  -0.00003   0.00055   0.00052   3.66696
   R12        3.65109   0.00034   0.00067  -0.00044   0.00023   3.65132
    A1        1.90267  -0.00003   0.00071  -0.00058   0.00013   1.90280
    A2        1.92609  -0.00004  -0.00117   0.00132   0.00013   1.92622
    A3        1.91372  -0.00001  -0.00036   0.00022  -0.00014   1.91358
    A4        1.90474   0.00024   0.00064  -0.00037   0.00026   1.90500
    A5        1.89975   0.00017   0.00069  -0.00081  -0.00014   1.89961
    A6        1.91657  -0.00032  -0.00048   0.00018  -0.00024   1.91633
    A7        2.24084   0.00028   0.00360   0.00581   0.00940   2.25024
    A8        1.39940   0.00033   0.00201   0.00493   0.00695   1.40634
    A9        0.84153  -0.00005   0.00162   0.00091   0.00251   0.84404
   A10        1.45105   0.00026   0.00022  -0.00635  -0.00612   1.44494
   A11        1.90320  -0.00003   0.00065  -0.00097  -0.00032   1.90288
   A12        1.90010   0.00014   0.00066  -0.00114  -0.00050   1.89960
   A13        1.90521   0.00018   0.00059  -0.00094  -0.00036   1.90485
   A14        1.91343  -0.00005  -0.00031   0.00042   0.00011   1.91353
   A15        1.92548   0.00000  -0.00111   0.00179   0.00067   1.92616
   A16        1.91615  -0.00024  -0.00044   0.00080   0.00038   1.91653
   A17        1.44984   0.00019   0.00026  -0.00560  -0.00533   1.44451
   A18        0.84302  -0.00008   0.00150  -0.00063   0.00084   0.84386
   A19        1.40414   0.00025   0.00159  -0.00034   0.00126   1.40540
   A20        2.24709   0.00017   0.00306  -0.00101   0.00203   2.24912
    D1        1.08116  -0.00002  -0.00031  -0.00648  -0.00679   1.07436
    D2        1.09428  -0.00001   0.00087  -0.00403  -0.00316   1.09112
    D3       -3.11159   0.00008   0.00024  -0.00662  -0.00639  -3.11798
    D4       -3.09846   0.00008   0.00142  -0.00417  -0.00276  -3.10122
    D5       -1.03049   0.00023   0.00118  -0.00772  -0.00655  -1.03704
    D6       -1.01737   0.00024   0.00236  -0.00527  -0.00291  -1.02028
    D7       -1.06669  -0.00005  -0.00165  -0.00385  -0.00551  -1.07220
    D8        3.13655  -0.00011  -0.00272  -0.00278  -0.00550   3.13105
    D9        1.05239  -0.00031  -0.00363  -0.00196  -0.00559   1.04680
   D10       -0.55139  -0.00005   0.00207   0.00205   0.00411  -0.54728
   D11       -0.56874  -0.00005   0.00054  -0.00119  -0.00067  -0.56941
   D12        0.57658  -0.00001  -0.00092  -0.00008  -0.00099   0.57558
   D13       -2.55209  -0.00001   0.00031   0.00348   0.00381  -2.54828
   D14       -2.57882  -0.00001  -0.00205  -0.00258  -0.00464  -2.58346
   D15        0.57570  -0.00002  -0.00082   0.00098   0.00016   0.57587
   D16       -0.56896  -0.00007   0.00059  -0.00078  -0.00020  -0.56916
   D17       -0.55262  -0.00007   0.00223   0.00371   0.00592  -0.54670
   D18        3.13388  -0.00009  -0.00245   0.00055  -0.00190   3.13198
   D19       -1.06869  -0.00007  -0.00145  -0.00107  -0.00252  -1.07121
   D20        1.04919  -0.00025  -0.00330   0.00192  -0.00138   1.04781
   D21       -3.09966   0.00005   0.00145  -0.00368  -0.00224  -3.10191
   D22       -3.11203   0.00005   0.00018  -0.00707  -0.00688  -3.11892
   D23        1.09251  -0.00003   0.00096  -0.00299  -0.00204   1.09048
   D24        1.08014  -0.00002  -0.00030  -0.00638  -0.00668   1.07346
   D25       -1.01811   0.00019   0.00234  -0.00517  -0.00285  -1.02096
   D26       -1.03048   0.00019   0.00107  -0.00856  -0.00749  -1.03797
         Item               Value     Threshold  Converged?
 Maximum Force            0.000108     0.000015     NO 
 RMS     Force            0.000039     0.000010     NO 
 Maximum Displacement     0.022728     0.000060     NO 
 RMS     Displacement     0.006279     0.000040     NO 
 Predicted change in Energy=-3.666037D-06
 GradGradGradGradGradGradGradGradGradGradGradGradGradGradGradGradGradGrad

                          Input orientation:                          
 ---------------------------------------------------------------------
 Center     Atomic      Atomic             Coordinates (Angstroms)
 Number     Number       Type             X           Y           Z
 ---------------------------------------------------------------------
      1         35           0        1.756178   -1.833790    0.151361
      2          6           0        2.355274   -0.000004   -0.005421
      3         35           0        4.169722    0.016197   -0.698849
      4         35           0        1.207464    0.981621   -1.210465
      5         35           0        2.345193    0.841206    1.743254
      6         35           0       -4.359429   -0.401819    0.571325
      7          6           0       -2.544715   -0.003098    0.004525
      8         35           0       -1.943959   -1.386905   -1.208003
      9         35           0       -2.534775    1.710717   -0.905508
     10         35           0       -1.398265    0.073730    1.557951
 ---------------------------------------------------------------------
                    Distance matrix (angstroms):
                    1          2          3          4          5
     1  Br   0.000000
     2  C    1.935528   0.000000
     3  Br   3.157610   1.942506   0.000000
     4  Br   3.175248   1.932146   3.157335   0.000000
     5  Br   3.168070   1.940516   3.158072   3.168375   0.000000
     6  Br   6.295042   6.751394   8.633336   6.006578   6.918850
     7  C    4.676610   4.900000   6.751206   4.065062   5.258064
     8  Br   3.967189   4.674730   6.293253   3.942257   5.663146
     9  Br   5.665049   5.258260   6.918409   3.824779   5.620150
    10  Br   3.945585   4.066770   6.008239   3.908736   3.825812
                    6          7          8          9         10
     6  Br   0.000000
     7  C    1.942531   0.000000
     8  Br   3.157673   1.935473   0.000000
     9  Br   3.158038   1.940469   3.167938   0.000000
    10  Br   3.157225   1.932197   3.175176   3.168598   0.000000
 Stoichiometry    C2Br8
 Framework group  C1[X(C2Br8)]
 Deg. of freedom    24
 Full point group                 C1      NOp   1
 Largest Abelian subgroup         C1      NOp   1
 Largest concise Abelian subgroup C1      NOp   1
                         Standard orientation:                         
 ---------------------------------------------------------------------
 Center     Atomic      Atomic             Coordinates (Angstroms)
 Number     Number       Type             X           Y           Z
 ---------------------------------------------------------------------
      1         35           0       -1.850215    1.714377    0.670328
      2          6           0       -2.450011    0.001618   -0.002703
      3         35           0       -4.265165    0.184001   -0.669998
      4         35           0       -1.303711   -0.595222   -1.439005
      5         35           0       -2.438411   -1.303709    1.433120
      6         35           0        4.265390    0.222138    0.657663
      7          6           0        2.449986    0.001771    0.002549
      8         35           0        1.848413    1.674093   -0.763938
      9         35           0        2.438619   -1.381010   -1.358777
     10         35           0        1.305084   -0.515249    1.470635
 ---------------------------------------------------------------------
 Rotational constants (GHZ):           0.3186066           0.0909710           0.0909664
 Standard basis: def2SVPP (5D, 7F)
 There are   310 symmetry adapted cartesian basis functions of A   symmetry.
 There are   284 symmetry adapted basis functions of A   symmetry.
   284 basis functions,   690 primitive gaussians,   310 cartesian basis functions
   146 alpha electrons      146 beta electrons
       nuclear repulsion energy      5123.9830696418 Hartrees.
 NAtoms=   10 NActive=   10 NUniq=   10 SFac= 1.00D+00 NAtFMM=   60 NAOKFM=F Big=F
 Integral buffers will be    131072 words long.
 Raffenetti 2 integral format.
 Two-electron integral symmetry is turned on.
 Nuclear repulsion after empirical dispersion term =     5123.9751413845 Hartrees.
 One-electron integrals computed using PRISM.
   1 Symmetry operations used in ECPInt.
 ECPInt:  NShTT=    5886 NPrTT=   35326 LenC2=    4773 LenP2D=   16512.
 LDataN:  DoStor=T MaxTD1= 4 Len=   56
 NBasis=   284 RedAO= T EigKep=  5.42D-03  NBF=   284
 NBsUse=   284 1.00D-06 EigRej= -1.00D+00 NBFU=   284
 Initial guess from the checkpoint file:  "/scratch/user/peterchao1/peterchao1/6326747_1664223032000000078541621/Gau-105568.chk"
 B after Tr=    -0.000000   -0.000000    0.000000
         Rot=    0.999567   -0.029421    0.000725   -0.000098 Ang=  -3.37 deg.
 ExpMin= 1.30D-01 ExpMax= 1.13D+05 ExpMxC= 1.70D+04 IAcc=3 IRadAn=         5 AccDes= 0.00D+00
 Harris functional with IExCor= 4639 and IRadAn=       5 diagonalized for initial guess.
 HarFok:  IExCor= 4639 AccDes= 0.00D+00 IRadAn=         5 IDoV= 1 UseB2=F ITyADJ=14
 ICtDFT=  3500011 ScaDFX=  1.000000  1.000000  1.000000  1.000000
 FoFCou: FMM=F IPFlag=           0 FMFlag=      100000 FMFlg1=           0
         NFxFlg=           0 DoJE=T BraDBF=F KetDBF=T FulRan=T
         wScrn=  0.000000 ICntrl=       500 IOpCl=  0 I1Cent=   200000004 NGrid=           0
         NMat0=    1 NMatS0=      1 NMatT0=    0 NMatD0=    1 NMtDS0=    0 NMtDT0=    0
 Petite list used in FoFCou.
 Keep R1 ints in memory in canonical form, NReq=1652903131.
 LinEq1:  Iter=  0 NonCon=     1 RMS=3.13D-05 Max=1.14D-03 NDo=     1
 AX will form     1 AO Fock derivatives at one time.
 LinEq1:  Iter=  1 NonCon=     1 RMS=4.10D-06 Max=1.98D-04 NDo=     1
 LinEq1:  Iter=  2 NonCon=     1 RMS=2.42D-06 Max=9.00D-05 NDo=     1
 LinEq1:  Iter=  3 NonCon=     1 RMS=1.04D-06 Max=3.09D-05 NDo=     1
 LinEq1:  Iter=  4 NonCon=     1 RMS=3.94D-07 Max=7.44D-06 NDo=     1
 LinEq1:  Iter=  5 NonCon=     1 RMS=9.58D-08 Max=1.71D-06 NDo=     1
 LinEq1:  Iter=  6 NonCon=     1 RMS=3.77D-08 Max=8.27D-07 NDo=     1
 LinEq1:  Iter=  7 NonCon=     1 RMS=1.85D-08 Max=6.31D-07 NDo=     1
 LinEq1:  Iter=  8 NonCon=     1 RMS=1.16D-08 Max=2.91D-07 NDo=     1
 LinEq1:  Iter=  9 NonCon=     1 RMS=4.14D-09 Max=6.05D-08 NDo=     1
 LinEq1:  Iter= 10 NonCon=     1 RMS=9.58D-10 Max=2.31D-08 NDo=     1
 LinEq1:  Iter= 11 NonCon=     0 RMS=3.81D-10 Max=1.09D-08 NDo=     1
 Linear equations converged to 2.007D-09 2.007D-08 after    11 iterations.
     Minimum is close to point  2 DX=  1.19D-05 DF=  0.00D+00 DXR=  1.19D-05 DFR=  0.00D+00 which will be used.
 LinEq1:  Iter=  0 NonCon=     1 RMS=9.83D-08 Max=3.75D-06 NDo=     1
 LinEq1:  Iter=  1 NonCon=     1 RMS=2.77D-08 Max=6.15D-07 NDo=     1
 LinEq1:  Iter=  2 NonCon=     1 RMS=7.68D-09 Max=1.61D-07 NDo=     1
 LinEq1:  Iter=  3 NonCon=     1 RMS=2.26D-09 Max=4.52D-08 NDo=     1
 LinEq1:  Iter=  4 NonCon=     1 RMS=1.16D-09 Max=2.82D-08 NDo=     1
 LinEq1:  Iter=  5 NonCon=     1 RMS=7.38D-10 Max=1.96D-08 NDo=     1
 LinEq1:  Iter=  6 NonCon=     1 RMS=3.08D-10 Max=6.88D-09 NDo=     1
 LinEq1:  Iter=  7 NonCon=     1 RMS=8.94D-11 Max=2.98D-09 NDo=     1
 LinEq1:  Iter=  8 NonCon=     0 RMS=3.26D-11 Max=8.40D-10 NDo=     1
 Linear equations converged to 1.490D-10 1.490D-09 after     8 iterations.
 QCLLim is confused:  Bigger=T Turned=T
 NLin=  3 IMin12=  1  2 I12=  0  2 IX=  1 XLMin= 0.000D+00 XLMax= 0.000D+00
 X = 0.000D+00 1.000D+00 2.000D+00
 DE= 0.000D+00 1.455D-11 9.459D-11
 Search did not lower the energy significantly.
 No lower point found -- try reversing direction.
 QCLLim is confused:  Bigger=T Turned=T
 NLin=  3 IMin12=  1  2 I12=  0  2 IX=  1 XLMin= 0.000D+00 XLMax= 0.000D+00
 X = 0.000D+00 1.000D+00 2.000D+00
 DE= 0.000D+00 4.875D-10 9.823D-10
 Search did not lower the energy significantly.
 No lower point found -- switch to scaled steepest descent.
 QCLLim is confused:  Bigger=T Turned=T
 NLin=  3 IMin12=  1  2 I12=  0  2 IX=  1 XLMin= 0.000D+00 XLMax= 0.000D+00
 X = 0.000D+00 1.000D+00 2.000D+00
 DE= 0.000D+00 6.548D-11 1.710D-09
 LinEq1:  Iter=  0 NonCon=     1 RMS=1.81D-08 Max=6.12D-07 NDo=     1
 LinEq1:  Iter=  1 NonCon=     1 RMS=1.21D-08 Max=3.12D-07 NDo=     1
 LinEq1:  Iter=  2 NonCon=     1 RMS=3.62D-09 Max=6.82D-08 NDo=     1
 LinEq1:  Iter=  3 NonCon=     1 RMS=8.69D-10 Max=2.08D-08 NDo=     1
 LinEq1:  Iter=  4 NonCon=     1 RMS=3.58D-10 Max=7.57D-09 NDo=     1
 LinEq1:  Iter=  5 NonCon=     1 RMS=1.92D-10 Max=6.20D-09 NDo=     1
 LinEq1:  Iter=  6 NonCon=     1 RMS=1.20D-10 Max=2.99D-09 NDo=     1
 LinEq1:  Iter=  7 NonCon=     1 RMS=4.39D-11 Max=1.47D-09 NDo=     1
 LinEq1:  Iter=  8 NonCon=     1 RMS=1.24D-11 Max=3.17D-10 NDo=     1
 LinEq1:  Iter=  9 NonCon=     0 RMS=4.59D-12 Max=1.23D-10 NDo=     1
 Linear equations converged to 3.134D-11 3.134D-10 after     9 iterations.
 QCLLim is confused:  Bigger=T Turned=T
 NLin=  5 IMin12=  1  2 I12=  0  2 IX=  1 XLMin= 0.000D+00 XLMax= 0.000D+00
 X = 0.000D+00 1.000D+00 2.000D+00 4.000D+00 8.000D+00
 DE= 0.000D+00 8.004D-11 9.459D-11 1.019D-10 4.948D-10
 QCLLim is confused:  Bigger=T Turned=T
 NLin=  7 IMin12=  1  2 I12=  0  2 IX=  1 XLMin= 0.000D+00 XLMax= 0.000D+00
 X = 0.000D+00 1.000D+00 2.000D+00 4.000D+00 8.000D+00 1.600D+01 3.200D+01
 DE= 0.000D+00 8.004D-11 9.459D-11 1.019D-10 4.948D-10 1.353D-09 5.522D-09
 QCLLim is confused:  Bigger=T Turned=T
 NLin= 11 IMin12=  1  2 I12=  0  2 IX=  1 XLMin= 0.000D+00 XLMax= 0.000D+00
 X = 0.000D+00 1.000D+00 2.000D+00 4.000D+00 8.000D+00 1.600D+01 3.200D+01 6.400D+01 1.280D+02 2.560D+02 5.120D+02
 DE= 0.000D+00 8.004D-11 9.459D-11 1.019D-10 4.948D-10 1.353D-09 5.522D-09 2.274D-08 9.200D-08 3.708D-07 1.489D-06
 QCLLim is confused:  Bigger=T Turned=T
 NLin= 12 IMin12=  1  2 I12=  0  2 IX=  1 XLMin= 0.000D+00 XLMax= 0.000D+00
 X = 0.000D+00 1.000D+00 2.000D+00 4.000D+00 8.000D+00 1.600D+01 3.200D+01 6.400D+01 1.280D+02 2.560D+02 5.120D+02 1.024D+03
 DE= 0.000D+00 8.004D-11 9.459D-11 1.019D-10 4.948D-10 1.353D-09 5.522D-09 2.274D-08 9.200D-08 3.708D-07 1.489D-06 5.970D-06
 QCLLim is confused:  Bigger=T Turned=T
 NLin= 15 IMin12=  1  2 I12=  0  2 IX=  1 XLMin= 0.000D+00 XLMax= 0.000D+00
 X = 0.000D+00 1.000D+00 2.000D+00 4.000D+00 8.000D+00 1.600D+01 3.200D+01 6.400D+01 1.280D+02 2.560D+02 5.120D+02 1.024D+03 2.048D+03 4.096D+03 8.192D+03
 DE= 0.000D+00 8.004D-11 9.459D-11 1.019D-10 4.948D-10 1.353D-09 5.522D-09 2.274D-08 9.200D-08 3.708D-07 1.489D-06 5.970D-06 2.391D-05 9.571D-05 3.832D-04
 Search did not lower the energy significantly.
 No lower point found -- using Newton-Raphson step.
 SCF Done:  E(RwB97XD) =  -20667.2717273     a.u. after    4 cycles
            Convg  =    0.2960D-09                    80 Fock formations.
              S**2 =  0.0000                  -V/T =  2.0011
 DoSCS=F DFT=T ScalE2(SS,OS)=  1.000000  1.000000
 Range of M.O.s used for correlation:     1   284
 NBasis=   284 NAE=   146 NBE=   146 NFC=     0 NFV=     0
 NROrb=    284 NOA=   146 NOB=   146 NVA=   138 NVB=   138
   1 Symmetry operations used in ECPInt.
 ECPInt:  NShTT=    5886 NPrTT=   35326 LenC2=    4773 LenP2D=   16512.
 LDataN:  DoStor=T MaxTD1= 5 Len=  102
 Symmetrizing basis deriv contribution to polar:
 IMax=3 JMax=2 DiffMx= 0.00D+00
 G2DrvN: will do    11 centers at a time, making    1 passes.
 Calling FoFCou, ICntrl=  3107 FMM=F I1Cent=   0 AccDes= 0.00D+00.
 End of G2Drv F.D. properties file   721 does not exist.
 End of G2Drv F.D. properties file   722 does not exist.
 End of G2Drv F.D. properties file   788 does not exist.
          IDoAtm=1111111111
          Differentiating once with respect to electric field.
                with respect to dipole field.
          Differentiating once with respect to nuclear coordinates.
 Keep R1 ints in memory in canonical form, NReq=1652907510.
          There are    33 degrees of freedom in the 1st order CPHF.  IDoFFX=6 NUNeed=     3.
     30 vectors produced by pass  0 Test12= 6.11D-14 3.03D-09 XBig12= 7.58D+01 2.04D+00.
 AX will form    30 AO Fock derivatives at one time.
     30 vectors produced by pass  1 Test12= 6.11D-14 3.03D-09 XBig12= 5.08D+00 5.55D-01.
     30 vectors produced by pass  2 Test12= 6.11D-14 3.03D-09 XBig12= 2.42D-01 7.62D-02.
     30 vectors produced by pass  3 Test12= 6.11D-14 3.03D-09 XBig12= 1.56D-02 2.75D-02.
     30 vectors produced by pass  4 Test12= 6.11D-14 3.03D-09 XBig12= 4.58D-04 4.45D-03.
     30 vectors produced by pass  5 Test12= 6.11D-14 3.03D-09 XBig12= 1.20D-05 7.31D-04.
     30 vectors produced by pass  6 Test12= 6.11D-14 3.03D-09 XBig12= 1.15D-07 6.01D-05.
     29 vectors produced by pass  7 Test12= 6.11D-14 3.03D-09 XBig12= 9.37D-10 7.48D-06.
      6 vectors produced by pass  8 Test12= 6.11D-14 3.03D-09 XBig12= 5.80D-12 4.45D-07.
      3 vectors produced by pass  9 Test12= 6.11D-14 3.03D-09 XBig12= 4.23D-14 4.14D-08.
      3 vectors produced by pass 10 Test12= 6.11D-14 3.03D-09 XBig12= 5.83D-16 6.08D-09.
 InvSVY:  IOpt=1 It=  1 EMax= 5.33D-15
 Solved reduced A of dimension   251 with    33 vectors.
 Isotropic polarizability for W=    0.000000      146.90 Bohr**3.
 End of Minotr F.D. properties file   721 does not exist.
 End of Minotr F.D. properties file   722 does not exist.
 End of Minotr F.D. properties file   788 does not exist.
   1 Symmetry operations used in ECPInt.
 ECPInt:  NShTT=    5886 NPrTT=   35326 LenC2=    4773 LenP2D=   16512.
 LDataN:  DoStor=T MaxTD1= 6 Len=  172
 Calling FoFJK, ICntrl=    100127 FMM=F ISym2X=0 I1Cent= 0 IOpClX= 0 NMat=1 NMatS=1 NMatT=0.
 ***** Axes restored to original set *****
 -------------------------------------------------------------------
 Center     Atomic                   Forces (Hartrees/Bohr)
 Number     Number              X              Y              Z
 -------------------------------------------------------------------
      1       35           0.000002544    0.000005930    0.000004705
      2        6           0.002813921    0.000033391    0.000031493
      3       35          -0.000002281    0.000004002   -0.000003759
      4       35          -0.000008153   -0.000024848   -0.000025518
      5       35           0.000002006   -0.000007010   -0.000023315
      6       35           0.000000672   -0.000001706   -0.000001006
      7        6          -0.002779635    0.000032203   -0.000004836
      8       35          -0.000024842   -0.000003441    0.000009583
      9       35          -0.000009337   -0.000004416    0.000020403
     10       35           0.000005104   -0.000034106   -0.000007751
 -------------------------------------------------------------------
 Cartesian Forces:  Max     0.002813921 RMS     0.000722316
 FormGI is forming the generalized inverse of G from B-inverse, IUseBI=4.

 GradGradGradGradGradGradGradGradGradGradGradGradGradGradGradGradGradGrad
 Berny optimization.
 Using GEDIIS/GDIIS optimizer.
 Internal  Forces:  Max     0.002059290 RMS     0.000315815
 Search for a local minimum.
 Step number   3 out of a maximum of   68
 All quantities printed in internal units (Hartrees-Bohrs-Radians)
 Mixed Optimization -- En-DIIS/RFO-DIIS
 Swapping is turned off.
 Second derivative matrix not updated -- analytic derivatives used.
 DE= -2.19D-06 DEPred=-3.67D-06 R= 5.97D-01
 TightC=F SS=  1.41D+00  RLast= 4.59D-02 DXNew= 8.4853D-01 1.3773D-01
 Trust test= 5.97D-01 RLast= 4.59D-02 DXMaxT set to 5.05D-01
 ITU=  1  1  0
     Eigenvalues ---    0.00125   0.00257   0.00320   0.00503   0.00607
     Eigenvalues ---    0.04621   0.06797   0.07052   0.07880   0.09620
     Eigenvalues ---    0.10806   0.11678   0.13779   0.15153   0.16196
     Eigenvalues ---    0.16662   0.17651   0.17887   0.18134   0.22897
     Eigenvalues ---    0.23376   0.23914   0.249221000.000001000.00000
     Eigenvalues --- 1000.000001000.000001000.000001000.000001000.00000
     Eigenvalues --- 1000.000001000.000001000.000001000.000001000.00000
     Eigenvalues --- 1000.000001000.000001000.000001000.000001000.00000
     Eigenvalues --- 1000.000001000.000001000.000001000.000001000.00000
     Eigenvalues --- 1000.000001000.000001000.000001000.000001000.00000
     Eigenvalues --- 1000.000001000.000001000.000001000.000001000.00000
     Eigenvalues --- 1000.000001000.000001000.00000
 En-DIIS/RFO-DIIS/Sim-DIIS IScMMF=       -3 using points:     3    2    1
 RFO step:  Lambda=-1.32362019D-06.
 DidBck=T Rises=F RFO-DIIS coefs:    0.65191    0.35577   -0.00768
 Iteration  1 RMS(Cart)=  0.00390160 RMS(Int)=  0.00001262
 Iteration  2 RMS(Cart)=  0.00001335 RMS(Int)=  0.00000470
 Iteration  3 RMS(Cart)=  0.00000000 RMS(Int)=  0.00000470
 Iteration  1 RMS(Cart)=  0.00000007 RMS(Int)=  0.00000004
 Variable       Old X    -DE/DX   Delta X   Delta X   Delta X     New X
                                 (Linear)    (Quad)   (Total)
    R1        3.65762  -0.00000  -0.00002   0.00014   0.00012   3.65774
    R2        3.67080  -0.00000   0.00013  -0.00017  -0.00004   3.67076
    R3        3.65123   0.00027  -0.00009   0.00015   0.00005   3.65128
    R4        3.66704  -0.00006  -0.00016  -0.00003  -0.00019   3.66686
    R5        9.25966   0.00206  -0.00000   0.00000  -0.00000   9.25966
    R6        7.22778   0.00032   0.00262  -0.00112   0.00149   7.22928
    R7        7.38644   0.00010   0.01186  -0.00586   0.00600   7.39244
    R8        7.22974   0.00032  -0.00636   0.00737   0.00101   7.23075
    R9        3.67085  -0.00000  -0.00006   0.00008   0.00003   3.67088
   R10        3.65751  -0.00001   0.00001   0.00002   0.00003   3.65755
   R11        3.66696  -0.00005  -0.00018   0.00007  -0.00011   3.66684
   R12        3.65132   0.00025  -0.00013   0.00011  -0.00002   3.65130
    A1        1.90280  -0.00002  -0.00010   0.00012   0.00002   1.90282
    A2        1.92622  -0.00004   0.00004  -0.00029  -0.00025   1.92597
    A3        1.91358  -0.00003   0.00007   0.00002   0.00009   1.91367
    A4        1.90500   0.00019  -0.00014   0.00017   0.00004   1.90504
    A5        1.89961   0.00019  -0.00000   0.00006   0.00006   1.89967
    A6        1.91633  -0.00029   0.00012  -0.00007   0.00004   1.91637
    A7        2.25024   0.00020  -0.00353   0.00189  -0.00166   2.24858
    A8        1.40634   0.00029  -0.00256   0.00129  -0.00127   1.40507
    A9        0.84404  -0.00009  -0.00099   0.00051  -0.00048   0.84355
   A10        1.44494   0.00027   0.00211  -0.00209   0.00002   1.44496
   A11        1.90288  -0.00004   0.00006  -0.00012  -0.00006   1.90282
   A12        1.89960   0.00019   0.00013  -0.00015  -0.00003   1.89957
   A13        1.90485   0.00019   0.00008  -0.00005   0.00003   1.90488
   A14        1.91353  -0.00001  -0.00001   0.00021   0.00020   1.91373
   A15        1.92616  -0.00003  -0.00015  -0.00002  -0.00017   1.92599
   A16        1.91653  -0.00030  -0.00010   0.00012   0.00002   1.91655
   A17        1.44451   0.00027   0.00184  -0.00261  -0.00077   1.44374
   A18        0.84386  -0.00009  -0.00040  -0.00006  -0.00045   0.84341
   A19        1.40540   0.00030  -0.00055  -0.00137  -0.00192   1.40348
   A20        2.24912   0.00021  -0.00093  -0.00134  -0.00228   2.24684
    D1        1.07436  -0.00001   0.00239   0.00379   0.00618   1.08055
    D2        1.09112  -0.00001   0.00104  -0.00201  -0.00098   1.09015
    D3       -3.11798   0.00007   0.00221   0.00387   0.00608  -3.11190
    D4       -3.10122   0.00006   0.00086  -0.00194  -0.00108  -3.10230
    D5       -1.03704   0.00025   0.00219   0.00400   0.00620  -1.03084
    D6       -1.02028   0.00024   0.00084  -0.00180  -0.00096  -1.02124
    D7       -1.07220  -0.00003   0.00204  -0.00000   0.00204  -1.07016
    D8        3.13105  -0.00011   0.00211  -0.00019   0.00192   3.13297
    D9        1.04680  -0.00028   0.00221  -0.00040   0.00181   1.04861
   D10       -0.54728  -0.00006  -0.00158  -0.00870  -0.01028  -0.55756
   D11       -0.56941  -0.00006   0.00019  -0.00103  -0.00083  -0.57024
   D12        0.57558  -0.00002   0.00041   0.00010   0.00051   0.57609
   D13       -2.54828  -0.00002  -0.00135  -0.00510  -0.00646  -2.55474
   D14       -2.58346  -0.00001   0.00176   0.00617   0.00794  -2.57551
   D15        0.57587  -0.00001   0.00000   0.00098   0.00097   0.57684
   D16       -0.56916  -0.00005   0.00003  -0.00043  -0.00041  -0.56957
   D17       -0.54670  -0.00005  -0.00222  -0.00705  -0.00926  -0.55597
   D18        3.13198  -0.00011   0.00084   0.00215   0.00299   3.13497
   D19       -1.07121  -0.00005   0.00098   0.00204   0.00302  -1.06819
   D20        1.04781  -0.00028   0.00072   0.00223   0.00295   1.05076
   D21       -3.10191   0.00007   0.00068  -0.00283  -0.00215  -3.10406
   D22       -3.11892   0.00007   0.00238   0.00218   0.00456  -3.11436
   D23        1.09048   0.00001   0.00064  -0.00264  -0.00200   1.08848
   D24        1.07346   0.00001   0.00235   0.00237   0.00472   1.07818
   D25       -1.02096   0.00024   0.00082  -0.00298  -0.00215  -1.02311
   D26       -1.03797   0.00024   0.00253   0.00203   0.00456  -1.03341
         Item               Value     Threshold  Converged?
 Maximum Force            0.000029     0.000015     NO 
 RMS     Force            0.000011     0.000010     NO 
 Maximum Displacement     0.011603     0.000060     NO 
[...]
     4  35     0.02  -0.00  -0.02     0.03  -0.02  -0.04     0.03  -0.02  -0.04
     5  35     0.01   0.02  -0.02     0.00  -0.01  -0.00     0.00   0.01  -0.03
     6  35    -0.03   0.00  -0.01    -0.01  -0.01   0.00     0.00   0.00  -0.01
     7   6     0.55  -0.41  -0.24     0.17   0.52  -0.35    -0.20  -0.22   0.69
     8  35    -0.02   0.03  -0.01     0.01  -0.04   0.02    -0.01   0.03  -0.02
     9  35    -0.01   0.03   0.02    -0.00  -0.01  -0.00     0.00  -0.01  -0.02
    10  35    -0.03  -0.00   0.03    -0.02  -0.02   0.03     0.03   0.02  -0.05

 -------------------
 - Thermochemistry -
 -------------------
 Temperature   298.150 Kelvin.  Pressure   1.00000 Atm.
 Atom     1 has atomic number 35 and mass  78.91834
 Atom     2 has atomic number  6 and mass  12.00000
 Atom     3 has atomic number 35 and mass  78.91834
 Atom     4 has atomic number 35 and mass  78.91834
 Atom     5 has atomic number 35 and mass  78.91834
 Atom     6 has atomic number 35 and mass  78.91834
 Atom     7 has atomic number  6 and mass  12.00000
 Atom     8 has atomic number 35 and mass  78.91834
 Atom     9 has atomic number 35 and mass  78.91834
 Atom    10 has atomic number 35 and mass  78.91834
 Molecular mass:   655.34669 amu.
 Principal axes and moments of inertia in atomic units:
                           1         2         3
     Eigenvalues --  5664.25061********************
           X            1.00000   0.00000   0.00000
           Y           -0.00000   1.00000   0.00000
           Z           -0.00000  -0.00000   1.00000
 This molecule is an asymmetric top.
 Rotational symmetry number  1.
 Warning -- assumption of classical behavior for rotation
           may cause significant error
 Rotational temperatures (Kelvin)      0.01529     0.00437     0.00437
 Rotational constants (GHZ):           0.31862     0.09097     0.09097
 Zero-point vibrational energy      39854.6 (Joules/Mol)
                                    9.52547 (Kcal/Mol)
 Warning -- explicit consideration of  18 degrees of freedom as
           vibrations may cause significant error
 Vibrational temperatures:     24.60    36.25    42.34    50.12    52.92
          (Kelvin)             62.81   187.59   190.57   190.81   194.90
                              274.54   274.99   275.16   276.50   277.50
                              277.83   407.28   407.76   999.17  1002.74
                             1010.68  1015.97  1025.48  1028.30
 
 Zero-point correction=                           0.015180 (Hartree/Particle)
 Thermal correction to Energy=                    0.030948
 Thermal correction to Enthalpy=                  0.031892
 Thermal correction to Gibbs Free Energy=        -0.037536
 Sum of electronic and zero-point Energies=         -20667.256548
 Sum of electronic and thermal Energies=            -20667.240780
 Sum of electronic and thermal Enthalpies=          -20667.239835
 Sum of electronic and thermal Free Energies=       -20667.309264
 
                     E (Thermal)             CV                S
                      KCal/Mol        Cal/Mol-Kelvin    Cal/Mol-Kelvin
 Total                   19.420             44.983            146.124
 Electronic               0.000              0.000              0.000
 Translational            0.889              2.981             45.322
 Rotational               0.889              2.981             36.054
 Vibrational             17.643             39.021             64.749
 Vibration     1          0.593              1.986              6.945
 Vibration     2          0.593              1.985              6.176
 Vibration     3          0.593              1.984              5.868
 Vibration     4          0.594              1.983              5.533
 Vibration     5          0.594              1.982              5.425
 Vibration     6          0.595              1.980              5.086
 Vibration     7          0.612              1.923              2.940
 Vibration     8          0.613              1.921              2.910
 Vibration     9          0.613              1.921              2.908
 Vibration    10          0.613              1.918              2.867
 Vibration    11          0.634              1.853              2.220
 Vibration    12          0.634              1.852              2.217
 Vibration    13          0.634              1.852              2.216
 Vibration    14          0.634              1.851              2.207
 Vibration    15          0.635              1.850              2.200
 Vibration    16          0.635              1.849              2.198
 Vibration    17          0.682              1.705              1.515
 Vibration    18          0.682              1.704              1.513
                       Q            Log10(Q)             Ln(Q)
 Total Bot       0.184253D+18         17.265414         39.755084
 Total V=0       0.176862D+25         24.247635         55.832242
 Vib (Bot)       0.165316D+02          1.218314          2.805272
 Vib (Bot)    1  0.121156D+02          1.083344          2.494492
 Vib (Bot)    2  0.821915D+01          0.914827          2.106467
 Vib (Bot)    3  0.703654D+01          0.847359          1.951116
 Vib (Bot)    4  0.594181D+01          0.773919          1.782014
 Vib (Bot)    5  0.562644D+01          0.750234          1.727477
 Vib (Bot)    6  0.473839D+01          0.675631          1.555698
 Vib (Bot)    7  0.156350D+01          0.194097          0.446924
 Vib (Bot)    8  0.153822D+01          0.187019          0.430627
 Vib (Bot)    9  0.153616D+01          0.186438          0.429288
 Vib (Bot)   10  0.150284D+01          0.176913          0.407357
 Vib (Bot)   11  0.104856D+01          0.020592          0.047416
 Vib (Bot)   12  0.104674D+01          0.019837          0.045677
 Vib (Bot)   13  0.104601D+01          0.019537          0.044986
 Vib (Bot)   14  0.104060D+01          0.017286          0.039802
 Vib (Bot)   15  0.103659D+01          0.015608          0.035939
 Vib (Bot)   16  0.103526D+01          0.015049          0.034652
 Vib (Bot)   17  0.678093D+00         -0.168711         -0.388471
 Vib (Bot)   18  0.677160D+00         -0.169309         -0.389848
 Vib (V=0)       0.158685D+09          8.200535         18.882430
 Vib (V=0)    1  0.126259D+02          1.101262          2.535750
 Vib (V=0)    2  0.873435D+01          0.941230          2.167263
 Vib (V=0)    3  0.755428D+01          0.878193          2.022114
 Vib (V=0)    4  0.646281D+01          0.810421          1.866064
 Vib (V=0)    5  0.614861D+01          0.788777          1.816226
 Vib (V=0)    6  0.526470D+01          0.721374          1.661025
 Vib (V=0)    7  0.214150D+01          0.330718          0.761506
 Vib (V=0)    8  0.211744D+01          0.325812          0.750210
 Vib (V=0)    9  0.211549D+01          0.325410          0.749285
 Vib (V=0)   10  0.208383D+01          0.318863          0.734209
 Vib (V=0)   11  0.166167D+01          0.220544          0.507822
 Vib (V=0)   12  0.166002D+01          0.220114          0.506832
 Vib (V=0)   13  0.165937D+01          0.219944          0.506439
 Vib (V=0)   14  0.165449D+01          0.218665          0.503495
 Vib (V=0)   15  0.165088D+01          0.217716          0.501309
 Vib (V=0)   16  0.164968D+01          0.217400          0.500581
 Vib (V=0)   17  0.134250D+01          0.127915          0.294535
 Vib (V=0)   18  0.134175D+01          0.127672          0.293976
 Electronic      0.100000D+01          0.000000          0.000000
 Translational   0.659418D+09          8.819161         20.306868
 Rotational      0.169020D+08          7.227939         16.642945
 ***** Axes restored to original set *****
 -------------------------------------------------------------------
 Center     Atomic                   Forces (Hartrees/Bohr)
 Number     Number              X              Y              Z
 -------------------------------------------------------------------
      1       35           0.000000578    0.000000620    0.000000038
      2        6           0.002810902    0.000001865   -0.000008297
      3       35          -0.000000584    0.000000530   -0.000003423
      4       35          -0.000001527    0.000000325   -0.000000321
      5       35           0.000001223    0.000001232   -0.000002437
      6       35           0.000000583   -0.000000750    0.000003677
      7        6          -0.002810949   -0.000003002    0.000007919
      8       35          -0.000000604   -0.000001305    0.000002385
      9       35          -0.000001506   -0.000001808    0.000000129
     10       35           0.000001885    0.000002294    0.000000329
 -------------------------------------------------------------------
 Cartesian Forces:  Max     0.002810949 RMS     0.000725783

 ----------------------------------------------------------------------

 Electric dipole moment (input orientation):
 (Debye = 10**-18 statcoulomb cm , SI units = C m)
                  (au)            (Debye)         (10**-30 SI)
   Tot        0.157085D-01      0.399271D-01      0.133183D+00
   x          0.123308D-03      0.313418D-03      0.104545D-02
   y         -0.148789D-01     -0.378183D-01     -0.126148D+00
   z         -0.503617D-02     -0.128007D-01     -0.426984D-01

 Dipole polarizability, Alpha (input orientation).
 (esu units = cm**3 , SI units = C**2 m**2 J**-1)
 Alpha(0;0):
               (au)            (10**-24 esu)      (10**-40 SI)
   iso        0.146902D+03      0.217686D+02      0.242208D+02
   aniso      0.341343D+02      0.505818D+01      0.562799D+01
   xx         0.169537D+03      0.251228D+02      0.279528D+02
   yx         0.612361D+00      0.907425D-01      0.100965D+00
   yy         0.135897D+03      0.201378D+02      0.224064D+02
   zx        -0.189695D+01     -0.281099D+00     -0.312765D+00
   zy         0.235942D+00      0.349629D-01      0.389015D-01
   zz         0.135272D+03      0.200452D+02      0.223033D+02

 ----------------------------------------------------------------------

 Dipole orientation:
    35          3.30520836          1.37157187          3.21460477
     6          4.45061939         -0.03493325          0.03827852
    35          7.86990441         -1.30354751          0.45521377
    35          2.27313408         -2.77776767         -0.99456174
    35          4.46252503          2.57815028         -2.53413108
    35         -8.23417462          1.31094172          0.30800876
     6         -4.80846578          0.03719392         -0.03524735
    35         -3.70934432         -1.30930231          3.18289902
    35         -4.78184750         -2.62295605         -2.55880919
    35         -2.61765418          2.76233231         -1.08656955

 Electric dipole moment (dipole orientation):
 (Debye = 10**-18 statcoulomb cm , SI units = C m)
                  (au)            (Debye)         (10**-30 SI)
   Tot        0.157085D-01      0.399271D-01      0.133183D+00
   x          0.000000D+00      0.000000D+00      0.000000D+00
   y          0.000000D+00      0.000000D+00      0.000000D+00
   z          0.157085D-01      0.399271D-01      0.133183D+00

 Dipole polarizability, Alpha (dipole orientation).
 (esu units = cm**3 , SI units = C**2 m**2 J**-1)
 Alpha(0;0):
               (au)            (10**-24 esu)      (10**-40 SI)
   iso        0.146902D+03      0.217686D+02      0.242208D+02
   aniso      0.341343D+02      0.505818D+01      0.562799D+01
   xx         0.169511D+03      0.251189D+02      0.279486D+02
   yx        -0.218632D+01     -0.323980D+00     -0.360476D+00
   yy         0.135216D+03      0.200370D+02      0.222942D+02
   zx         0.291501D+00      0.431960D-01      0.480621D-01
   zy        -0.149383D-01     -0.221362D-02     -0.246299D-02
   zz         0.135978D+03      0.201499D+02      0.224198D+02

 ----------------------------------------------------------------------
 1\1\GINC-C015\Freq\RwB97XD\def2SVPP\C2Br8\PETERCHAO1\26-Sep-2022\0\\# 
 opt=(calcall,tight,modredundant) wb97xd scf=(qc,verytight) def2svpp in
 t=grid=ultrafine\\dimer\\0,1\Br,1.758226125,-1.8341269675,0.1558263867
 \C,2.3553195483,0.0000010645,-0.0055161809\Br,4.170154358,0.016466411,
 -0.6979116059\Br,1.2069791905,0.9766030627,-1.2141182302\Br,2.34314868
 03,0.8460120995,1.7407024335\Br,-4.3597605352,-0.4013541584,0.57062051
 22\C,-2.5446690112,-0.0029701001,0.0046485794\Br,-1.9456866036,-1.3842
 452935,-1.2116591795\Br,-2.5331410517,1.7133588939,-0.9004465432\Br,-1
 .3978817006,0.068108988,1.5580237779\\Version=ES64L-G16RevB.01\State=1
 -A\HF=-20667.2717276\RMSD=5.300e-10\RMSF=7.258e-04\ZeroPoint=0.0151798
 \Thermal=0.030948\Dipole=0.0001233,-0.0148789,-0.0050362\DipoleDeriv=-
 0.1422548,-0.1445538,0.0134839,-0.1784543,-0.5005574,0.0387173,0.01778
 5,0.0321907,-0.0737157,1.1101854,0.0080768,-0.0189241,-0.0074888,0.919
 6627,0.013043,0.0086946,0.0261109,0.9219485,-0.5999073,-0.0076267,0.17
 8101,0.0013114,-0.0657136,-0.000773,0.1850101,-0.0017963,-0.132011,-0.
 2405892,0.1453544,-0.1850729,0.1735727,-0.1887597,0.1425914,-0.2373786
 ,0.1381657,-0.2431356,-0.1257548,-0.0016212,0.011571,-0.0027083,-0.163
 485,-0.1917029,0.0199085,-0.1976258,-0.4729158,-0.6002112,-0.099711,0.
 1476117,-0.1110352,-0.0904266,0.0314659,0.1480333,0.0324693,-0.1073971
 ,1.11079,0.0048191,-0.0190788,0.0032517,0.9394866,-0.0001247,0.0130323
 ,-0.0131344,0.9021061,-0.1458431,0.1083398,0.096334,0.1301737,-0.31754
 81,-0.2177747,0.1184975,-0.210945,-0.2575017,-0.1255066,-0.0051116,0.0
 102986,-0.0096124,-0.4581292,0.2026163,0.0180225,0.2083241,-0.1781976,
 -0.2409083,-0.0079658,-0.2343244,0.0009895,-0.0745297,-0.0180588,-0.29
 16053,-0.0137593,-0.35918\Polar=169.5368165,0.6123608,135.896793,-1.89
 69522,0.2359416,135.2718537\PG=C01 [X(C2Br8)]\NImag=0\\0.04835065,0.04
 265512,0.16108856,-0.00421002,-0.01091426,0.03072984,-0.03224160,-0.02
 636598,0.00243025,0.21021933,-0.02705945,-0.10404598,0.00701224,-0.001
 11542,0.21435019,0.00241476,0.00685656,-0.02427862,0.00304954,-0.00203
 766,0.21149243,-0.01799385,-0.01494603,0.00793412,-0.09809949,-0.00071
 470,0.02861489,0.15379522,-0.02111572,-0.00862511,0.00770082,-0.000734
 04,-0.02317533,0.00021877,0.00111521,0.02967949,0.00757006,0.00526724,
 0.00121257,0.02865655,0.00020017,-0.03406775,-0.04762469,-0.00054179,0
 .04776067,0.00341777,0.00351713,-0.00110044,-0.05620763,0.02821633,-0.
 03550142,-0.02963686,0.01290543,-0.00927556,0.08713365,0.00885004,-0.0
 2502046,0.01646979,0.02757108,-0.04687180,0.02912012,0.00957663,0.0006
 6884,0.00204854,-0.04467012,0.06773239,-0.00295942,0.01251471,-0.00285
 599,-0.03465369,0.02896529,-0.05950144,-0.00362311,0.00082744,0.003966
 09,0.05530875,-0.04768991,0.08868325,0.00247966,-0.00620773,-0.0048372
 2,-0.02373249,0.00015633,0.00077971,-0.00798846,0.00783150,0.02085036,
 -0.00086795,-0.00098950,-0.01456133,0.03390355,-0.00504086,-0.02282612
 ,-0.01967118,0.00010668,-0.03991482,-0.03418496,0.00482382,0.00146327,
 -0.00694061,0.00078016,0.00481644,0.00439869,0.00023780,0.05652152,-0.
 00270686,-0.01336550,-0.00445402,0.00052466,-0.03413030,-0.09315574,0.
 01476848,-0.00820798,-0.01893766,-0.01073598,-0.00071111,-0.02881751,-
 0.00114906,0.05654357,0.14507018,-0.00006794,-0.00006524,0.00005059,0.
 00053066,-0.00007731,-0.00030542,-0.00021416,0.00001572,0.00010691,0.0
 0008664,0.00007740,-0.00011955,-0.00042311,-0.00002792,0.00012408,0.15
 389580,-0.00000712,0.00015714,0.00000976,0.00003728,-0.00028026,0.0001
 0881,-0.00007581,0.00005482,-0.00001456,0.00020718,0.00004387,-0.00019
 535,-0.00005574,0.00002849,0.00003877,0.02742631,0.03556103,0.00003827
 ,0.00007707,0.00007863,-0.00005711,-0.00009521,-0.00054348,0.00007653,
 0.00000918,0.00006271,-0.00006468,-0.00005542,0.00024310,-0.00013519,0
 .00005397,0.00020993,-0.03892412,-0.00847756,0.04185448,0.00041682,0.0
 0011378,-0.00005197,-0.00121740,0.00007990,-0.00031959,0.00053878,0.00
 000190,-0.00006572,0.00126773,-0.00037796,0.00004572,-0.00050228,-0.00
 017429,0.00005032,-0.09814794,-0.01650020,0.02342509,0.20964370,-0.000
 18230,-0.00105655,0.00002675,0.00012848,0.00193311,-0.00107585,0.00025
 883,-0.00037372,0.00023096,-0.00038252,-0.00056351,0.00097811,-0.00019
 278,-0.00025167,-0.00007757,-0.01646166,-0.02682744,0.00515519,-0.0015
 0240,0.21110076,0.00019194,-0.00033785,-0.00045451,-0.00030139,0.00014
 926,0.00312293,-0.00019549,0.00001694,-0.00045477,0.00006170,0.0006386
 6,-0.00144376,0.00057771,-0.00036964,-0.00126908,0.02338994,0.00516357
 ,-0.03035847,0.00286047,0.00220696,0.21497025,-0.00257250,0.00038126,-
 0.00101180,0.00042359,0.00004510,0.00028104,-0.00007472,-0.00001442,0.
 00003113,-0.00134486,-0.00109770,0.00001535,0.00005380,0.00005546,-0.0
 0001989,-0.01805493,0.01255501,0.01863570,-0.03186343,0.02071364,0.018
 01072,0.04731063,0.00038133,0.00071687,0.00018898,-0.00005579,-0.00102
 478,-0.00001317,0.00000371,0.00018282,-0.00001850,-0.00109942,-0.00060
 424,-0.00012084,0.00007721,0.00021209,0.00026073,0.00734534,0.00102804
 ,-0.00539902,0.02038464,-0.06907304,-0.04015583,-0.03298222,0.10405394
 ,-0.00101370,0.00048809,-0.00017696,-0.00009916,-0.00041945,-0.0005077
 1,0.00007447,0.00006101,0.00006171,0.00013812,-0.00006242,0.00035241,0
 .00009840,0.00024637,0.00037048,0.01527327,-0.00784411,-0.00842872,0.0
 1771899,-0.04025998,-0.05881478,-0.02896078,0.06529232,0.08664420,0.00
 005557,-0.00012216,0.00003243,-0.00049499,-0.00017299,0.00057847,-0.00
 042078,0.00012239,-0.00007565,-0.00295106,0.00163716,-0.00082565,0.000
 09036,-0.00000306,0.00003453,-0.00799159,-0.01866533,0.01215645,-0.023
 99235,-0.00057051,0.00057224,0.00259995,0.00800818,-0.00022270,0.03390
 281,-0.00003730,0.00051500,-0.00014342,0.00010853,-0.00082897,0.000699
 24,-0.00005141,0.00013676,-0.00010780,0.00110837,-0.00001144,-0.000454
 68,-0.00001813,0.00009231,-0.00009782,-0.01263899,-0.01295907,0.011361
 60,-0.00020063,-0.09112287,0.03551275,0.00565512,-0.03211556,-0.000700
 59,0.00040972,0.14150435,-0.00004800,-0.00016217,0.00007143,0.00015008
 ,0.00041381,-0.00070867,0.00012035,-0.00009386,0.00010304,-0.00020522,
 -0.00033166,0.00059621,0.00002919,0.00001984,0.00019832,0.00902698,0.0
 1260753,-0.00452799,0.00036786,0.03551974,-0.04203236,0.00079621,-0.00
 698465,0.00486841,-0.00117011,-0.05902328,0.06021847,-0.00184458,0.001
 03984,0.00076407,0.00082003,0.00064221,0.00040800,0.00009430,-0.000127
 97,-0.00017338,-0.00089743,-0.00057703,0.00137293,-0.00301307,-0.00075
 781,-0.00089029,-0.02961341,-0.00492158,-0.01515094,-0.05614362,-0.001
 80878,-0.04516785,0.00352246,-0.00206297,-0.00300691,-0.00079793,0.005
 66472,-0.00906735,0.08787325,0.00155625,-0.00090334,-0.00067947,0.0003
 1916,-0.00014137,0.00030814,0.00000975,-0.00001184,-0.00012366,-0.0005
 8254,-0.00019008,0.00077655,-0.00083896,-0.00014151,-0.00025279,-0.005
 59364,0.00319338,-0.00262981,-0.00182475,-0.02376506,-0.00282483,-0.00
 531123,-0.00337613,-0.01680124,0.00935660,-0.00521051,0.01803470,0.002
 90937,0.03054646,0.00072296,-0.00042388,0.00012763,0.00030026,-0.00005
 816,-0.00185197,-0.00014556,0.00000947,0.00029338,0.00137473,0.0005734
 1,-0.00122236,-0.00165259,-0.00009605,0.00078509,-0.00862269,-0.001396
 84,0.00140979,-0.04403116,-0.00270432,-0.08326547,-0.00777767,-0.01305
 002,-0.02436903,-0.01108001,0.01295399,-0.01878687,0.07091172,0.004192
 40,0.12687980\\-0.00000058,-0.00000062,-0.00000004,-0.00281090,-0.0000
 0187,0.00000830,0.00000058,-0.00000053,0.00000342,0.00000153,-0.000000
 33,0.00000032,-0.00000122,-0.00000123,0.00000244,-0.00000058,0.0000007
 5,-0.00000368,0.00281095,0.00000300,-0.00000792,0.00000060,0.00000131,
 -0.00000239,0.00000151,0.00000181,-0.00000013,-0.00000188,-0.00000229,
 -0.00000033\\\@


 HE THAT IS UNAWARE OF HIS IGNORANCE WILL BE MISLED BY HIS KNOWLEDGE.

                                        -- WHATLEY
 Job cpu time:       0 days  5 hours 14 minutes 42.9 seconds.
 Elapsed time:       0 days  0 hours 44 minutes 30.9 seconds.
 File lengths (MBytes):  RWF=    156 Int=      0 D2E=      0 Chk=      7 Scr=      1
 Normal termination of Gaussian 16 at Mon Sep 26 15:55:28 2022.
real 2695.99
user 18770.71
sys 112.33
