You are running Q-Chem version: 5.3.2

#
# job setting
#
local host:  c015.cluster
current dir: /scratch/user/peterchao1/peterchao1/7000878_1675661404000000706137419
input file:  qchem_test.inp
output file: 
nprocs     : 0
nthreads   : 8
#
# qchem installation setting
#
QC:          /sw/restricted/qchem/sw/5.3.2
QCAUX:       /sw/restricted/qchem/sw/5.3.2/qcaux
QCPROG:      /sw/restricted/qchem/sw/5.3.2/exe/qcprog.exe_s
QCPROG_S:    /sw/restricted/qchem/sw/5.3.2/exe/qcprog.exe_s
PARALLEL:    -DSERIAL
QCMPI:       seq
#
# qchem directory setting
#
qcrun:       qchem266156
QCSCRATCH:   /scratch/user/peterchao1/peterchao1/7000878_1675661404000000706137419
QCLOCALSCR:  
QCTMPDIR:    /scratch/user/peterchao1/peterchao1/7000878_1675661404000000706137419
QCFILEPREF:  /scratch/user/peterchao1/peterchao1/7000878_1675661404000000706137419/qchem266156
QCSAVEDIR:   
workdirs:    /scratch/user/peterchao1/peterchao1/7000878_1675661404000000706137419/qchem266156
workdir0:    /scratch/user/peterchao1/peterchao1/7000878_1675661404000000706137419/qchem266156
partmpdirs =  
#
# parallel setting
#
QCRSH:           ssh
QCMPI:           seq
QCMPIRUN:        
QCMACHINEFILE:   /scratch/user/peterchao1/peterchao1/7000878_1675661404000000706137419/qchem266156/hostfile

#
# env setting
#
exported envs:   QC QCAUX QCSCRATCH QCRUNNAME QCFILEPREF QCPROG QCPROG_S GUIFILE

Running Job 1 of 1 qchem_test.inp
qchem qchem_test.inp_266156.0 /scratch/user/peterchao1/peterchao1/7000878_1675661404000000706137419/qchem266156/ 0
/sw/restricted/qchem/sw/5.3.2/exe/qcprog.exe_s qchem_test.inp_266156.0 /scratch/user/peterchao1/peterchao1/7000878_1675661404000000706137419/qchem266156/
                  Welcome to Q-Chem
     A Quantum Leap Into The Future Of Chemistry


 Q-Chem 5.3, Q-Chem, Inc., Pleasanton, CA (2020)

 License issued to: MRG Daniel Tabor and Mike Hall, Texas A&M University

 Yihan Shao,  Zhengting Gan,  E. Epifanovsky,  A. T. B. Gilbert,  M. Wormit,  
 J. Kussmann,  A. W. Lange,  A. Behn,  Jia Deng,  Xintian Feng,  D. Ghosh,  
 M. Goldey,  P. R. Horn,  L. D. Jacobson,  I. Kaliman,  T. Kus,  A. Landau,  
 Jie Liu,  E. I. Proynov,  R. M. Richard,  R. P. Steele,  E. J. Sundstrom,  
 H. L. Woodcock III,  P. M. Zimmerman,  D. Zuev,  B. Alam,  B. Albrecht,  
 A. Aldossary,  E. Alguire,  S. A. Baeppler,  D. Barton,  Z. Benda,  
 Y. A. Bernard,  E. J. Berquist,  K. B. Bravaya,  H. Burton,  K. Carter-Fenk,  
 D. Casanova,  Chun-Min Chang,  Yunqing Chen,  A. Chien,  K. D. Closser,  
 M. P. Coons,  S. Coriani,  S. Dasgupta,  A. L. Dempwolff,  M. Diedenhofen,  
 Hainam Do,  R. G. Edgar,  Po-Tung Fang,  S. Faraji,  S. Fatehi,  
 Qingguo Feng,  J. Fosso-Tande,  J. Gayvert,  Qinghui Ge,  A. Ghysels,  
 G. Gidofalvi,  J. Gomes,  J. Gonthier,  S. Gulania,  A. Gunina,  D. Hait,  
 M. W. D. Hanson-Heine,  S. Hammes-Schiffer,  P. H. P. Harbach,  
 A. W. Hauser,  M. F. Herbst,  J. E. Herr,  E. G. Hohenstein,  Z. C. Holden,  
 S. Houck,  Kerwin Hui,  B. C. Huynh,  M. Ivanov,  T.-C. Jagau,  Hyunjun Ji,  
 B. Kaduk,  K. Khistyaev,  Jaehoon Kim,  P. Klunzinger,  K. Koh,  
 D. Kosenkov,  L. Koulias,  T. Kowalczyk,  C. M. Krauter,  A. Kunitsa,  
 Ka Un Lao,  A. Laurent,  K. V. Lawler,  Joonho Lee,  D. Lefrancois,  
 S. Lehtola,  D. S. Levine,  Yi-Pei Li,  You-Sheng Lin,  Fenglai Liu,  
 Kuan-Yu Liu,  E. Livshits,  M. Loipersberger,  A. Luenser,  A. Manjanath,  
 P. Manohar,  E. Mansoor,  S. F. Manzer,  Shan-Ping Mao,  Yuezhi Mao,  
 N. Mardirossian,  A. V. Marenich,  T. Markovich,  L. A. Martinez-Martinez,  
 S. A. Maurer,  N. J. Mayhall,  S. C. McKenzie,  J.-M. Mewes,  P. Morgante,  
 A. F. Morrison,  J. W. Mullinax,  K. Nanda,  T. S. Nguyen-Beck,  
 R. Olivares-Amaya,  K. J. Oosterbaan,  J. A. Parkhill,  S. K. Paul,  
 F. Pavosevic,  Zheng Pei,  T. M. Perrine,  F. Plasser,  P. Pokhilko,  
 S. Prager,  A. Prociuk,  E. Ramos,  B. Rana,  D. R. Rehn,  F. Rob,  
 E. Rossomme,  M. Scheurer,  M. Schneider,  N. Sergueev,  S. M. Sharada,  
 S. Sharma,  W. Skomorowski,  D. W. Small,  T. Stauch,  C. J. Stein,  
 T. Stein,  Yu-Chuan Su,  S. P. Veccham,  Zhen Tao,  A. J. W. Thom,  
 A. Tkatchenko,  T. Tsuchimochi,  N. M. Tubman,  L. Vogt,  M. L. Vidal,  
 O. Vydrov,  M. A. Watson,  J. Wenzel,  M. de Wergifosse,  T. A. Wesolowski,  
 A. White,  J. Witte,  A. Yamada,  Jun Yang,  K. Yao,  S. Yeganeh,  
 S. R. Yost,  Zhi-Qiang You,  A. Zech,  Igor Ying Zhang,  Xing Zhang,  
 Yan Zhao,  Ying Zhu,  B. R. Brooks,  G. K. L. Chan,  C. J. Cramer,  
 M. S. Gordon,  W. J. Hehre,  A. Klamt,  M. W. Schmidt,  C. D. Sherrill,  
 D. G. Truhlar,  A. Aspuru-Guzik,  R. Baer,  A. T. Bell,  N. A. Besley,  
 Jeng-Da Chai,  A. E. DePrince, III,  R. A. DiStasio Jr.,  A. Dreuw,  
 B. D. Dunietz,  T. R. Furlani,  Chao-Ping Hsu,  Yousung Jung,  Jing Kong,  
 D. S. Lambrecht,  WanZhen Liang,  C. Ochsenfeld,  V. A. Rassolov,  
 L. V. Slipchenko,  J. E. Subotnik,  T. Van Voorhis,  J. M. Herbert,  
 A. I. Krylov,  P. M. W. Gill,  M. Head-Gordon

 Contributors to earlier versions of Q-Chem not listed above: 
 R. D. Adamson,  B. Austin,  J. Baker,  G. J. O. Beran,  K. Brandhorst,  
 S. T. Brown,  E. F. C. Byrd,  A. K. Chakraborty,  C.-L. Cheng,  
 Siu Hung Chien,  D. M. Chipman,  D. L. Crittenden,  H. Dachsel,  
 R. J. Doerksen,  A. D. Dutoi,  L. Fusti-Molnar,  W. A. Goddard III,  
 A. Golubeva-Zadorozhnaya,  S. R. Gwaltney,  G. Hawkins,  A. Heyden,  
 S. Hirata,  G. Kedziora,  F. J. Keil,  C. Kelley,  Jihan Kim,  R. A. King,  
 R. Z. Khaliullin,  P. P. Korambath,  W. Kurlancheek,  A. M. Lee,  M. S. Lee,  
 S. V. Levchenko,  Ching Yeh Lin,  D. Liotard,  R. C. Lochan,  I. Lotan,  
 P. E. Maslen,  N. Nair,  D. P. O'Neill,  D. Neuhauser,  E. Neuscamman,  
 C. M. Oana,  R. Olson,  B. Peters,  R. Peverati,  P. A. Pieniazek,  
 Y. M. Rhee,  J. Ritchie,  M. A. Rohrdanz,  E. Rosta,  N. J. Russ,  
 H. F. Schaefer III,  N. E. Schultz,  N. Shenvi,  A. C. Simmonett,  A. Sodt,  
 D. Stuck,  K. S. Thanthiriwatte,  V. Vanovschi,  Tao Wang,  A. Warshel,  
 C. F. Williams,  Q. Wu,  X. Xu,  W. Zhang

 Please cite Q-Chem as follows:
 Y. Shao et al., Mol. Phys. 113, 184-215 (2015)
 DOI: 10.1080/00268976.2014.952696

 Q-Chem 5.3.2 for Intel X86 EM64T Linux

 Parts of Q-Chem use Armadillo 9.800.1 (Horizon Scraper).
 http://arma.sourceforge.net/

 Q-Chem begins on Sun Feb  5 23:30:05 2023  

Host: 
0

     Scratch files written to /scratch/user/peterchao1/peterchao1/7000878_1675661404000000706137419/qchem266156//
 Dec820 |scratch|qcdevops|jenkins|workspace|build_RNUM -1
Processing $rem in /sw/restricted/qchem/sw/5.3.2/config/preferences:
Processing $rem in /home/peterchao1/.qchemrc:

 Q-Chem warning in module libgen/rem_setup.C, line 2945:

 Neither GIA nor STOLL is specified by user. Use STOLL as the default


Checking the input file for inconsistencies... 	...done.

--------------------------------------------------------------
User input:
--------------------------------------------------------------
$molecule
0 1
--
0 1
C       -2.740140    2.376408    0.014790
C       -2.633135    0.898460    0.433852
C       -1.749167    0.792505    1.682422
C       -4.033315    0.344773    0.723791
C       -1.991880    0.179620   -0.759738
Br       -1.688640   -1.740068   -0.516848
H       -1.744115    2.805419   -0.193787
H       -3.202145    2.968857    0.823845
H       -3.364163    2.496443   -0.888997
H       -1.667372   -0.251558    2.029502
H       -2.178268    1.390825    2.505442
H       -0.730616    1.167643    1.479605
H       -3.990622   -0.716364    1.023299
H       -4.686184    0.423113   -0.164338
H       -4.507530    0.911268    1.544377
H       -1.003582    0.606912   -0.985101
H       -2.627205    0.254236   -1.654876
--
0 1
C        2.740144   -2.376407    0.014788
C        2.633135   -0.898460    0.433852
C        1.749164   -0.792510    1.682420
C        4.033313   -0.344770    0.723794
C        1.991880   -0.179620   -0.759738
Br        1.688640    1.740069   -0.516848
H        3.364171   -2.496439   -0.888997
H        1.744121   -2.805420   -0.193794
H        3.202147   -2.968857    0.823844
H        2.178269   -1.390823    2.505443
H        0.730617   -1.167657    1.479603
H        1.667359    0.251554    2.029498
H        4.686183   -0.423104   -0.164334
H        4.507529   -0.911267    1.544378
H        3.990616    0.716365    1.023307
H        1.003582   -0.606911   -0.985102
H        2.627206   -0.254236   -1.654876
$end

$rem
JOBTYPE           eda
EDA2              2
METHOD            wB97x-D
BASIS             def2-SV(P)
SCF_CONVERGENCE   8
THRESH            14
SYMMETRY          false
DISP_FREE_X       wB97X-D
DISP_FREE_C       none
EDA_BSSE          true
$end
--------------------------------------------------------------
 ----------------------------------------------------------------
             Standard Nuclear Orientation (Angstroms)
    I     Atom           X                Y                Z
 ----------------------------------------------------------------
    1      C       2.7401401651    -2.3764075638     0.0147902818
    2      C       2.6331350443    -0.8984595318     0.4338521379
    3      C       1.7491670773    -0.7925044879     1.6824221575
    4      C       4.0333150036    -0.3447723748     0.7237910347
    5      C       1.9918799378    -0.1796197096    -0.7597379120
    6      Br      1.6886397706     1.7400682870    -0.5168480934
    7      H       1.7441151972    -2.8054186757    -0.1937866413
    8      H       3.2021452469    -2.9688564408     0.8238453252
    9      H       3.3641631452    -2.4964425970    -0.8889967275
   10      H       1.6673719938     0.2515585393     2.0295020560
   11      H       2.1782681602    -1.3908243664     2.5054422026
   12      H       0.7306161047    -1.1676426012     1.4796052298
   13      H       3.9906219169     0.7163646512     1.0232989302
   14      H       4.6861839804    -0.4231124038    -0.1643379798
   15      H       4.5075300835    -0.9112672495     1.5443770751
   16      H       1.0035819692    -0.6069118224    -0.9851008355
   17      H       2.6272049140    -0.2542357409    -1.6548759263
   18      C      -2.7401442694     2.3764069352     0.0147879945
   19      C      -2.6331351199     0.8984599868     0.4338521384
   20      C      -1.7491640676     0.7925101923     1.6824201188
   21      C      -4.0333130594     0.3447698878     0.7237942416
   22      C      -1.9918800950     0.1796199262    -0.7597378117
   23      Br     -1.6886399112    -1.7400690218    -0.5168476303
   24      H      -3.3641713112     2.4964387879    -0.8889969962
   25      H      -1.7441213157     2.8054200054    -0.1937940824
   26      H      -3.2021472959     2.9688569738     0.8238439511
   27      H      -2.1782690941     1.3908232353     2.5054430737
   28      H      -0.7306171088     1.1676572652     1.4796030465
   29      H      -1.6673589603    -0.2515537655     2.0294982203
   30      H      -4.6861830969     0.4231037394    -0.1643337439
   31      H      -4.5075290831     0.9112669264     1.5443782012
   32      H      -3.9906159522    -0.7163650784     1.0233073461
   33      H      -1.0035821418     0.6069109941    -0.9851018881
   34      H      -2.6272061324     0.2542357788    -1.6548757974
 ----------------------------------------------------------------
 Molecular Point Group                 C1    NOp =  1
 Largest Abelian Subgroup              C1    NOp =  1
 Nuclear Repulsion Energy =        1488.83858865 hartrees
 There are       76 alpha and       76 beta electrons
 Requested basis set is def2-SV(P)
 There are 128 shells and 248 basis functions

 Total QAlloc Memory Limit   7500 MB
 Mega-Array Size       188 MB
 MEM_STATIC part       192 MB
 A cutoff of  1.0D-14 yielded   7167 shell pairs
 There are     26067 function pairs (     29262 Cartesian)
 Smallest overlap matrix eigenvalue = 1.53E-03

 Scale SEOQF with 1.000000e-01/1.000000e-01/1.000000e-01

 Standard Electronic Orientation quadrupole field applied
 Nucleus-field energy     =     0.0000000439 hartrees

 -----------------------------------------------------------------------
  General SCF calculation program by
  Eric Jon Sundstrom, Paul Horn, Yuezhi Mao, Dmitri Zuev, Alec White,
  David Stuck, Shaama M.S., Shane Yost, Joonho Lee, David Small,
  Daniel Levine, Susi Lehtola, Hugh Burton, Evgeny Epifanovsky,
  Bang C. Huynh
 -----------------------------------------------------------------------
================================================================
                 ALMO-EDA with the EDA2 driver                  
================================================================
 The second-generation ALMO-EDA (for DFT):                      
 P. R. Horn, Y. Mao and M. Head-Gordon, PCCP, 18, 23067 (2016)  
 Decomposition of the frozen energy:                            
 P. R. Horn, Y. Mao and M. Head-Gordon, JCP, 144, 114107 (2016) 
Using eda2 option set 2
Option set summary: Frozen orbital wavefunction, initial wavefunction decomposition, and traditional AO-based POL.
--------------------------------
Printing EDA Options
--------------------------------
eda_child_super_basis      0
fragmo_guess_mode          0
child_mp                   0
child_mp_orders            0
cls_elec                   1
cls_disp                   0
scfmi_mode                 1
scfmi_occs                 0
scfmi_virts                0
frz_relax                  0
frz_relax_method           0
dc_pen_start               0
dc_pen_conv                0
dc_pen_increment           0
dc_pen_steps               0
dc_pen_thresh_factor       0
dc_pen_pre_newton_thresh   0
frz_ortho_decomp           1
frz_ortho_decomp_conv      6
plot_mo_ortho_frz          0
frgm_method                2
scfmi_freeze_ss            0
separate_rehyb             0
plot_diff_den              0
eda_nocv                   0
eda_vct_relax              1
disp_free_x                -110
disp_free_c                0
eda_bsse                   1
eda_pct_a                  0
eda_covp                   0
--------------------------------
Attempting to make child job directory: /scratch/user/peterchao1/peterchao1/7000878_1675661404000000706137419/qchem266156//Frg1/
Attempting to make child job directory: /scratch/user/peterchao1/peterchao1/7000878_1675661404000000706137419/qchem266156//Frg2/
Creating input file /scratch/user/peterchao1/peterchao1/7000878_1675661404000000706137419/qchem266156/Frg1.input
using default PutDataFrgm: nothing
calling putenv with: QCSCRATCH=/scratch/user/peterchao1/peterchao1/7000878_1675661404000000706137419/qchem266156/ 
Spawning Job For Fragment 0
Done Job For Fragment 0
calling putenv with: QCSCRATCH=/scratch/user/peterchao1/peterchao1/7000878_1675661404000000706137419 
calling putenv with: QCTHREADS=8 
Creating input file /scratch/user/peterchao1/peterchao1/7000878_1675661404000000706137419/qchem266156/Frg2.input
using default PutDataFrgm: nothing
calling putenv with: QCSCRATCH=/scratch/user/peterchao1/peterchao1/7000878_1675661404000000706137419/qchem266156/ 
Spawning Job For Fragment 1
Done Job For Fragment 1
calling putenv with: QCSCRATCH=/scratch/user/peterchao1/peterchao1/7000878_1675661404000000706137419 
calling putenv with: QCTHREADS=8 
Doing General SCFMI
 Exchange:     0.2220 Hartree-Fock + 1.0000 wB97X-D + LR-HF
 Correlation:  1.0000 wB97X-D
 Using SG-2 standard quadrature grid
 Dispersion:   Grimme D
performing fock build before subrot guess so that all methods have access
Printing subrot_rss_gen Method Specification:
Occupied Subspace Method is 0
Virtual Subspace Method is 0
Energy of the unrelaxed supersystem initial determinant -5541.704984536531
write pseudocanon occs and virts to disk
write pseudocanon orbital energies to disk
Tolerance of ortho_decomp_scf: 1.00e-06
GDM subspace size: 20
Beginning the Orthogonal Decomposition of the Initial Supersystem Wavefunction
    1   -5541.6718258082      8.49e-02     ortho_decomp Preconditoned Steepest Descent
    2   -5541.6793925997      3.28e-04     ortho_decomp BFGS Step
    3   -5541.6793948636      2.16e-05     ortho_decomp BFGS Step
    4   -5541.6793948724      8.00e-07     ortho_decomp 00000 Convergence criterion met
 Exchange:     0.2220 Hartree-Fock + 1.0000 wB97X-D + LR-HF
 Correlation:  1.0000 wB97X-D
 Using SG-2 standard quadrature grid
 Dispersion:   Grimme D
 Long-range K will be added via erf
 Coulomb attenuation parameter = 0.2 bohr**(-1)
 Exchange:     0.2220 Hartree-Fock + 1.0000 wB97X-D + LR-HF
 Correlation:  1.0000 wB97X-D
 Using SG-2 standard quadrature grid
 Dispersion:   Grimme D
 Long-range K will be added via erf
 Coulomb attenuation parameter = 0.2 bohr**(-1)
 Exchange:     0.2220 Hartree-Fock + 1.0000 wB97X-D + LR-HF
 Correlation:  1.0000 wB97X-D
 Using SG-2 standard quadrature grid
 Dispersion:   Grimme D
 Long-range K will be added via erf
 Coulomb attenuation parameter = 0.2 bohr**(-1)
Doing General SCFMI
 Exchange:     0.2220 Hartree-Fock + 1.0000 wB97X-D + LR-HF
 Correlation:  1.0000 wB97X-D
 Using SG-2 standard quadrature grid
 Dispersion:   Grimme D
performing fock build at end of subrot_r(subrot) constructor so that all methods have access
<S^2> of initial wavefunction before polarization iterations 0.0000000000
Beginning iterations for the determination of the polarized wavefunction
Energy prior to optimization (guess energy) = -5541.704984536531
Begin Timing: Total SCF Calculation
begin iterations for algorithm: DIIS         
the SCF tolerance is set to 1.00e-08
    1   -5541.7049845365      1.23e-04     00000 
    2   -5541.7053923925      4.40e-05     00000 
    3   -5541.7054204472      2.53e-05     00000 
    4   -5541.7054315295      7.36e-06     00000 
    5   -5541.7054325408      1.43e-06     00000 
    6   -5541.7054326094      6.49e-07     00000 
    7   -5541.7054326187      1.37e-07     00000 
    8   -5541.7054326192      4.55e-08     00000 
    9   -5541.7054326193      1.03e-08     00000 
   10   -5541.7054326193      4.24e-09     00000 Convergence criterion met
write pseudocanon occs and virts to disk
write pseudocanon orbital energies to disk
Timing for Total SCF: 231.00s (wall), 229.97s (cpu)
<S^2> of polarized wavefunction after polarization iterations 0.0000000000
relaxing scfmi constraint to allow all rotations in the entire AO span
Doing General SCFMI
 Exchange:     0.2220 Hartree-Fock + 1.0000 wB97X-D + LR-HF
 Correlation:  1.0000 wB97X-D
 Using SG-2 standard quadrature grid
 Dispersion:   Grimme D
performing fock build at end of subrot_r(subrot) constructor so that all methods have access
<S^2> of polarized wavefunction before ct-allowed iterations 0.0000000000
Beginning iterations for the determination of the CT-Allowed wavefunction
Energy prior to optimization (guess energy) = -5541.705432619305
Begin Timing: Total SCF Calculation
begin iterations for algorithm: DIIS         
the SCF tolerance is set to 1.00e-08
    1   -5541.7054326193      8.03e-04     00000 
    2   -5541.7102077195      5.04e-05     00000 
    3   -5541.7104668237      1.62e-05     00000 
    4   -5541.7104865137      1.19e-05     00000 
    5   -5541.7104909383      1.80e-06     00000 
    6   -5541.7104910951      6.81e-07     00000 
    7   -5541.7104911208      1.98e-07     00000 
    8   -5541.7104911226      4.09e-08     00000 
    9   -5541.7104911227      1.54e-08     00000 
   10   -5541.7104911227      2.55e-09     00000 Convergence criterion met
write pseudocanon occs and virts to disk
write pseudocanon orbital energies to disk
Timing for Total SCF: 234.00s (wall), 232.90s (cpu)
<S^2> of ct_allowed wavefunction after ct-allowed iterations 0.0000000000
Attempting to make child job directory: /scratch/user/peterchao1/peterchao1/7000878_1675661404000000706137419/qchem266156//FrgBSSE1/
Attempting to make child job directory: /scratch/user/peterchao1/peterchao1/7000878_1675661404000000706137419/qchem266156//FrgBSSE2/
Creating input file /scratch/user/peterchao1/peterchao1/7000878_1675661404000000706137419/qchem266156/FrgBSSE1.input
calling putenv with: QCSCRATCH=/scratch/user/peterchao1/peterchao1/7000878_1675661404000000706137419/qchem266156/ 
Spawning Job For Fragment 0
Done Job For Fragment 0
calling putenv with: QCSCRATCH=/scratch/user/peterchao1/peterchao1/7000878_1675661404000000706137419 
calling putenv with: QCTHREADS=8 
Creating input file /scratch/user/peterchao1/peterchao1/7000878_1675661404000000706137419/qchem266156/FrgBSSE2.input
calling putenv with: QCSCRATCH=/scratch/user/peterchao1/peterchao1/7000878_1675661404000000706137419/qchem266156/ 
Spawning Job For Fragment 1
Done Job For Fragment 1
calling putenv with: QCSCRATCH=/scratch/user/peterchao1/peterchao1/7000878_1675661404000000706137419 
calling putenv with: QCTHREADS=8 
====================================================================
   Evaluating the BSSE with fragment SCF in the supersystem basis
   Fragment contributions (kJ/mol) 
   Frgm 1: 3.7909
   Frgm 2: 3.7909
   BSSE (kJ/mol) = 7.5817
====================================================================

================================
        Results of EDA2         
================================
Basic EDA Quantities
--------------------
Fragment Energies (Ha):
1-2770.8499249675
2-2770.8499249723
--------------------
  E_prp (kJ/mol) = 0.0000
  E_frz (kJ/mol) = -13.4810
  E_pol (kJ/mol) = -1.1765
  E_vct (kJ/mol) = -5.6995 (CP-corrected)
  E_int (kJ/mol) = -20.3570 (CP-corrected)
--------------------


Decomposition of frozen interaction energy
--------------------
  --------------------
  Orthogonal Frozen Decomposition:
  --------------------
     E_elec   (ELEC)   (kJ/mol) = -28.7319
     E_pauli  (PAULI)  (kJ/mol) = 34.6034
     E_disp   (DISP)   (kJ/mol) = -19.3525
  --------------------
  Classical Frozen Decomposition:
  --------------------
     E_cls_elec  (CLS ELEC)  (kJ/mol) = -11.7818
     E_mod_pauli (MOD PAULI) (kJ/mol) = 17.6533 (FRZ - CLS ELEC - DISP)
     E_disp      (DISP)      (kJ/mol) = -19.3525
  --------------------
--------------------

Simplified EDA Summary (kJ/mol)
--------------------
 PREPARATION      0.0000
 FROZEN           -13.4810 (ELEC + PAULI + DISP)
[ELEC + PAULI = 5.8715, DISP = -19.3525]
 POLARIZATION    -1.1765
 CHARGE TRANSFER -5.6995     (counterpoise-corrected)
 TOTAL           -20.3570     (PRP + FRZ + POL + CT)
--------------------
 
 --------------------------------------------------------------
 
                    Orbital Energies (a.u.)
 --------------------------------------------------------------
 
 Alpha MOs
 -- Occupied --
********-483.0485 -62.6303 -62.6303 -56.4379 -56.4379 -56.4345 -56.4345
-56.4345 -56.4345 -10.3435 -10.3435 -10.3204 -10.3203 -10.2882 -10.2882
-10.2831 -10.2831 -10.2796 -10.2796  -8.7997  -8.7997  -6.6247  -6.6247
 -6.6123  -6.6123  -6.6121  -6.6121  -2.7285  -2.7285  -2.7248  -2.7248
 -2.7247  -2.7247  -2.7149  -2.7149  -2.7149  -2.7149  -0.9410  -0.9388
 -0.8749  -0.8743  -0.7811  -0.7807  -0.7778  -0.7743  -0.7529  -0.7525
 -0.6294  -0.6262  -0.5639  -0.5537  -0.5536  -0.5487  -0.5331  -0.5314
 -0.5058  -0.5002  -0.4883  -0.4869  -0.4634  -0.4564  -0.4507  -0.4491
 -0.4481  -0.4472  -0.4289  -0.4265  -0.4180  -0.4095  -0.4071  -0.4058
 -0.3656  -0.3567  -0.3549  -0.3465
 -- Virtual --
  0.0803   0.0821   0.1207   0.1396   0.1663   0.1729   0.1741   0.1785
  0.1820   0.1868   0.1922   0.1953   0.1995   0.2161   0.2205   0.2234
  0.2280   0.2340   0.2528   0.2530   0.2578   0.2579   0.2598   0.2738
  0.2764   0.2902   0.2918   0.2969   0.3025   0.3137   0.3231   0.3259
  0.4336   0.4349   0.4539   0.4683   0.4694   0.4912   0.4963   0.4989
  0.5052   0.5160   0.5286   0.5353   0.5652   0.5772   0.5830   0.5952
  0.6001   0.6181   0.6352   0.6416   0.6477   0.6490   0.6643   0.6723
  0.6765   0.6811   0.6950   0.7064   0.7077   0.7307   0.7324   0.7366
  0.7478   0.7478   0.7586   0.7615   0.7703   0.7727   0.7748   0.7854
  0.7891   0.8007   0.8039   0.8043   0.8090   0.8133   0.8165   0.8197
  0.8198   0.8262   0.8326   0.8333   0.8459   0.8549   0.8562   0.8593
  0.8723   0.8730   0.8865   0.8999   0.9063   0.9119   0.9432   0.9540
  0.9807   0.9836   1.0064   1.0557   1.0774   1.0920   1.1037   1.1277
  1.1478   1.1588   1.2190   1.2464   1.2517   1.2680   1.2913   1.3097
  1.4650   1.4689   1.4909   1.4980   1.7899   1.7935   1.8005   1.8023
  1.8139   1.8157   1.8843   1.8961   1.9034   1.9121   1.9143   1.9305
  2.0842   2.0883   2.1010   2.1089   2.1111   2.1155   2.1188   2.1212
  2.1369   2.1739   2.1996   2.2139   2.2372   2.2417   2.2443   2.2533
  2.2550   2.2664   2.2666   2.2678   2.2701   2.2967   2.2968   2.3104
  2.6114   2.6175   2.6177   2.6273   2.7489   2.7578   2.7594   2.7642
  2.7685   2.7717   3.5661   3.5698   3.5710   3.5808   3.6437   3.6460
  3.6489   3.6620   3.8928   3.8948
 --------------------------------------------------------------
 
          Ground-State Mulliken Net Atomic Charges

     Atom                 Charge (a.u.)
  ----------------------------------------
      1 C                    -0.276345
      2 C                    -0.253973
      3 C                    -0.289141
      4 C                    -0.268442
      5 C                    -0.199131
      6 Br                   -0.132132
      7 H                     0.125990
      8 H                     0.123439
      9 H                     0.115619
     10 H                     0.135090
     11 H                     0.115571
     12 H                     0.129077
     13 H                     0.131244
     14 H                     0.112705
     15 H                     0.117411
     16 H                     0.160570
     17 H                     0.152447
     18 C                    -0.276345
     19 C                    -0.253973
     20 C                    -0.289141
     21 C                    -0.268441
     22 C                    -0.199131
     23 Br                   -0.132132
     24 H                     0.115619
     25 H                     0.125990
     26 H                     0.123439
     27 H                     0.115571
     28 H                     0.129077
     29 H                     0.135090
     30 H                     0.112705
     31 H                     0.117411
     32 H                     0.131244
     33 H                     0.160570
     34 H                     0.152447
  ----------------------------------------
  Sum of atomic charges =     0.000000

 -----------------------------------------------------------------
                    Cartesian Multipole Moments
 -----------------------------------------------------------------
    Charge (ESU x 10^10)
                 0.0000
    Dipole Moment (Debye)
         X      -0.0000      Y       0.0000      Z       0.0331
       Tot       0.0331
    Quadrupole Moments (Debye-Ang)
        XX    -100.6383     XY      -7.6156     YY    -106.4425
        XZ       0.0000     YZ      -0.0000     ZZ    -103.3045
    Octopole Moments (Debye-Ang^2)
       XXX      -0.0001    XXY      -0.0000    XYY       0.0000
       YYY      -0.0000    XXZ     -12.9809    XYZ       1.5926
       YYZ      -4.8247    XZZ       0.0000    YZZ      -0.0000
       ZZZ     -34.4988
    Hexadecapole Moments (Debye-Ang^3)
      XXXX   -3954.2253   XXXY     136.0407   XXYY    -915.0327
      XYYY     191.5909   YYYY   -1451.9725   XXXZ       0.0000
      XXYZ       0.0000   XYYZ      -0.0000   YYYZ      -0.0000
      XXZZ    -734.0195   XYZZ      46.1117   YYZZ    -349.3867
      XZZZ      -0.0001   YZZZ      -0.0000   ZZZZ    -618.1686
 -----------------------------------------------------------------
Archival summary:
1\1\c015.cluster\SP\ProcedureUnspecified\BasisUnspecified\r21022\petercha\SunFeb523:54:562023SunFeb523:54:562023\0\\#,ProcedureUnspecified,BasisUnspecified,\\0,1\Br\C,1,1.95861\H,2,1.10005,1,105.487\H,2,1.10022,1,104.879,3,115.049,0\C,2,1.53382,1,115.314,3,-122.429,0\C,5,1.53334,2,111.081,1,-62.4764,0\H,6,1.10342,5,111.3,2,63.6169,0\H,6,1.10415,5,110.331,2,-176.559,0\H,6,1.10506,5,111.218,2,-56.8713,0\C,5,1.53348,2,111.114,1,60.757,0\H,10,1.10328,5,111.362,2,-65.454,0\H,10,1.10422,5,111.02,2,55.072,0\H,10,1.1043,5,110.206,2,174.856,0\C,5,1.53993,2,105.491,1,178.909,0\H,14,1.10409,5,110.161,2,179.641,0\H,14,1.10436,5,111.196,2,-60.7848,0\H,14,1.10483,5,111.477,2,60.0787,0\H,3,2.34565,2,124.595,1,-4.08656,0\C,18,1.10005,3,124.595,2,-151.179,0\H,19,1.10022,18,109.012,3,-116.253,0\C,19,1.53382,18,110.67,3,121.276,0\C,21,1.53334,19,111.081,18,177.91,0\H,22,1.10342,21,111.3,19,63.6171,0\H,22,1.10415,21,110.331,19,-176.559,0\H,22,1.10506,21,111.218,19,-56.8711,0\C,21,1.53348,19,111.114,18,-58.8567,0\H,26,1.10328,21,111.362,19,-65.4536,0\H,26,1.10422,21,111.02,19,55.0724,0\H,26,1.1043,21,110.206,19,174.856,0\C,21,1.53993,19,105.491,18,59.2951,0\H,30,1.10409,21,110.161,19,179.642,0\H,30,1.10436,21,111.196,19,-60.7846,0\H,30,1.10483,21,111.477,19,60.0789,0\Br,19,1.95861,18,105.487,3,-4.08668,0\\\@

 Total job time:  1491.33s(wall), 920.70s(cpu) 
 Sun Feb  5 23:54:56 2023

        *************************************************************
        *                                                           *
        *  Thank you very much for using Q-Chem.  Have a nice day.  *
        *                                                           *
        *************************************************************


remove work dirs /scratch/user/peterchao1/peterchao1/7000878_1675661404000000706137419/qchem266156.0 -- /scratch/user/peterchao1/peterchao1/7000878_1675661404000000706137419/qchem266156.-1
rm -rf /scratch/user/peterchao1/peterchao1/7000878_1675661404000000706137419/qchem266156
real 1492.20
user 1405.23
sys 72.26
