 Entering Gaussian System, Link 0=g16
 Input=gaussian_test.inp
 Output=gaussian_test.log
 Initial command:
 /sw/restricted/lms/sw/Gaussian/g16_B01/g16/l1.exe "/scratch/user/peterchao1/peterchao1/8625384_1689034748000000698496180/Gau-81110.inp" -scrdir="/scratch/user/peterchao1/peterchao1/8625384_1689034748000000698496180/"
 Entering Link 1 = /sw/restricted/lms/sw/Gaussian/g16_B01/g16/l1.exe PID=     81111.
  
 Copyright (c) 1988-2017, Gaussian, Inc.  All Rights Reserved.
  
 This is part of the Gaussian(R) 16 program.  It is based on
 the Gaussian(R) 09 system (copyright 2009, Gaussian, Inc.),
 the Gaussian(R) 03 system (copyright 2003, Gaussian, Inc.),
 the Gaussian(R) 98 system (copyright 1998, Gaussian, Inc.),
 the Gaussian(R) 94 system (copyright 1995, Gaussian, Inc.),
 the Gaussian 92(TM) system (copyright 1992, Gaussian, Inc.),
 the Gaussian 90(TM) system (copyright 1990, Gaussian, Inc.),
 the Gaussian 88(TM) system (copyright 1988, Gaussian, Inc.),
 the Gaussian 86(TM) system (copyright 1986, Carnegie Mellon
 University), and the Gaussian 82(TM) system (copyright 1983,
 Carnegie Mellon University). Gaussian is a federally registered
 trademark of Gaussian, Inc.
  
 This software contains proprietary and confidential information,
 including trade secrets, belonging to Gaussian, Inc.
  
 This software is provided under written license and may be
 used, copied, transmitted, or stored only in accord with that
 written license.
  
 The following legend is applicable only to US Government
 contracts under FAR:
  
                    RESTRICTED RIGHTS LEGEND
  
 Use, reproduction and disclosure by the US Government is
 subject to restrictions as set forth in subparagraphs (a)
 and (c) of the Commercial Computer Software - Restricted
 Rights clause in FAR 52.227-19.
  
 Gaussian, Inc.
 340 Quinnipiac St., Bldg. 40, Wallingford CT 06492
  
  
 ---------------------------------------------------------------
 Warning -- This program may not be used in any manner that
 competes with the business of Gaussian, Inc. or will provide
 assistance to any competitor of Gaussian, Inc.  The licensee
 of this program is prohibited from giving any competitor of
 Gaussian, Inc. access to this program.  By using this program,
 the user acknowledges that Gaussian, Inc. is engaged in the
 business of creating and licensing software in the field of
 computational chemistry and represents and warrants to the
 licensee that it is not a competitor of Gaussian, Inc. and that
 it will not use this program in any manner prohibited above.
 ---------------------------------------------------------------
  

 Cite this work as:
 Gaussian 16, Revision B.01,
 M. J. Frisch, G. W. Trucks, H. B. Schlegel, G. E. Scuseria, 
 M. A. Robb, J. R. Cheeseman, G. Scalmani, V. Barone, 
 G. A. Petersson, H. Nakatsuji, X. Li, M. Caricato, A. V. Marenich, 
 J. Bloino, B. G. Janesko, R. Gomperts, B. Mennucci, H. P. Hratchian, 
 J. V. Ortiz, A. F. Izmaylov, J. L. Sonnenberg, D. Williams-Young, 
 F. Ding, F. Lipparini, F. Egidi, J. Goings, B. Peng, A. Petrone, 
 T. Henderson, D. Ranasinghe, V. G. Zakrzewski, J. Gao, N. Rega, 
 G. Zheng, W. Liang, M. Hada, M. Ehara, K. Toyota, R. Fukuda, 
 J. Hasegawa, M. Ishida, T. Nakajima, Y. Honda, O. Kitao, H. Nakai, 
 T. Vreven, K. Throssell, J. A. Montgomery, Jr., J. E. Peralta, 
 F. Ogliaro, M. J. Bearpark, J. J. Heyd, E. N. Brothers, K. N. Kudin, 
 V. N. Staroverov, T. A. Keith, R. Kobayashi, J. Normand, 
 K. Raghavachari, A. P. Rendell, J. C. Burant, S. S. Iyengar, 
 J. Tomasi, M. Cossi, J. M. Millam, M. Klene, C. Adamo, R. Cammi, 
 J. W. Ochterski, R. L. Martin, K. Morokuma, O. Farkas, 
 J. B. Foresman, and D. J. Fox, Gaussian, Inc., Wallingford CT, 2016.
 
 ******************************************
 Gaussian 16:  ES64L-G16RevB.01 20-Dec-2017
                10-Jul-2023 
 ******************************************
 %nprocshared=4
 Will use up to    4 processors via shared memory.
 %mem=8000mb
 %chk=40.chk
 %mem=8000mb
 ----------------------------------------------------------------------
 #T wB97XD/def2svpp opt=tight freq int(grid=ultrafine) scf=(verytight,q
 c)
 ----------------------------------------------------------------------
 -------
 comment
 -------
 Symbolic Z-matrix:
 Charge =  1 Multiplicity = 2
 O                    -1.71679  -1.37656  -1.04485 
 C                    -0.31771  -1.26498  -1.12631 
 C                     0.1475   -0.40632   0.0499 
 Br                   -0.3559    1.44873  -0.22237 
 C                    -0.37529  -0.91036   1.41149 
 O                    -1.73539  -0.72727   1.5826 
 N                     1.67528  -0.43229   0.07886 
 O                     2.23715  -0.84033  -0.91165 
 O                     2.21474  -0.04233   1.08303 
 H                    -2.05733  -1.81097  -1.83664 
 H                     0.00964  -0.80909  -2.07507 
 H                     0.16944  -2.2548   -1.033 
 H                     0.14545  -0.35952   2.20701 
 H                    -0.06995  -1.97888   1.48226 
 H                    -2.19253  -1.08464   0.80299 
 

 GradGradGradGradGradGradGradGradGradGradGradGradGradGradGradGradGradGrad
 Initialization pass.
                           ----------------------------
                           !    Initial Parameters    !
                           ! (Angstroms and Degrees)  !
 --------------------------                            --------------------------
 ! Name  Definition              Value          Derivative Info.                !
 --------------------------------------------------------------------------------
 ! R1    R(1,2)                  1.4059         estimate D2E/DX2                !
 ! R2    R(1,10)                 0.9652         estimate D2E/DX2                !
 ! R3    R(2,3)                  1.5288         estimate D2E/DX2                !
 ! R4    R(2,11)                 1.1023         estimate D2E/DX2                !
 ! R5    R(2,12)                 1.1071         estimate D2E/DX2                !
 ! R6    R(3,4)                  1.9413         estimate D2E/DX2                !
 ! R7    R(3,5)                  1.5431         estimate D2E/DX2                !
 ! R8    R(3,7)                  1.5283         estimate D2E/DX2                !
 ! R9    R(5,6)                  1.383          estimate D2E/DX2                !
 ! R10   R(5,13)                 1.0988         estimate D2E/DX2                !
 ! R11   R(5,14)                 1.1135         estimate D2E/DX2                !
 ! R12   R(6,15)                 0.9718         estimate D2E/DX2                !
 ! R13   R(7,8)                  1.2097         estimate D2E/DX2                !
 ! R14   R(7,9)                  1.2048         estimate D2E/DX2                !
 ! A1    A(2,1,10)             109.8341         estimate D2E/DX2                !
 ! A2    A(1,2,3)              107.6279         estimate D2E/DX2                !
 ! A3    A(1,2,11)             112.223          estimate D2E/DX2                !
 ! A4    A(1,2,12)             111.2254         estimate D2E/DX2                !
 ! A5    A(3,2,11)             109.849          estimate D2E/DX2                !
 ! A6    A(3,2,12)             107.6624         estimate D2E/DX2                !
 ! A7    A(11,2,12)            108.156          estimate D2E/DX2                !
 ! A8    A(2,3,4)              110.4803         estimate D2E/DX2                !
 ! A9    A(2,3,5)              113.098          estimate D2E/DX2                !
 ! A10   A(2,3,7)              108.0132         estimate D2E/DX2                !
 ! A11   A(4,3,5)              110.3662         estimate D2E/DX2                !
 ! A12   A(4,3,7)              106.148          estimate D2E/DX2                !
 ! A13   A(5,3,7)              108.4457         estimate D2E/DX2                !
 ! A14   A(3,5,6)              113.5219         estimate D2E/DX2                !
 ! A15   A(3,5,13)             108.3309         estimate D2E/DX2                !
 ! A16   A(3,5,14)             106.0577         estimate D2E/DX2                !
 ! A17   A(6,5,13)             108.0662         estimate D2E/DX2                !
 ! A18   A(6,5,14)             112.8822         estimate D2E/DX2                !
 ! A19   A(13,5,14)            107.7624         estimate D2E/DX2                !
 ! A20   A(5,6,15)             108.3405         estimate D2E/DX2                !
 ! A21   A(3,7,8)              117.0362         estimate D2E/DX2                !
 ! A22   A(3,7,9)              117.2528         estimate D2E/DX2                !
 ! A23   A(8,7,9)              125.7107         estimate D2E/DX2                !
 ! D1    D(10,1,2,3)           172.3596         estimate D2E/DX2                !
 ! D2    D(10,1,2,11)           51.3834         estimate D2E/DX2                !
 ! D3    D(10,1,2,12)          -69.9344         estimate D2E/DX2                !
 ! D4    D(1,2,3,4)            -71.7197         estimate D2E/DX2                !
 ! D5    D(1,2,3,5)             52.5556         estimate D2E/DX2                !
 ! D6    D(1,2,3,7)            172.5817         estimate D2E/DX2                !
 ! D7    D(11,2,3,4)            50.734          estimate D2E/DX2                !
 ! D8    D(11,2,3,5)           175.0094         estimate D2E/DX2                !
 ! D9    D(11,2,3,7)           -64.9645         estimate D2E/DX2                !
 ! D10   D(12,2,3,4)           168.2904         estimate D2E/DX2                !
 ! D11   D(12,2,3,5)           -67.4343         estimate D2E/DX2                !
 ! D12   D(12,2,3,7)            52.5918         estimate D2E/DX2                !
 ! D13   D(2,3,5,6)            -70.157          estimate D2E/DX2                !
 ! D14   D(2,3,5,13)           169.8092         estimate D2E/DX2                !
 ! D15   D(2,3,5,14)            54.355          estimate D2E/DX2                !
 ! D16   D(4,3,5,6)             54.1806         estimate D2E/DX2                !
 ! D17   D(4,3,5,13)           -65.8532         estimate D2E/DX2                !
 ! D18   D(4,3,5,14)           178.6926         estimate D2E/DX2                !
 ! D19   D(7,3,5,6)            170.0646         estimate D2E/DX2                !
 ! D20   D(7,3,5,13)            50.0308         estimate D2E/DX2                !
 ! D21   D(7,3,5,14)           -65.4234         estimate D2E/DX2                !
 ! D22   D(2,3,7,8)             14.8793         estimate D2E/DX2                !
 ! D23   D(2,3,7,9)           -165.2954         estimate D2E/DX2                !
 ! D24   D(4,3,7,8)           -103.6223         estimate D2E/DX2                !
 ! D25   D(4,3,7,9)             76.2031         estimate D2E/DX2                !
 ! D26   D(5,3,7,8)            137.7895         estimate D2E/DX2                !
 ! D27   D(5,3,7,9)            -42.3851         estimate D2E/DX2                !
 ! D28   D(3,5,6,15)            50.4721         estimate D2E/DX2                !
 ! D29   D(13,5,6,15)          170.6559         estimate D2E/DX2                !
 ! D30   D(14,5,6,15)          -70.2679         estimate D2E/DX2                !
 --------------------------------------------------------------------------------
 Number of steps in this run=     77 maximum allowed number of steps=    100.
 GradGradGradGradGradGradGradGradGradGradGradGradGradGradGradGradGradGrad

                    Distance matrix (angstroms):
                    1          2          3          4          5
     1  O    0.000000
     2  C    1.405887   0.000000
     3  C    2.369696   1.528784   0.000000
     4  Br   3.242034   2.860552   1.941326   0.000000
     5  C    2.837358   2.563097   1.543143   2.869702   0.000000
     6  O    2.706552   3.104369   2.448972   3.145776   1.382999
     7  N    3.696014   2.473416   1.528271   2.784717   2.491844
     8  O    3.992361   2.598790   2.340844   3.526862   3.496666
     9  O    4.665299   3.576218   2.339511   3.245842   2.751291
    10  H    0.965197   1.956769   3.223874   4.015768   3.767055
    11  H    2.089001   1.102332   2.167193   2.943444   3.509201
    12  H    2.080703   1.107143   2.142436   3.827428   2.842493
    13  H    3.882906   3.485023   2.157622   3.069698   1.098841
    14  H    3.075900   2.715810   2.138193   3.838753   1.113540
    15  H    1.930303   2.696229   2.550102   3.292807   1.924321
                    6          7          8          9         10
     6  O    0.000000
     7  N    3.739108   0.000000
     8  O    4.692026   1.209662   0.000000
     9  O    4.040080   1.204764   2.148496   0.000000
    10  H    3.601284   4.416132   4.498919   5.468374   0.000000
    11  H    4.053436   2.748767   2.513230   3.927337   2.309318
    12  H    3.578140   2.612527   2.508159   3.681827   2.408589
    13  H    2.015614   2.621971   3.785817   2.376112   4.828051
    14  H    2.085737   2.721632   3.514220   3.021491   3.872070
    15  H    0.971842   3.988719   4.756228   4.537494   2.741076
                   11         12         13         14         15
    11  H    0.000000
    12  H    1.789271   0.000000
    13  H    4.307758   3.753710   0.000000
    14  H    3.745566   2.541642   1.787173   0.000000
    15  H    3.634377   3.212325   2.821919   2.401334   0.000000
 Framework group  C1[X(C3H6BrNO4)]
 Deg. of freedom    39
                         Standard orientation:                         
 ---------------------------------------------------------------------
 Center     Atomic      Atomic             Coordinates (Angstroms)
 Number     Number       Type             X           Y           Z
 ---------------------------------------------------------------------
      1          8           0       -1.716793   -1.376559   -1.044853
      2          6           0       -0.317710   -1.264975   -1.126305
      3          6           0        0.147503   -0.406316    0.049901
      4         35           0       -0.355896    1.448732   -0.222374
      5          6           0       -0.375286   -0.910358    1.411489
      6          8           0       -1.735392   -0.727268    1.582598
      7          7           0        1.675279   -0.432288    0.078855
      8          8           0        2.237148   -0.840325   -0.911645
      9          8           0        2.214739   -0.042324    1.083030
     10          1           0       -2.057324   -1.810974   -1.836640
     11          1           0        0.009639   -0.809094   -2.075067
     12          1           0        0.169442   -2.254795   -1.033000
     13          1           0        0.145450   -0.359519    2.207014
     14          1           0       -0.069947   -1.978876    1.482255
     15          1           0       -2.192528   -1.084642    0.802992
 ---------------------------------------------------------------------
 Rotational constants (GHZ):           1.2358872           1.0835276           0.8754232
   156 basis functions,   304 primitive gaussians,   167 cartesian basis functions
    49 alpha electrons       48 beta electrons
       nuclear repulsion energy       791.9239740925 Hartrees.
 NAtoms=   15 NActive=   15 NUniq=   15 SFac= 1.00D+00 NAtFMM=   60 NAOKFM=F Big=F
 Nuclear repulsion after empirical dispersion term =      791.9152732890 Hartrees.
   1 Symmetry operations used in ECPInt.
 ECPInt:  NShTT=    2628 NPrTT=   11487 LenC2=    2584 LenP2D=    8495.
 LDataN:  DoStor=T MaxTD1= 4 Len=   56
 ExpMin= 1.22D-01 ExpMax= 1.13D+05 ExpMxC= 1.70D+04 IAcc=3 IRadAn=         5 AccDes= 0.00D+00
 Harris functional with IExCor= 4639 and IRadAn=       5 diagonalized for initial guess.
 HarFok:  IExCor= 4639 AccDes= 0.00D+00 IRadAn=         5 IDoV= 1 UseB2=F ITyADJ=14
 ICtDFT=  3500011 ScaDFX=  1.000000  1.000000  1.000000  1.000000
 FoFCou: FMM=F IPFlag=           0 FMFlag=      100000 FMFlg1=           0
         NFxFlg=           0 DoJE=T BraDBF=F KetDBF=T FulRan=T
         wScrn=  0.000000 ICntrl=       500 IOpCl=  0 I1Cent=   200000004 NGrid=           0
         NMat0=    1 NMatS0=      1 NMatT0=    0 NMatD0=    1 NMtDS0=    0 NMtDT0=    0
 Petite list used in FoFCou.
 Initial guess <Sx>= 0.0000 <Sy>= 0.0000 <Sz>= 0.5000 <S**2>= 0.7500 S= 0.5000
     Minimum is close to point  4 DX= -3.94D-03 DF= -2.94D-05 DXR=  6.61D-03 DFR=  4.31D-05 which will be used.
     Minimum is close to point  2 DX=  4.09D-02 DF= -2.03D-04 DXR=  9.28D-02 DFR=  8.69D-03 which will be used.
     Minimum is close to point  3 DX=  1.15D-02 DF= -2.81D-06 DXR=  1.62D-02 DFR=  2.73D-04 which will be used.
     Accept linear search using points  1 and  2.
     Accept linear search using points  4 and  5.
     Minimum is close to point  3 DX= -2.34D-02 DF= -1.49D-05 DXR=  6.21D-02 DFR=  3.87D-03 which will be used.
     Minimum is close to point  2 DX=  8.20D-02 DF= -2.11D-05 DXR=  9.30D-02 DFR=  8.73D-03 which will be used.
     Accept linear search using points  1 and  2.
     Minimum is close to point  4 DX=  1.63D-01 DF= -2.44D-05 DXR=  8.75D-02 DFR=  7.80D-03 which will be used.
     Minimum is close to point  3 DX= -3.17D-02 DF= -1.53D-05 DXR=  8.60D-02 DFR=  7.45D-03 which will be used.
     Accept linear search using points  1 and  2.
     Accept linear search using points  4 and  5.
     Minimum is close to point  5 DX= -2.64D-01 DF= -1.63D-05 DXR=  7.68D-02 DFR=  7.11D-03 which will be used.
     Minimum is close to point  4 DX=  2.49D-01 DF= -3.27D-06 DXR=  5.46D-02 DFR=  2.91D-03 which will be used.
     Accept linear search using points  1 and  2.
     Accept linear search using points  1 and  2.
     Minimum is close to point  2 DX= -7.12D-02 DF= -3.52D-07 DXR=  7.67D-02 DFR=  6.64D-03 which will be used.
     Minimum is close to point  2 DX=  4.51D-02 DF= -1.16D-08 DXR=  4.32D-02 DFR=  1.87D-03 which will be used.
 SCF Done:  E(UwB97XD) =  -3046.44827241     a.u. after   24 cycles
            Convg  =    0.9850D-07                   179 Fock formations.
              S**2 =  0.7546                  -V/T =  2.0020
 <Sx>= 0.0000 <Sy>= 0.0000 <Sz>= 0.5000 <S**2>= 0.7546 S= 0.5023
 <L.S>=  0.00000000000    
 Annihilation of the first spin contaminant:
 S**2 before annihilation     0.7546,   after     0.7500

 **********************************************************************

            Population analysis using the SCF Density.

 **********************************************************************

 Orbital symmetries:
 Alpha Orbitals:
       Occupied  (A) (A) (A) (A) (A) (A) (A) (A) (A) (A) (A) (A)
                 (A) (A) (A) (A) (A) (A) (A) (A) (A) (A) (A) (A)
                 (A) (A) (A) (A) (A) (A) (A) (A) (A) (A) (A) (A)
                 (A) (A) (A) (A) (A) (A) (A) (A) (A) (A) (A) (A)
                 (A)
       Virtual   (A) (A) (A) (A) (A) (A) (A) (A) (A) (A) (A) (A)
                 (A) (A) (A) (A) (A) (A) (A) (A) (A) (A) (A) (A)
                 (A) (A) (A) (A) (A) (A) (A) (A) (A) (A) (A) (A)
                 (A) (A) (A) (A) (A) (A) (A) (A) (A) (A) (A) (A)
                 (A) (A) (A) (A) (A) (A) (A) (A) (A) (A) (A) (A)
                 (A) (A) (A) (A) (A) (A) (A) (A) (A) (A) (A) (A)
                 (A) (A) (A) (A) (A) (A) (A) (A) (A) (A) (A) (A)
                 (A) (A) (A) (A) (A) (A) (A) (A) (A) (A) (A) (A)
                 (A) (A) (A) (A) (A) (A) (A) (A) (A) (A) (A)
 Beta  Orbitals:
       Occupied  (A) (A) (A) (A) (A) (A) (A) (A) (A) (A) (A) (A)
                 (A) (A) (A) (A) (A) (A) (A) (A) (A) (A) (A) (A)
                 (A) (A) (A) (A) (A) (A) (A) (A) (A) (A) (A) (A)
                 (A) (A) (A) (A) (A) (A) (A) (A) (A) (A) (A) (A)
       Virtual   (A) (A) (A) (A) (A) (A) (A) (A) (A) (A) (A) (A)
                 (A) (A) (A) (A) (A) (A) (A) (A) (A) (A) (A) (A)
                 (A) (A) (A) (A) (A) (A) (A) (A) (A) (A) (A) (A)
                 (A) (A) (A) (A) (A) (A) (A) (A) (A) (A) (A) (A)
                 (A) (A) (A) (A) (A) (A) (A) (A) (A) (A) (A) (A)
                 (A) (A) (A) (A) (A) (A) (A) (A) (A) (A) (A) (A)
                 (A) (A) (A) (A) (A) (A) (A) (A) (A) (A) (A) (A)
                 (A) (A) (A) (A) (A) (A) (A) (A) (A) (A) (A) (A)
                 (A) (A) (A) (A) (A) (A) (A) (A) (A) (A) (A) (A)
 The electronic state is 2-A.
 Alpha  occ. eigenvalues -- -483.31895 -62.90030 -56.70776 -56.70640 -56.70342
 Alpha  occ. eigenvalues --  -19.55652 -19.48480 -19.48320 -19.47522 -14.88192
 Alpha  occ. eigenvalues --  -10.64154 -10.59813 -10.56615  -9.06966  -6.89354
 Alpha  occ. eigenvalues --   -6.88703  -6.87841  -2.99850  -2.99745  -2.99115
 Alpha  occ. eigenvalues --   -2.98544  -2.98443  -1.53537  -1.41197  -1.35737
 Alpha  occ. eigenvalues --   -1.33751  -1.19526  -1.09403  -1.02097  -0.99241
 Alpha  occ. eigenvalues --   -0.90184  -0.86109  -0.84981  -0.82703  -0.80614
 Alpha  occ. eigenvalues --   -0.80124  -0.78170  -0.77513  -0.74435  -0.71643
 Alpha  occ. eigenvalues --   -0.69792  -0.65401  -0.64195  -0.61915  -0.61675
 Alpha  occ. eigenvalues --   -0.58850  -0.58119  -0.57677  -0.57309
 Alpha virt. eigenvalues --   -0.20427  -0.13578  -0.08235  -0.02914  -0.00976
 Alpha virt. eigenvalues --    0.00192   0.01929   0.03059   0.04346   0.06290
 Alpha virt. eigenvalues --    0.07898   0.09038   0.11701   0.18610   0.19715
 Alpha virt. eigenvalues --    0.25099   0.28326   0.30253   0.30877   0.32443
 Alpha virt. eigenvalues --    0.33746   0.36259   0.40207   0.41064   0.42963
 Alpha virt. eigenvalues --    0.43979   0.45712   0.46134   0.46694   0.50523
 Alpha virt. eigenvalues --    0.52253   0.54509   0.55191   0.55611   0.58706
 Alpha virt. eigenvalues --    0.59907   0.61712   0.62382   0.64225   0.68800
 Alpha virt. eigenvalues --    0.74387   0.76218   0.77348   0.83434   0.85705
 Alpha virt. eigenvalues --    0.86806   0.89432   0.90728   0.93389   0.95394
 Alpha virt. eigenvalues --    0.96541   0.98808   1.00093   1.03964   1.07086
 Alpha virt. eigenvalues --    1.13541   1.20822   1.22256   1.30435   1.31350
 Alpha virt. eigenvalues --    1.36269   1.41271   1.48978   1.51397   1.59747
 Alpha virt. eigenvalues --    1.61441   1.65576   1.69074   1.70588   1.78844
 Alpha virt. eigenvalues --    1.84063   1.87699   1.93287   1.94175   2.02435
 Alpha virt. eigenvalues --    2.06268   2.17888   2.24365   2.29792   2.31345
 Alpha virt. eigenvalues --    2.38966   2.42831   2.47581   2.50195   2.52227
 Alpha virt. eigenvalues --    2.54916   2.55671   2.64277   2.67212   2.73398
 Alpha virt. eigenvalues --    2.75791   2.81369   2.83256   2.90748   2.94870
 Alpha virt. eigenvalues --    3.05752   3.20538   3.21359   3.24336   3.30388
 Alpha virt. eigenvalues --    3.31452   3.33109   3.43411   3.46076   3.63723
 Alpha virt. eigenvalues --    3.64376   3.71509
  Beta  occ. eigenvalues -- -483.31782 -62.89952 -56.70702 -56.70393 -56.70286
  Beta  occ. eigenvalues --  -19.54667 -19.48422 -19.48290 -19.47513 -14.88206
  Beta  occ. eigenvalues --  -10.64022 -10.59755 -10.56589  -9.06822  -6.89270
  Beta  occ. eigenvalues --   -6.88318  -6.87782  -2.99711  -2.99549  -2.99073
  Beta  occ. eigenvalues --   -2.98365  -2.98303  -1.53482  -1.38915  -1.35639
  Beta  occ. eigenvalues --   -1.33634  -1.18692  -1.07981  -1.01249  -0.99116
  Beta  occ. eigenvalues --   -0.89394  -0.85294  -0.84864  -0.81763  -0.80392
  Beta  occ. eigenvalues --   -0.79502  -0.77799  -0.76493  -0.73611  -0.70052
  Beta  occ. eigenvalues --   -0.69142  -0.63313  -0.61264  -0.59116  -0.57866
  Beta  occ. eigenvalues --   -0.57521  -0.57272  -0.56592
  Beta virt. eigenvalues --   -0.40101  -0.20135  -0.13179  -0.08011  -0.02680
  Beta virt. eigenvalues --   -0.00796   0.00500   0.02065   0.03531   0.04406
  Beta virt. eigenvalues --    0.06718   0.08230   0.09310   0.11916   0.18887
  Beta virt. eigenvalues --    0.19939   0.26206   0.28544   0.30604   0.31678
  Beta virt. eigenvalues --    0.33112   0.34723   0.36869   0.40910   0.41384
  Beta virt. eigenvalues --    0.43350   0.44574   0.46319   0.46629   0.47342
  Beta virt. eigenvalues --    0.50947   0.52598   0.54752   0.55527   0.55945
  Beta virt. eigenvalues --    0.58839   0.60036   0.62258   0.62937   0.64531
  Beta virt. eigenvalues --    0.69127   0.74872   0.76429   0.77576   0.83541
  Beta virt. eigenvalues --    0.85917   0.87249   0.89738   0.91073   0.93811
  Beta virt. eigenvalues --    0.95493   0.98141   0.99102   1.00423   1.04200
  Beta virt. eigenvalues --    1.07247   1.13715   1.21044   1.22583   1.30587
  Beta virt. eigenvalues --    1.31754   1.36487   1.41354   1.49334   1.51958
  Beta virt. eigenvalues --    1.60069   1.61735   1.65900   1.69385   1.70787
  Beta virt. eigenvalues --    1.79148   1.84323   1.88239   1.93464   1.94284
  Beta virt. eigenvalues --    2.02541   2.06732   2.18092   2.24794   2.29945
  Beta virt. eigenvalues --    2.31492   2.40272   2.44490   2.48238   2.50590
  Beta virt. eigenvalues --    2.52388   2.55067   2.55803   2.64664   2.68825
  Beta virt. eigenvalues --    2.73990   2.75964   2.82701   2.85359   2.90972
  Beta virt. eigenvalues --    2.94930   3.05885   3.20785   3.22195   3.24382
  Beta virt. eigenvalues --    3.30683   3.31719   3.33238   3.43663   3.46135
  Beta virt. eigenvalues --    3.63775   3.64470   3.71585
          Condensed to atoms (all electrons):
          Atomic-Atomic Spin Densities.
 Mulliken charges and spin densities:
               1          2
     1  O   -0.505209   0.004092
     2  C    0.108418   0.015110
     3  C   -0.375351   0.043254
     4  Br   0.390697   0.405326
     5  C    0.063352   0.016476
     6  O   -0.244888   0.416071
     7  N    0.268792  -0.004577
     8  O   -0.155715   0.023521
     9  O   -0.163452   0.012335
    10  H    0.384691   0.000402
    11  H    0.188501   0.000102
    12  H    0.179253   0.002966
    13  H    0.227418  -0.000838
    14  H    0.242275   0.077177
    15  H    0.391219  -0.011417
 Sum of Mulliken charges =   1.00000   1.00000
 Mulliken charges and spin densities with hydrogens summed into heavy atoms:
               1          2
     1  O   -0.120518   0.004494
     2  C    0.476171   0.018179
     3  C   -0.375351   0.043254
     4  Br   0.390697   0.405326
     5  C    0.533044   0.092815
     6  O    0.146331   0.404653
     7  N    0.268792  -0.004577
     8  O   -0.155715   0.023521
     9  O   -0.163452   0.012335
 Electronic spatial extent (au):  <R**2>=           1453.2966
 Charge=              1.0000 electrons
 Dipole moment (field-independent basis, Debye):
    X=             -4.2346    Y=             -3.3450    Z=             -0.8640  Tot=              5.4651
                          Isotropic Fermi Contact Couplings
        Atom                 a.u.       MegaHertz       Gauss      10(-4) cm-1
     1  O(17)             -0.00029       0.17463       0.06231       0.05825
     2  C(13)              0.00678       7.62427       2.72053       2.54318
     3  C(13)              0.00576       6.48021       2.31230       2.16157
     4  Br(79)             0.06138      68.97295      24.61127      23.00690
     5  C(13)             -0.02003     -22.51571      -8.03416      -7.51043
     6  O(17)              0.15233     -92.34185     -32.94987     -30.80193
     7  N(14)             -0.00979      -3.16391      -1.12896      -1.05537
     8  O(17)              0.00667      -4.04476      -1.44327      -1.34919
     9  O(17)              0.00351      -2.12587      -0.75856      -0.70911
    10  H(1)               0.00035       1.57385       0.56159       0.52498
    11  H(1)              -0.00023      -1.02179      -0.36460      -0.34083
    12  H(1)               0.00172       7.67991       2.74038       2.56174
    13  H(1)              -0.00011      -0.47764      -0.17043      -0.15932
    14  H(1)               0.03610     161.36792      57.58008      53.82654
    15  H(1)              -0.00534     -23.89137      -8.52503      -7.96930
 --------------------------------------------------------
       Center         ----  Spin Dipole Couplings  ----
                      3XX-RR        3YY-RR        3ZZ-RR
 --------------------------------------------------------
     1   Atom       -0.006280      0.006138      0.000142
     2   Atom       -0.016748      0.015187      0.001561
     3   Atom       -0.055026     -0.080322      0.135348
     4   Atom       -1.773758     -2.267126      4.040883
     5   Atom       -0.039314      0.059942     -0.020628
     6   Atom       -0.784986      0.953999     -0.169013
     7   Atom        0.005110     -0.006943      0.001833
     8   Atom        0.112575     -0.068774     -0.043801
     9   Atom       -0.017352      0.007717      0.009635
    10   Atom       -0.001360     -0.000754      0.002114
    11   Atom       -0.004400     -0.000159      0.004559
    12   Atom       -0.002921      0.002533      0.000388
    13   Atom       -0.000141     -0.006660      0.006801
    14   Atom       -0.003711      0.017124     -0.013413
    15   Atom       -0.021370     -0.010045      0.031416
 --------------------------------------------------------
                        XY            XZ            YZ
 --------------------------------------------------------
     1   Atom       -0.009733     -0.004978      0.016037
     2   Atom        0.003198      0.000741      0.021819
     3   Atom        0.008559     -0.068908     -0.027865
     4   Atom        0.153650      1.768653      0.499269
     5   Atom        0.026298     -0.021689     -0.085543
     6   Atom        0.194998     -0.111500     -1.075137
     7   Atom       -0.000004     -0.004494      0.001782
     8   Atom        0.029012      0.038623      0.009480
     9   Atom        0.020481     -0.019510     -0.039587
    10   Atom        0.001621      0.002332      0.002508
    11   Atom       -0.000869     -0.001605      0.002599
    12   Atom       -0.002348     -0.001159      0.002258
    13   Atom        0.003653      0.009303      0.002262
    14   Atom       -0.014561     -0.001235      0.002157
    15   Atom        0.028770      0.045875      0.026704
 --------------------------------------------------------


 ---------------------------------------------------------------------------------
              Anisotropic Spin Dipole Couplings in Principal Axis System
 ---------------------------------------------------------------------------------

       Atom             a.u.   MegaHertz   Gauss  10(-4) cm-1        Axes

              Baa    -0.0144     1.040     0.371     0.347  0.4458  0.6729 -0.5903
     1 O(17)  Bbb    -0.0089     0.647     0.231     0.216  0.8278 -0.0590  0.5579
              Bcc     0.0233    -1.687    -0.602    -0.563 -0.3406  0.7374  0.5833
 
              Baa    -0.0175    -2.348    -0.838    -0.783  0.9168 -0.2799  0.2849
     2 C(13)  Bbb    -0.0139    -1.869    -0.667    -0.623 -0.3945 -0.5229  0.7556
              Bcc     0.0314     4.216     1.505     1.406  0.0625  0.8051  0.5898
 
              Baa    -0.0839   -11.254    -4.016    -3.754  0.0276  0.9905  0.1346
     3 C(13)  Bbb    -0.0773   -10.376    -3.702    -3.461  0.9517 -0.0672  0.2996
              Bcc     0.1612    21.630     7.718     7.215 -0.3058 -0.1198  0.9445
 
              Baa    -2.3111  -310.010  -110.619  -103.408 -0.3098  0.9507  0.0115
     4 Br(79) Bbb    -2.2653  -303.863  -108.426  -101.358  0.9119  0.3005 -0.2795
              Bcc     4.5764   613.872   219.045   204.766  0.2692  0.0761  0.9601
 
              Baa    -0.0755   -10.130    -3.615    -3.379  0.1388  0.5094  0.8492
     5 C(13)  Bbb    -0.0458    -6.152    -2.195    -2.052  0.9686 -0.2483 -0.0093
              Bcc     0.1213    16.282     5.810     5.431  0.2061  0.8239 -0.5279
 
              Baa    -0.8224    59.507    21.234    19.849 -0.3234  0.5157  0.7934
     6 O(17)  Bbb    -0.8040    58.173    20.758    19.405  0.9417  0.0933  0.3233
              Bcc     1.6263  -117.681   -41.991   -39.254  0.0927  0.8517 -0.5158
 
              Baa    -0.0074    -0.284    -0.101    -0.095 -0.0819  0.9702 -0.2280
     7 N(14)  Bbb    -0.0010    -0.037    -0.013    -0.012  0.5786  0.2326  0.7818
              Bcc     0.0083     0.321     0.115     0.107  0.8115 -0.0679 -0.5804
 
              Baa    -0.0738     5.343     1.906     1.782 -0.1206  0.9806 -0.1544
     8 O(17)  Bbb    -0.0525     3.799     1.356     1.267 -0.2463  0.1211  0.9616
              Bcc     0.1263    -9.141    -3.262    -3.049  0.9617  0.1540  0.2269
 
              Baa    -0.0312     2.258     0.806     0.753 -0.2604  0.7524  0.6050
     9 O(17)  Bbb    -0.0276     1.995     0.712     0.665  0.9005 -0.0367  0.4332
              Bcc     0.0588    -4.253    -1.517    -1.419 -0.3481 -0.6576  0.6681
 
              Baa    -0.0027    -1.458    -0.520    -0.486  0.8459 -0.5144 -0.1408
    10 H(1)   Bbb    -0.0021    -1.134    -0.405    -0.378  0.3353  0.7183 -0.6095
              Bcc     0.0049     2.592     0.925     0.865  0.4146  0.4684  0.7802
 
              Baa    -0.0047    -2.520    -0.899    -0.841  0.9843  0.1077  0.1400
    11 H(1)   Bbb    -0.0013    -0.696    -0.248    -0.232 -0.0405  0.9093 -0.4141
              Bcc     0.0060     3.216     1.148     1.073 -0.1719  0.4019  0.8994
 
              Baa    -0.0038    -2.038    -0.727    -0.680  0.9441  0.3170  0.0898
    12 H(1)   Bbb    -0.0010    -0.542    -0.193    -0.181  0.0839 -0.4948  0.8650
              Bcc     0.0048     2.580     0.921     0.861 -0.3187  0.8091  0.4937
 
              Baa    -0.0087    -4.661    -1.663    -1.555 -0.5875  0.7731  0.2392
    13 H(1)   Bbb    -0.0053    -2.817    -1.005    -0.940  0.5716  0.6056 -0.5536
              Bcc     0.0140     7.478     2.668     2.495  0.5728  0.1885  0.7977
 
              Baa    -0.0136    -7.245    -2.585    -2.417  0.0714 -0.0362  0.9968
    14 H(1)   Bbb    -0.0112    -5.971    -2.131    -1.992  0.8869  0.4596 -0.0468
              Bcc     0.0248    13.217     4.716     4.409 -0.4564  0.8874  0.0649
 
              Baa    -0.0524   -27.957    -9.976    -9.326  0.8618 -0.3604 -0.3569
    15 H(1)   Bbb    -0.0224   -11.932    -4.258    -3.980  0.1317  0.8385 -0.5287
              Bcc     0.0748    39.890    14.234    13.306  0.4898  0.4087  0.7701
 

 ---------------------------------------------------------------------------------

   1 Symmetry operations used in ECPInt.
 ECPInt:  NShTT=    2628 NPrTT=   11487 LenC2=    2584 LenP2D=    8495.
 LDataN:  DoStor=T MaxTD1= 5 Len=  102
 Calling FoFJK, ICntrl=      2127 FMM=F ISym2X=0 I1Cent= 0 IOpClX= 1 NMat=1 NMatS=1 NMatT=0.

 GradGradGradGradGradGradGradGradGradGradGradGradGradGradGradGradGradGrad
 FormGI is forming the generalized inverse of G from B-inverse, IUseBI=4.
 Internal  Forces:  Max     0.021300685 RMS     0.006517170
 Step number   1 out of a maximum of   77
 All quantities printed in internal units (Hartrees-Bohrs-Radians)
 Mixed Optimization -- RFO/linear search
 Second derivative matrix not updated -- first step.
 ITU=  0
     Eigenvalues ---    0.00230   0.00230   0.00230   0.00385   0.01614
     Eigenvalues ---    0.01917   0.04788   0.04805   0.05407   0.06084
     Eigenvalues ---    0.06137   0.06235   0.08640   0.10968   0.11648
     Eigenvalues ---    0.13612   0.14056   0.16000   0.16000   0.16372
     Eigenvalues ---    0.18175   0.18730   0.21995   0.22096   0.25000
     Eigenvalues ---    0.25000   0.28242   0.29536   0.29584   0.32228
     Eigenvalues ---    0.32904   0.33426   0.33811   0.44659   0.48558
     Eigenvalues ---    0.53002   0.54371   1.00114   1.02465
 Linear search not attempted -- first point.
 Iteration  1 RMS(Cart)=  0.14562630 RMS(Int)=  0.00889578
 Iteration  2 RMS(Cart)=  0.01323143 RMS(Int)=  0.00121674
 Iteration  3 RMS(Cart)=  0.00012395 RMS(Int)=  0.00121506
 Iteration  4 RMS(Cart)=  0.00000032 RMS(Int)=  0.00121506
 Variable       Old X    -DE/DX   Delta X   Delta X   Delta X     New X
                                 (Linear)    (Quad)   (Total)
    R1        2.65674  -0.00181   0.00000  -0.00390  -0.00390   2.65284
    R2        1.82396   0.00419   0.00000   0.00747   0.00747   1.83143
    R3        2.88898   0.00073   0.00000   0.00234   0.00234   2.89132
    R4        2.08310  -0.00025   0.00000  -0.00072  -0.00072   2.08239
    R5        2.09220  -0.00007   0.00000  -0.00019  -0.00019   2.09201
    R6        3.66857  -0.00753   0.00000  -0.04174  -0.04174   3.62683
    R7        2.91612   0.01362   0.00000   0.04553   0.04553   2.96164
    R8        2.88801   0.00120   0.00000   0.00384   0.00384   2.89185
    R9        2.61349  -0.01588   0.00000  -0.03161  -0.03161   2.58188
   R10        2.07651   0.00158   0.00000   0.00444   0.00444   2.08095
   R11        2.10428   0.00283   0.00000   0.00835   0.00835   2.11264
   R12        1.83651   0.02130   0.00000   0.03896   0.03896   1.87547
   R13        2.28593  -0.01146   0.00000  -0.01126  -0.01126   2.27467
   R14        2.27667  -0.00348   0.00000  -0.00334  -0.00334   2.27333
    A1        1.91697   0.00638   0.00000   0.03611   0.03611   1.95307
    A2        1.87846  -0.01661   0.00000  -0.07381  -0.07402   1.80444
    A3        1.95866   0.00656   0.00000   0.03724   0.03744   1.99610
    A4        1.94125   0.00510   0.00000   0.01258   0.01103   1.95228
    A5        1.91723   0.00492   0.00000   0.02407   0.02460   1.94183
    A6        1.87906   0.00129   0.00000  -0.00918  -0.00967   1.86940
    A7        1.88768  -0.00133   0.00000   0.00772   0.00738   1.89506
    A8        1.92825   0.00420   0.00000   0.02243   0.01945   1.94770
    A9        1.97393  -0.01280   0.00000  -0.07118  -0.07164   1.90229
   A10        1.88519   0.01109   0.00000   0.07698   0.07674   1.96193
   A11        1.92625   0.00069   0.00000  -0.02762  -0.02800   1.89826
   A12        1.85263  -0.00355   0.00000  -0.00035  -0.00187   1.85076
   A13        1.89273   0.00114   0.00000   0.00651   0.00849   1.90122
   A14        1.98133  -0.01019   0.00000  -0.04810  -0.05087   1.93046
   A15        1.89073   0.00811   0.00000   0.07482   0.07490   1.96563
   A16        1.85106  -0.00087   0.00000  -0.03820  -0.04222   1.80884
   A17        1.88611   0.00513   0.00000   0.06086   0.06118   1.94730
   A18        1.97017  -0.00144   0.00000  -0.06180  -0.06642   1.90375
   A19        1.88081   0.00000   0.00000   0.01965   0.02108   1.90189
   A20        1.89090   0.00437   0.00000   0.02472   0.02472   1.91562
   A21        2.04267  -0.00633   0.00000  -0.02378  -0.02440   2.01827
   A22        2.04645  -0.00747   0.00000  -0.02806  -0.02867   2.01777
   A23        2.19407   0.01380   0.00000   0.05167   0.05106   2.24512
    D1        3.00824   0.00170   0.00000   0.02160   0.02127   3.02951
    D2        0.89681   0.00263   0.00000   0.01799   0.01861   0.91542
    D3       -1.22059  -0.00392   0.00000  -0.02714  -0.02743  -1.24801
    D4       -1.25175   0.00166   0.00000  -0.00134  -0.00019  -1.25193
    D5        0.91727  -0.00370   0.00000  -0.07328  -0.07241   0.84486
    D6        3.01212  -0.00269   0.00000  -0.05701  -0.05767   2.95445
    D7        0.88548   0.00221   0.00000   0.01233   0.01298   0.89845
    D8        3.05449  -0.00315   0.00000  -0.05961  -0.05924   2.99525
    D9       -1.13384  -0.00214   0.00000  -0.04333  -0.04451  -1.17835
   D10        2.93722   0.00405   0.00000   0.02948   0.02978   2.96700
   D11       -1.17695  -0.00131   0.00000  -0.04246  -0.04244  -1.21939
   D12        0.91790  -0.00030   0.00000  -0.02619  -0.02770   0.89020
   D13       -1.22447   0.01061   0.00000   0.23532   0.23354  -0.99093
   D14        2.96373   0.00497   0.00000   0.13708   0.13625   3.09998
   D15        0.94867   0.00154   0.00000   0.09796   0.09858   1.04725
   D16        0.94563   0.00718   0.00000   0.19082   0.19047   1.13610
   D17       -1.14935   0.00154   0.00000   0.09259   0.09318  -1.05617
   D18        3.11877  -0.00189   0.00000   0.05346   0.05550  -3.10891
   D19        2.96819   0.00395   0.00000   0.17893   0.17771  -3.13728
   D20        0.87320  -0.00169   0.00000   0.08070   0.08043   0.95363
   D21       -1.14185  -0.00512   0.00000   0.04157   0.04275  -1.09911
   D22        0.25969   0.00639   0.00000   0.07557   0.07515   0.33484
   D23       -2.88495   0.00526   0.00000   0.01633   0.01593  -2.86902
   D24       -1.80855  -0.00226   0.00000   0.01062   0.01069  -1.79786
   D25        1.32999  -0.00338   0.00000  -0.04862  -0.04853   1.28147
   D26        2.40488  -0.00173   0.00000   0.03984   0.04015   2.44504
   D27       -0.73976  -0.00286   0.00000  -0.01940  -0.01906  -0.75882
   D28        0.88090  -0.00421   0.00000  -0.03698  -0.03501   0.84589
   D29        2.97851   0.00315   0.00000   0.06914   0.06994   3.04844
   D30       -1.22641   0.00568   0.00000   0.09646   0.09370  -1.13271
         Item               Value     Threshold  Converged?
 Maximum Force            0.021301     0.000015     NO 
 RMS     Force            0.006517     0.000010     NO 
 Maximum Displacement     0.533665     0.000060     NO 
 RMS     Displacement     0.151444     0.000040     NO 
 GradGradGradGradGradGradGradGradGradGradGradGradGradGradGradGradGradGrad

                    Distance matrix (angstroms):
                    1          2          3          4          5
     1  O    0.000000
     2  C    1.403825   0.000000
     3  C    2.303536   1.530021   0.000000
     4  Br   3.175277   2.861103   1.919238   0.000000
     5  C    2.639682   2.521508   1.567234   2.841586   0.000000
     6  O    2.245256   2.860675   2.414584   3.175670   1.366273
     7  N    3.689072   2.543233   1.530301   2.765580   2.520776
     8  O    4.049138   2.686847   2.320512   3.484973   3.520642
     9  O    4.586891   3.615091   2.319587   3.177553   2.754602
    10  H    0.969152   1.981166   3.190098   3.974446   3.570507
    11  H    2.112239   1.101952   2.185839   2.984033   3.494814
    12  H    2.086491   1.107043   2.136136   3.819287   2.798732
    13  H    3.679936   3.501242   2.235292   3.052782   1.101190
    14  H    2.933665   2.669273   2.128930   3.797728   1.117961
    15  H    1.418396   2.375437   2.506979   3.385302   1.941231
                    6          7          8          9         10
     6  O    0.000000
     7  N    3.729356   0.000000
     8  O    4.629267   1.203703   0.000000
     9  O    4.062907   1.202996   2.168950   0.000000
    10  H    3.074755   4.477410   4.651408   5.455708   0.000000
    11  H    3.834280   2.873996   2.655286   4.034900   2.375796
    12  H    3.310123   2.680731   2.621955   3.735685   2.453491
    13  H    2.045887   2.759023   3.918598   2.498240   4.628977
    14  H    2.028542   2.694998   3.498634   2.983267   3.726022
    15  H    0.992458   3.928845   4.618830   4.517122   2.131592
                   11         12         13         14         15
    11  H    0.000000
    12  H    1.793653   0.000000
    13  H    4.375708   3.783369   0.000000
    14  H    3.713004   2.478215   1.806334   0.000000
    15  H    3.324572   2.830511   2.874667   2.329066   0.000000
 Framework group  C1[X(C3H6BrNO4)]
 Deg. of freedom    39
                         Standard orientation:                         
 ---------------------------------------------------------------------
 Center     Atomic      Atomic             Coordinates (Angstroms)
 Number     Number       Type             X           Y           Z
 ---------------------------------------------------------------------
      1          8           0       -1.977026   -0.897529   -0.895966
      2          6           0       -0.616674   -1.112266   -1.168100
      3          6           0        0.091541   -0.418198   -0.002911
      4         35           0       -0.027382    1.492355   -0.141166
      5          6           0       -0.576423   -0.868878    1.341311
      6          8           0       -1.915158   -0.596270    1.328127
      7          7           0        1.585336   -0.746129    0.050559
      8          8           0        2.062211   -1.170714   -0.969842
      9          8           0        2.138898   -0.482306    1.085531
     10          1           0       -2.543490   -1.205856   -1.619367
     11          1           0       -0.278101   -0.711612   -2.137193
     12          1           0       -0.350767   -2.185729   -1.117934
     13          1           0       -0.083619   -0.435202    2.225443
     14          1           0       -0.429268   -1.977076    1.350233
     15          1           0       -2.315817   -0.923443    0.481131
 ---------------------------------------------------------------------
 Rotational constants (GHZ):           1.2881758           1.1242398           0.8683453
   156 basis functions,   304 primitive gaussians,   167 cartesian basis functions
    49 alpha electrons       48 beta electrons
       nuclear repulsion energy       800.1922316295 Hartrees.
 NAtoms=   15 NActive=   15 NUniq=   15 SFac= 1.00D+00 NAtFMM=   60 NAOKFM=F Big=F
 Nuclear repulsion after empirical dispersion term =      800.1834626130 Hartrees.
   1 Symmetry operations used in ECPInt.
 ECPInt:  NShTT=    2628 NPrTT=   11487 LenC2=    2586 LenP2D=    8523.
 LDataN:  DoStor=T MaxTD1= 4 Len=   56
 Initial guess from the checkpoint file:  "40.chk"
 B after Tr=     0.000000   -0.000000   -0.000000
         Rot=    0.994740   -0.029435    0.000859    0.098110 Ang= -11.76 deg.
 Initial guess <Sx>= 0.0000 <Sy>= 0.0000 <Sz>= 0.5000 <S**2>= 0.7546 S= 0.5023
 ExpMin= 1.22D-01 ExpMax= 1.13D+05 ExpMxC= 1.70D+04 IAcc=3 IRadAn=         5 AccDes= 0.00D+00
 Harris functional with IExCor= 4639 and IRadAn=       5 diagonalized for initial guess.
 HarFok:  IExCor= 4639 AccDes= 0.00D+00 IRadAn=         5 IDoV= 1 UseB2=F ITyADJ=14
 ICtDFT=  3500011 ScaDFX=  1.000000  1.000000  1.000000  1.000000
 FoFCou: FMM=F IPFlag=           0 FMFlag=      100000 FMFlg1=           0
         NFxFlg=           0 DoJE=T BraDBF=F KetDBF=T FulRan=T
         wScrn=  0.000000 ICntrl=       500 IOpCl=  0 I1Cent=   200000004 NGrid=           0
         NMat0=    1 NMatS0=      1 NMatT0=    0 NMatD0=    1 NMtDS0=    0 NMtDT0=    0
 Petite list used in FoFCou.
     Minimum is close to point  4 DX=  4.32D-03 DF= -4.11D-07 DXR=  3.58D-03 DFR=  1.29D-05 which will be used.
     Accept linear search using points  1 and  2.
     Minimum is close to point  2 DX= -6.10D-03 DF= -1.15D-07 DXR=  6.14D-03 DFR=  3.77D-05 which will be used.
     Accept linear search using points  1 and  2.
     Minimum is close to point  2 DX= -5.49D-02 DF= -5.06D-06 DXR=  6.49D-02 DFR=  3.46D-03 which will be used.
     Minimum is close to point  2 DX=  1.28D-02 DF= -1.55D-07 DXR=  1.41D-02 DFR=  1.97D-04 which will be used.
     Minimum is close to point  2 DX=  9.35D-02 DF= -4.18D-06 DXR=  9.41D-02 DFR=  8.93D-03 which will be used.
     Accept linear search using points  1 and  2.
     Minimum is close to point  2 DX=  3.87D-02 DF= -2.60D-07 DXR=  3.73D-02 DFR=  1.39D-03 which will be used.
     Minimum is close to point  2 DX=  6.71D-02 DF= -7.60D-07 DXR=  6.94D-02 DFR=  4.84D-03 which will be used.
     Accept linear search using points  1 and  2.
     Accept linear search using points  1 and  2.
     Accept linear search using points  1 and  2.
     Minimum is close to point  2 DX=  1.11D-01 DF= -7.95D-07 DXR=  9.98D-02 DFR=  1.01D-02 which will be used.
     Accept linear search using points  1 and  2.
     Minimum is close to point  2 DX= -6.45D-03 DF= -3.05D-09 DXR=  6.49D-03 DFR=  4.21D-05 which will be used.
     Accept linear search using points  1 and  2.
     Accept linear search using points  1 and  2.
     Minimum is close to point  2 DX= -6.06D-02 DF= -2.58D-07 DXR=  6.45D-02 DFR=  4.18D-03 which will be used.
     Accept linear search using points  1 and  2.
     Minimum is close to point  2 DX= -6.66D-02 DF= -3.06D-07 DXR=  7.99D-02 DFR=  5.27D-03 which will be used.
     Accept linear search using points  1 and  2.
     Minimum is close to point  2 DX= -1.97D-02 DF= -3.54D-07 DXR=  2.01D-02 DFR=  4.16D-04 which will be used.
     Minimum is close to point  2 DX=  7.65D-03 DF= -1.17D-09 DXR=  7.59D-03 DFR=  5.76D-05 which will be used.
 SCF Done:  E(UwB97XD) =  -3046.44796576     a.u. after   25 cycles
            Convg  =    0.2177D-06                   106 Fock formations.
              S**2 =  0.7551                  -V/T =  2.0019
 <Sx>= 0.0000 <Sy>= 0.0000 <Sz>= 0.5000 <S**2>= 0.7551 S= 0.5026
 <L.S>=  0.00000000000    
 Annihilation of the first spin contaminant:
 S**2 before annihilation     0.7551,   after     0.7500
   1 Symmetry operations used in ECPInt.
 ECPInt:  NShTT=    2628 NPrTT=   11487 LenC2=    2586 LenP2D=    8523.
 LDataN:  DoStor=T MaxTD1= 5 Len=  102
 Calling FoFJK, ICntrl=      2127 FMM=F ISym2X=0 I1Cent= 0 IOpClX= 1 NMat=1 NMatS=1 NMatT=0.

 GradGradGradGradGradGradGradGradGradGradGradGradGradGradGradGradGradGrad
 Using GEDIIS/GDIIS optimizer.
 FormGI is forming the generalized inverse of G from B-inverse, IUseBI=4.
 Internal  Forces:  Max     0.075535360 RMS     0.019675957
 Step number   2 out of a maximum of   77
 All quantities printed in internal units (Hartrees-Bohrs-Radians)
 Mixed Optimization -- RFO/linear search
 Trust test=-2.93D-02 RLast= 5.16D-01 DXMaxT set to 1.50D-01
 ITU= -1  0
 Use linear search instead of GDIIS.
     Eigenvalues ---    0.00230   0.00250   0.00290   0.00416   0.01614
     Eigenvalues ---    0.01894   0.04328   0.04972   0.05737   0.05886
     Eigenvalues ---    0.06319   0.07299   0.07918   0.10621   0.11412
     Eigenvalues ---    0.13221   0.13650   0.15157   0.16004   0.16212
     Eigenvalues ---    0.17506   0.20362   0.21959   0.22037   0.24992
     Eigenvalues ---    0.26285   0.29208   0.29580   0.32193   0.32904
     Eigenvalues ---    0.33425   0.33800   0.44618   0.45890   0.51117
     Eigenvalues ---    0.54336   0.90342   0.99360   1.02563
 Quartic linear search produced a step of -0.43828.
 Maximum step size (   0.150) exceeded in Quadratic search.
    -- Step size scaled by   0.571
 Iteration  1 RMS(Cart)=  0.09037105 RMS(Int)=  0.00224054
 Iteration  2 RMS(Cart)=  0.00316197 RMS(Int)=  0.00060589
 Iteration  3 RMS(Cart)=  0.00000425 RMS(Int)=  0.00060588
 Iteration  4 RMS(Cart)=  0.00000000 RMS(Int)=  0.00060588
 Variable       Old X    -DE/DX   Delta X   Delta X   Delta X     New X
                                 (Linear)    (Quad)   (Total)
    R1        2.65284   0.00374   0.00171  -0.00065   0.00106   2.65390
    R2        1.83143   0.00393  -0.00328   0.00665   0.00338   1.83481
    R3        2.89132   0.03566  -0.00102   0.02894   0.02791   2.91923
    R4        2.08239  -0.00111   0.00031  -0.00124  -0.00093   2.08146
    R5        2.09201  -0.00017   0.00008  -0.00025  -0.00016   2.09184
    R6        3.62683  -0.00115   0.01829  -0.03072  -0.01243   3.61440
    R7        2.96164   0.04078  -0.01995   0.06349   0.04354   3.00518
    R8        2.89185  -0.00166  -0.00168   0.00133  -0.00035   2.89150
    R9        2.58188  -0.01363   0.01385  -0.02758  -0.01372   2.56816
   R10        2.08095  -0.00170  -0.00195   0.00184  -0.00011   2.08084
   R11        2.11264   0.00234  -0.00366   0.00729   0.00363   2.11627
   R12        1.87547   0.01871  -0.01707   0.03413   0.01705   1.89252
   R13        2.27467  -0.00436   0.00494  -0.00842  -0.00348   2.27119
   R14        2.27333  -0.00494   0.00146  -0.00334  -0.00188   2.27146
    A1        1.95307   0.00232  -0.01582   0.02841   0.01258   1.96565
    A2        1.80444   0.07554   0.03244   0.02872   0.06117   1.86562
    A3        1.99610  -0.03170  -0.01641  -0.01455  -0.03092   1.96518
    A4        1.95228  -0.01553  -0.00483   0.00374  -0.00100   1.95128
    A5        1.94183  -0.02162  -0.01078  -0.00695  -0.01772   1.92411
    A6        1.86940  -0.01159   0.00424  -0.00908  -0.00504   1.86436
    A7        1.89506   0.00713  -0.00323  -0.00094  -0.00429   1.89077
    A8        1.94770  -0.00758  -0.00852   0.01937   0.01166   1.95936
    A9        1.90229   0.06396   0.03140   0.03327   0.06442   1.96671
   A10        1.96193  -0.03034  -0.03364   0.01118  -0.02139   1.94054
   A11        1.89826  -0.01249   0.01227  -0.02441  -0.01329   1.88496
   A12        1.85076   0.01531   0.00082  -0.00422  -0.00324   1.84753
   A13        1.90122  -0.03146  -0.00372  -0.03910  -0.04339   1.85784
   A14        1.93046   0.05298   0.02229   0.02019   0.04367   1.97413
   A15        1.96563  -0.01678  -0.03283   0.03282  -0.00017   1.96545
   A16        1.80884  -0.01097   0.01850  -0.03889  -0.01840   1.79043
   A17        1.94730  -0.02431  -0.02682   0.01338  -0.01389   1.93341
   A18        1.90375  -0.00673   0.02911  -0.04832  -0.01695   1.88680
   A19        1.90189   0.00646  -0.00924   0.01401   0.00394   1.90582
   A20        1.91562  -0.00339  -0.01083   0.01282   0.00199   1.91761
   A21        2.01827  -0.00429   0.01069  -0.02068  -0.00970   2.00857
   A22        2.01777   0.00400   0.01257  -0.01619  -0.00334   2.01443
   A23        2.24512   0.00053  -0.02238   0.03514   0.01305   2.25817
    D1        3.02951  -0.00613  -0.00932  -0.00562  -0.01518   3.01433
    D2        0.91542  -0.01291  -0.00816  -0.00837  -0.01648   0.89894
    D3       -1.24801   0.01513   0.01202   0.00133   0.01355  -1.23447
    D4       -1.25193  -0.00027   0.00008   0.01259   0.01195  -1.23998
    D5        0.84486   0.02148   0.03173   0.01623   0.04813   0.89299
    D6        2.95445   0.00606   0.02528  -0.00300   0.02268   2.97713
    D7        0.89845  -0.00309  -0.00569   0.00919   0.00280   0.90125
    D8        2.99525   0.01865   0.02596   0.01283   0.03897   3.03422
    D9       -1.17835   0.00324   0.01951  -0.00640   0.01352  -1.16483
   D10        2.96700  -0.01368  -0.01305  -0.00140  -0.01503   2.95197
   D11       -1.21939   0.00807   0.01860   0.00224   0.02114  -1.19824
   D12        0.89020  -0.00735   0.01214  -0.01699  -0.00430   0.88589
   D13       -0.99093  -0.02143  -0.10236   0.12976   0.02808  -0.96285
   D14        3.09998  -0.01790  -0.05972   0.07129   0.01165   3.11163
   D15        1.04725  -0.01078  -0.04320   0.06171   0.01793   1.06518
   D16        1.13610   0.00087  -0.08348   0.15883   0.07539   1.21150
   D17       -1.05617   0.00440  -0.04084   0.10035   0.05896  -0.99721
   D18       -3.10891   0.01152  -0.02433   0.09077   0.06524  -3.04366
   D19       -3.13728  -0.00458  -0.07789   0.11970   0.04294  -3.09434
   D20        0.95363  -0.00104  -0.03525   0.06123   0.02651   0.98014
   D21       -1.09911   0.00608  -0.01873   0.05165   0.03279  -1.06631
   D22        0.33484  -0.02053  -0.03294   0.03031  -0.00265   0.33219
   D23       -2.86902  -0.01667  -0.00698   0.00492  -0.00210  -2.87111
   D24       -1.79786  -0.00320  -0.00468   0.00248  -0.00225  -1.80012
   D25        1.28147   0.00066   0.02127  -0.02292  -0.00170   1.27976
   D26        2.44504   0.01888  -0.01760   0.05264   0.03512   2.48016
   D27       -0.75882   0.02274   0.00835   0.02725   0.03567  -0.72315
   D28        0.84589   0.00442   0.01535  -0.00261   0.01185   0.85774
   D29        3.04844   0.00454  -0.03065   0.06607   0.03490   3.08334
   D30       -1.13271  -0.00725  -0.04106   0.06005   0.02038  -1.11233
         Item               Value     Threshold  Converged?
 Maximum Force            0.075535     0.000015     NO 
 RMS     Force            0.019676     0.000010     NO 
 Maximum Displacement     0.376428     0.000060     NO 
 RMS     Displacement     0.091386     0.000040     NO 
 GradGradGradGradGradGradGradGradGradGradGradGradGradGradGradGradGradGrad

                    Distance matrix (angstroms):
                    1          2          3          4          5
     1  O    0.000000
     2  C    1.404384   0.000000
     3  C    2.370535   1.544791   0.000000
     4  Br   3.250027   2.878098   1.912660   0.000000
     5  C    2.840935   2.609629   1.590274   2.840269   0.000000
     6  O    2.530526   2.992308   2.464217   3.262220   1.359011
     7  N    3.728675   2.536932   1.530115   2.756572   2.499606
     8  O    4.034850   2.654081   2.311902   3.470638   3.511505
     9  O    4.648686   3.612416   2.316233   3.164691   2.693222
    10  H    0.970939   1.991001   3.251861   4.051311   3.778921
    11  H    2.091474   1.101462   2.185657   2.992649   3.561389
    12  H    2.086218   1.106957   2.145078   3.827082   2.878580
    13  H    3.872317   3.573510   2.255669   3.019921   1.101134
    14  H    3.136760   2.760797   2.135216   3.787220   1.119883
    15  H    1.743087   2.533443   2.573549   3.520981   1.942960
                    6          7          8          9         10
     6  O    0.000000
     7  N    3.730701   0.000000
     8  O    4.644080   1.201861   0.000000
     9  O    4.017773   1.202002   2.173144   0.000000
    10  H    3.388181   4.500104   4.611889   5.501524   0.000000
    11  H    3.978917   2.843188   2.595283   4.006201   2.355346
    12  H    3.401895   2.663191   2.579001   3.719716   2.458289
    13  H    2.030033   2.740883   3.907159   2.438509   4.829559
    14  H    2.011715   2.634206   3.457633   2.871113   3.949541
    15  H    1.001480   3.952440   4.658499   4.495673   2.486180
                   11         12         13         14         15
    11  H    0.000000
    12  H    1.790414   0.000000
    13  H    4.414360   3.859015   0.000000
    14  H    3.780039   2.574275   1.810396   0.000000
    15  H    3.523846   2.921168   2.872487   2.307537   0.000000
 Framework group  C1[X(C3H6BrNO4)]
 Deg. of freedom    39
                         Standard orientation:                         
 ---------------------------------------------------------------------
 Center     Atomic      Atomic             Coordinates (Angstroms)
 Number     Number       Type             X           Y           Z
 ---------------------------------------------------------------------
      1          8           0       -2.046956   -0.838383   -1.013590
      2          6           0       -0.676067   -1.091472   -1.183593
      3          6           0        0.055766   -0.408474   -0.007025
      4         35           0        0.041725    1.498489   -0.153873
      5          6           0       -0.559998   -0.797037    1.406773
      6          8           0       -1.892708   -0.546112    1.495263
      7          7           0        1.530641   -0.813542    0.036742
      8          8           0        1.964918   -1.267592   -0.987813
      9          8           0        2.101996   -0.570891    1.066054
     10          1           0       -2.578211   -1.135293   -1.770119
     11          1           0       -0.291481   -0.712045   -2.143461
     12          1           0       -0.446540   -2.172467   -1.119398
     13          1           0       -0.018685   -0.333471    2.246167
     14          1           0       -0.411736   -1.906538    1.440868
     15          1           0       -2.364434   -0.926776    0.698061
 ---------------------------------------------------------------------
 Rotational constants (GHZ):           1.2313930           1.1042894           0.8740962
   156 basis functions,   304 primitive gaussians,   167 cartesian basis functions
    49 alpha electrons       48 beta electrons
       nuclear repulsion energy       793.7740942913 Hartrees.
 NAtoms=   15 NActive=   15 NUniq=   15 SFac= 1.00D+00 NAtFMM=   60 NAOKFM=F Big=F
 Nuclear repulsion after empirical dispersion term =      793.7653497692 Hartrees.
   1 Symmetry operations used in ECPInt.
 ECPInt:  NShTT=    2628 NPrTT=   11487 LenC2=    2585 LenP2D=    8501.
 LDataN:  DoStor=T MaxTD1= 4 Len=   56
 Lowest energy guess from the checkpoint file:  "40.chk"
 B after Tr=     0.000000   -0.000000   -0.000000
         Rot=    0.992543   -0.026015   -0.005680    0.118947 Ang= -14.00 deg.
 B after Tr=    -0.000000   -0.000000   -0.000000
         Rot=    0.999755    0.003372   -0.007285    0.020645 Ang=   2.54 deg.
 Initial guess <Sx>= 0.0000 <Sy>= 0.0000 <Sz>= 0.5000 <S**2>= 0.7547 S= 0.5024
     Accept linear search using points  3 and  4.
     Accept linear search using points  2 and  3.
     Accept linear search using points  1 and  2.
     Accept linear search using points  1 and  2.
     Accept linear search using points  1 and  2.
     Accept linear search using points  3 and  4.
     Minimum is close to point  3 DX=  1.41D-01 DF= -4.64D-07 DXR=  8.61D-02 DFR=  7.48D-03 which will be used.
     Accept linear search using points  2 and  3.
     Accept linear search using points  1 and  2.
     Minimum is close to point  3 DX=  7.82D-02 DF= -7.49D-08 DXR=  5.29D-02 DFR=  2.80D-03 which will be used.
     Accept linear search using points  1 and  2.
     Minimum is close to point  3 DX=  3.57D-03 DF= -1.18D-10 DXR=  2.38D-03 DFR=  5.63D-06 which will be used.
     Accept linear search using points  1 and  2.
     Minimum is close to point  3 DX=  2.67D-02 DF= -5.15D-09 DXR=  1.75D-02 DFR=  3.07D-04 which will be used.
     Accept linear search using points  1 and  2.
     Minimum is close to point  3 DX=  1.83D-02 DF= -1.95D-09 DXR=  1.20D-02 DFR=  1.45D-04 which will be used.
     Accept linear search using points  1 and  2.
     Minimum is close to point  3 DX=  1.47D-02 DF= -1.04D-09 DXR=  9.71D-03 DFR=  9.42D-05 which will be used.
     Accept linear search using points  1 and  2.
     Accept linear search using points  1 and  2.
     Minimum is close to point  2 DX= -5.61D-02 DF= -3.87D-07 DXR=  5.94D-02 DFR=  3.71D-03 which will be used.
     Minimum is close to point  2 DX=  3.89D-03 DF= -2.46D-11 DXR=  3.87D-03 DFR=  1.50D-05 which will be used.
 SCF Done:  E(UwB97XD) =  -3046.45663838     a.u. after   26 cycles
            Convg  =    0.1001D-07                   117 Fock formations.
              S**2 =  0.7552                  -V/T =  2.0020
 <Sx>= 0.0000 <Sy>= 0.0000 <Sz>= 0.5000 <S**2>= 0.7552 S= 0.5026
 <L.S>=  0.00000000000    
 Annihilation of the first spin contaminant:
 S**2 before annihilation     0.7552,   after     0.7500
   1 Symmetry operations used in ECPInt.
 ECPInt:  NShTT=    2628 NPrTT=   11487 LenC2=    2585 LenP2D=    8501.
 LDataN:  DoStor=T MaxTD1= 5 Len=  102
 Calling FoFJK, ICntrl=      2127 FMM=F ISym2X=0 I1Cent= 0 IOpClX= 1 NMat=1 NMatS=1 NMatT=0.

 GradGradGradGradGradGradGradGradGradGradGradGradGradGradGradGradGradGrad
 Using GEDIIS/GDIIS optimizer.
 FormGI is forming the generalized inverse of G from B-inverse, IUseBI=4.
 Internal  Forces:  Max     0.007385783 RMS     0.002959345
 Step number   3 out of a maximum of   77
 All quantities printed in internal units (Hartrees-Bohrs-Radians)
 Mixed Optimization -- RFO/linear search
 Trust test= 5.82D-01 RLast= 6.13D-01 DXMaxT set to 2.52D-01
 ITU=  1 -1  0
 Use linear search instead of GDIIS.
     Eigenvalues ---    0.00228   0.00232   0.00348   0.00398   0.01614
     Eigenvalues ---    0.02041   0.04306   0.05288   0.05516   0.05947
     Eigenvalues ---    0.06330   0.06668   0.08475   0.10908   0.11919
     Eigenvalues ---    0.13519   0.13680   0.15719   0.16071   0.16201
     Eigenvalues ---    0.18555   0.20106   0.21856   0.22755   0.25351
     Eigenvalues ---    0.27074   0.29431   0.30351   0.32186   0.32905
     Eigenvalues ---    0.33424   0.33936   0.44595   0.45101   0.51539
     Eigenvalues ---    0.54354   0.97977   1.01396   1.02478
 Quartic linear search produced a step of -0.02480.
 Iteration  1 RMS(Cart)=  0.07401092 RMS(Int)=  0.01263905
 Iteration  2 RMS(Cart)=  0.01412677 RMS(Int)=  0.00650886
 Iteration  3 RMS(Cart)=  0.00031293 RMS(Int)=  0.00650160
 Iteration  4 RMS(Cart)=  0.00000741 RMS(Int)=  0.00650159
 Iteration  5 RMS(Cart)=  0.00000020 RMS(Int)=  0.00650159
 Variable       Old X    -DE/DX   Delta X   Delta X   Delta X     New X
                                 (Linear)    (Quad)   (Total)
    R1        2.65390  -0.00105   0.00007  -0.00318  -0.00311   2.65079
    R2        1.83481  -0.00079  -0.00027   0.00486   0.00459   1.83940
    R3        2.91923  -0.00570  -0.00075   0.00523   0.00448   2.92371
    R4        2.08146  -0.00024   0.00004  -0.00168  -0.00164   2.07982
    R5        2.09184   0.00024   0.00001   0.00043   0.00044   2.09229
    R6        3.61440  -0.00211   0.00134  -0.04014  -0.03880   3.57560
    R7        3.00518   0.00728  -0.00221   0.07801   0.07580   3.08098
    R8        2.89150   0.00499  -0.00009   0.01667   0.01659   2.90808
    R9        2.56816  -0.00739   0.00112  -0.03940  -0.03827   2.52989
   R10        2.08084  -0.00210  -0.00011  -0.00357  -0.00368   2.07716
   R11        2.11627   0.00198  -0.00030   0.01226   0.01196   2.12823
   R12        1.89252   0.00076  -0.00139   0.03305   0.03166   1.92418
   R13        2.27119  -0.00266   0.00037  -0.01052  -0.01016   2.26103
   R14        2.27146  -0.00377   0.00013  -0.00640  -0.00627   2.26519
    A1        1.96565  -0.00203  -0.00121   0.01507   0.01386   1.97951
    A2        1.86562  -0.00256   0.00032   0.00155   0.00186   1.86748
    A3        1.96518   0.00239  -0.00016   0.00709   0.00692   1.97211
    A4        1.95128  -0.00050  -0.00025  -0.00111  -0.00137   1.94992
    A5        1.92411  -0.00138  -0.00017  -0.01310  -0.01327   1.91085
    A6        1.86436   0.00220   0.00036   0.00407   0.00444   1.86880
    A7        1.89077  -0.00018  -0.00008   0.00100   0.00092   1.89169
    A8        1.95936   0.00391  -0.00077   0.04714   0.04591   2.00527
    A9        1.96671  -0.00585   0.00018  -0.02708  -0.02695   1.93976
   A10        1.94054  -0.00127  -0.00137   0.00517   0.00267   1.94321
   A11        1.88496  -0.00049   0.00102  -0.02258  -0.02097   1.86399
   A12        1.84753   0.00059   0.00013   0.02216   0.02148   1.86901
   A13        1.85784   0.00350   0.00087  -0.02613  -0.02550   1.83234
   A14        1.97413  -0.00510   0.00018  -0.01487  -0.01500   1.95913
   A15        1.96545   0.00149  -0.00185   0.02956   0.02792   1.99337
   A16        1.79043  -0.00476   0.00150  -0.06378  -0.06247   1.72796
   A17        1.93341   0.00097  -0.00117   0.01148   0.01025   1.94365
   A18        1.88680   0.00594   0.00207   0.00396   0.00478   1.89158
   A19        1.90582   0.00160  -0.00062   0.02950   0.02920   1.93502
   A20        1.91761   0.00095  -0.00066   0.01813   0.01747   1.93508
   A21        2.00857  -0.00077   0.00085  -0.01264  -0.04113   1.96744
   A22        2.01443   0.00679   0.00079   0.01730  -0.01116   2.00328
   A23        2.25817  -0.00577  -0.00159   0.02239  -0.01113   2.24704
    D1        3.01433  -0.00132  -0.00015  -0.02496  -0.02512   2.98922
    D2        0.89894   0.00066  -0.00005  -0.01403  -0.01408   0.88486
    D3       -1.23447  -0.00048   0.00034  -0.01973  -0.01939  -1.25385
    D4       -1.23998   0.00034  -0.00029  -0.03503  -0.03497  -1.27494
    D5        0.89299  -0.00174   0.00060  -0.04953  -0.04907   0.84392
    D6        2.97713  -0.00214   0.00087  -0.09778  -0.09713   2.88000
    D7        0.90125   0.00081  -0.00039  -0.03322  -0.03325   0.86800
    D8        3.03422  -0.00127   0.00050  -0.04772  -0.04736   2.98686
    D9       -1.16483  -0.00167   0.00077  -0.09597  -0.09541  -1.26024
   D10        2.95197   0.00111  -0.00037  -0.03667  -0.03669   2.91529
   D11       -1.19824  -0.00097   0.00053  -0.05118  -0.05079  -1.24903
   D12        0.88589  -0.00136   0.00079  -0.09943  -0.09885   0.78705
   D13       -0.96285  -0.00246  -0.00649   0.01080   0.00406  -0.95879
   D14        3.11163  -0.00077  -0.00367  -0.01736  -0.02106   3.09057
   D15        1.06518  -0.00058  -0.00289  -0.02869  -0.03098   1.03420
   D16        1.21150  -0.00180  -0.00659   0.03617   0.02929   1.24079
   D17       -0.99721  -0.00012  -0.00377   0.00802   0.00417  -0.99304
   D18       -3.04366   0.00008  -0.00299  -0.00331  -0.00575  -3.04941
   D19       -3.09434   0.00033  -0.00547   0.03864   0.03264  -3.06170
   D20        0.98014   0.00201  -0.00265   0.01048   0.00752   0.98766
   D21       -1.06631   0.00221  -0.00187  -0.00085  -0.00240  -1.06871
   D22        0.33219   0.00167  -0.00180  -0.14422  -0.14211   0.19008
   D23       -2.87111   0.00532  -0.00034   0.26991   0.26571  -2.60540
   D24       -1.80012  -0.00274  -0.00021  -0.21878  -0.21520  -2.01531
   D25        1.27976   0.00092   0.00125   0.19535   0.19263   1.47239
   D26        2.48016  -0.00402  -0.00187  -0.19153  -0.18945   2.29071
   D27       -0.72315  -0.00036  -0.00041   0.22260   0.21837  -0.50478
   D28        0.85774  -0.00318   0.00057  -0.08227  -0.08176   0.77598
   D29        3.08334  -0.00447  -0.00260  -0.04473  -0.04749   3.03585
   D30       -1.11233   0.00175  -0.00283   0.00058  -0.00202  -1.11435
         Item               Value     Threshold  Converged?
 Maximum Force            0.007386     0.000015     NO 
 RMS     Force            0.002959     0.000010     NO 
 Maximum Displacement     0.313948     0.000060     NO 
 RMS     Displacement     0.081150     0.000040     NO 
 GradGradGradGradGradGradGradGradGradGradGradGradGradGradGradGradGradGrad

                    Distance matrix (angstroms):
                    1          2          3          4          5
     1  O    0.000000
     2  C    1.402739   0.000000
     3  C    2.372836   1.547162   0.000000
     4  Br   3.314469   2.904886   1.892127   0.000000
     5  C    2.806959   2.621317   1.630384   2.832217   0.000000
     6  O    2.471209   2.971145   2.470497   3.250606   1.338758
     7  N    3.728985   2.548444   1.538891   2.767554   2.514724
     8  O    3.968492   2.597249   2.285257   3.569891   3.443788
     9  O    4.578220   3.569300   2.313289   3.288509   2.594226
    10  H    0.973367   2.000103   3.259677   4.116886   3.752609
    11  H    2.094064   1.100592   2.177361   3.011348   3.573243
    12  H    2.084025   1.107191   2.150695   3.837765   2.909884
    13  H    3.853001   3.597501   2.310039   3.034653   1.099185
    14  H    3.025342   2.696296   2.121625   3.750998   1.126212
    15  H    1.620726   2.475691   2.551474   3.467538   1.949463
                    6          7          8          9         10
     6  O    0.000000
     7  N    3.720836   0.000000
     8  O    4.548445   1.196485   0.000000
     9  O    3.919307   1.198685   2.159552   0.000000
    10  H    3.328029   4.514740   4.561715   5.441161   0.000000
    11  H    3.942421   2.888578   2.653738   4.047334   2.367297
    12  H    3.414568   2.635989   2.394290   3.585397   2.473919
    13  H    2.018065   2.778399   3.885906   2.392603   4.813411
    14  H    2.002855   2.591468   3.262937   2.662022   3.848890
    15  H    1.018233   3.931843   4.537878   4.391811   2.372986
                   11         12         13         14         15
    11  H    0.000000
    12  H    1.790497   0.000000
    13  H    4.447675   3.886972   0.000000
    14  H    3.726577   2.528935   1.832627   0.000000
    15  H    3.433723   2.933695   2.882397   2.319665   0.000000
 Framework group  C1[X(C3H6BrNO4)]
 Deg. of freedom    39
                         Standard orientation:                         
 ---------------------------------------------------------------------
 Center     Atomic      Atomic             Coordinates (Angstroms)
 Number     Number       Type             X           Y           Z
 ---------------------------------------------------------------------
      1          8           0       -1.867195   -1.247732   -0.930387
      2          6           0       -0.489663   -1.176917   -1.185469
      3          6           0        0.136477   -0.325933   -0.055211
      4         35           0       -0.228173    1.527839   -0.158688
      5          6           0       -0.375585   -0.825840    1.409725
      6          8           0       -1.711075   -0.840580    1.502045
      7          7           0        1.666727   -0.484298   -0.017211
      8          8           0        2.096338   -1.054994   -0.977064
      9          8           0        2.156392   -0.373562    1.071279
     10          1           0       -2.375069   -1.649269   -1.657213
     11          1           0       -0.255717   -0.722096   -2.160000
     12          1           0       -0.013138   -2.175399   -1.142676
     13          1           0        0.078210   -0.287452    2.253773
     14          1           0       -0.010594   -1.890533    1.370163
     15          1           0       -2.127761   -1.252433    0.669249
 ---------------------------------------------------------------------
 Rotational constants (GHZ):           1.2042037           1.1197816           0.8618821
   156 basis functions,   304 primitive gaussians,   167 cartesian basis functions
    49 alpha electrons       48 beta electrons
       nuclear repulsion energy       793.0054944748 Hartrees.
 NAtoms=   15 NActive=   15 NUniq=   15 SFac= 1.00D+00 NAtFMM=   60 NAOKFM=F Big=F
 Nuclear repulsion after empirical dispersion term =      792.9966706145 Hartrees.
   1 Symmetry operations used in ECPInt.
 ECPInt:  NShTT=    2628 NPrTT=   11487 LenC2=    2584 LenP2D=    8507.
 LDataN:  DoStor=T MaxTD1= 4 Len=   56
 Initial guess from the checkpoint file:  "40.chk"
 B after Tr=    -0.000000    0.000000    0.000000
         Rot=    0.996728    0.003212   -0.008161   -0.080347 Ang=   9.27 deg.
 Initial guess <Sx>= 0.0000 <Sy>= 0.0000 <Sz>= 0.5000 <S**2>= 0.7553 S= 0.5026
 ExpMin= 1.22D-01 ExpMax= 1.13D+05 ExpMxC= 1.70D+04 IAcc=3 IRadAn=         5 AccDes= 0.00D+00
 Harris functional with IExCor= 4639 and IRadAn=       5 diagonalized for initial guess.
 HarFok:  IExCor= 4639 AccDes= 0.00D+00 IRadAn=         5 IDoV= 1 UseB2=F ITyADJ=14
 ICtDFT=  3500011 ScaDFX=  1.000000  1.000000  1.000000  1.000000
 FoFCou: FMM=F IPFlag=           0 FMFlag=      100000 FMFlg1=           0
         NFxFlg=           0 DoJE=T BraDBF=F KetDBF=T FulRan=T
         wScrn=  0.000000 ICntrl=       500 IOpCl=  0 I1Cent=   200000004 NGrid=           0
         NMat0=    1 NMatS0=      1 NMatT0=    0 NMatD0=    1 NMtDS0=    0 NMtDT0=    0
 Petite list used in FoFCou.
     Minimum is close to point  4 DX=  1.52D-02 DF= -7.03D-06 DXR=  1.25D-02 DFR=  1.58D-04 which will be used.
     Minimum is close to point  2 DX=  5.59D-02 DF= -1.67D-05 DXR=  5.29D-02 DFR=  2.81D-03 which will be used.
     Accept linear search using points  1 and  2.
     Minimum is close to point  2 DX= -7.66D-02 DF= -2.14D-05 DXR=  8.29D-02 DFR=  6.92D-03 which will be used.
     Accept linear search using points  1 and  2.
     Accept linear search using points  1 and  2.
     Accept linear search using points  1 and  2.
     Accept linear search using points  1 and  2.
     Accept linear search using points  1 and  2.
     Accept linear search using points  1 and  2.
     Accept linear search using points  1 and  2.
     Accept linear search using points  1 and  2.
     Accept linear search using points  1 and  2.
     Minimum is close to point  2 DX= -1.28D-04 DF= -6.37D-12 DXR=  1.28D-04 DFR=  1.71D-08 which will be used.
     Minimum is close to point  2 DX=  4.10D-04 DF=  0.00D+00 DXR=  4.10D-04 DFR=  0.00D+00 which will be used.
 SCF Done:  E(UwB97XD) =  -3046.44909828     a.u. after   22 cycles
            Convg  =    0.3734D-06                    89 Fock formations.
              S**2 =  0.7558                  -V/T =  2.0020
 <Sx>= 0.0000 <Sy>= 0.0000 <Sz>= 0.5000 <S**2>= 0.7558 S= 0.5029
 <L.S>=  0.00000000000    
 Annihilation of the first spin contaminant:
 S**2 before annihilation     0.7558,   after     0.7500
   1 Symmetry operations used in ECPInt.
 ECPInt:  NShTT=    2628 NPrTT=   11487 LenC2=    2584 LenP2D=    8507.
 LDataN:  DoStor=T MaxTD1= 5 Len=  102
 Calling FoFJK, ICntrl=      2127 FMM=F ISym2X=0 I1Cent= 0 IOpClX= 1 NMat=1 NMatS=1 NMatT=0.

 GradGradGradGradGradGradGradGradGradGradGradGradGradGradGradGradGradGrad
 Using GEDIIS/GDIIS optimizer.
 FormGI is forming the generalized inverse of G from B-inverse, IUseBI=4.
 Internal  Forces:  Max     0.017907365 RMS     0.006428373
 Step number   4 out of a maximum of   77
 All quantities printed in internal units (Hartrees-Bohrs-Radians)
 Mixed Optimization -- RFO/linear search
 Trust test=-2.07D+00 RLast= 5.78D-01 DXMaxT set to 1.26D-01
 ITU= -1  1 -1  0
 Use linear search instead of GDIIS.
     Eigenvalues ---    0.00230   0.00302   0.00381   0.01523   0.01707
     Eigenvalues ---    0.03382   0.04669   0.05445   0.05942   0.06309
     Eigenvalues ---    0.06552   0.08005   0.08995   0.09930   0.10939
     Eigenvalues ---    0.13157   0.13630   0.15761   0.16018   0.16116
     Eigenvalues ---    0.17551   0.19668   0.21276   0.22585   0.25046
     Eigenvalues ---    0.26254   0.28919   0.29584   0.32168   0.32921
     Eigenvalues ---    0.33428   0.33785   0.44560   0.44895   0.51603
     Eigenvalues ---    0.54354   0.99921   1.01945   1.08324
 Quartic linear search produced a step of -0.77675.
 Maximum step size (   0.126) exceeded in Quadratic search.
    -- Step size scaled by   0.477
 Iteration  1 RMS(Cart)=  0.05614311 RMS(Int)=  0.00643529
 Iteration  2 RMS(Cart)=  0.00686410 RMS(Int)=  0.00028014
 Iteration  3 RMS(Cart)=  0.00006793 RMS(Int)=  0.00027391
 Iteration  4 RMS(Cart)=  0.00000001 RMS(Int)=  0.00027391
 Variable       Old X    -DE/DX   Delta X   Delta X   Delta X     New X
                                 (Linear)    (Quad)   (Total)
    R1        2.65079   0.00165   0.00241  -0.00229   0.00012   2.65091
    R2        1.83940  -0.00283  -0.00356   0.00126  -0.00231   1.83709
    R3        2.92371  -0.00348  -0.00348  -0.00632  -0.00981   2.91391
    R4        2.07982   0.00067   0.00128  -0.00109   0.00019   2.08001
    R5        2.09229  -0.00147  -0.00034   0.00009  -0.00025   2.09204
    R6        3.57560   0.00405   0.03014  -0.02415   0.00599   3.58159
    R7        3.08098   0.00479  -0.05888   0.05868  -0.00020   3.08078
    R8        2.90808   0.00747  -0.01288   0.02032   0.00743   2.91552
    R9        2.52989   0.00088   0.02973  -0.02891   0.00081   2.53070
   R10        2.07716  -0.00139   0.00286  -0.00579  -0.00293   2.07423
   R11        2.12823  -0.00037  -0.00929   0.00959   0.00030   2.12853
   R12        1.92418  -0.00470  -0.02459   0.01750  -0.00709   1.91709
   R13        2.26103   0.01220   0.00789  -0.00558   0.00231   2.26334
   R14        2.26519   0.00596   0.00487  -0.00477   0.00010   2.26529
    A1        1.97951  -0.00287  -0.01077  -0.00091  -0.01168   1.96783
    A2        1.86748   0.00195  -0.00145   0.00360   0.00215   1.86963
    A3        1.97211  -0.00157  -0.00538   0.00510  -0.00028   1.97183
    A4        1.94992  -0.00067   0.00106  -0.00384  -0.00279   1.94713
    A5        1.91085  -0.00112   0.01030  -0.01663  -0.00632   1.90453
    A6        1.86880   0.00142  -0.00345   0.01122   0.00777   1.87657
    A7        1.89169   0.00015  -0.00072   0.00051  -0.00020   1.89149
    A8        2.00527  -0.00022  -0.03566   0.03904   0.00378   2.00905
    A9        1.93976  -0.00066   0.02093  -0.03064  -0.00967   1.93008
   A10        1.94321  -0.00307  -0.00207  -0.01301  -0.01418   1.92903
   A11        1.86399   0.00032   0.01629  -0.01058   0.00522   1.86922
   A12        1.86901   0.00145  -0.01668   0.02542   0.00938   1.87839
   A13        1.83234   0.00263   0.01981  -0.01300   0.00686   1.83920
   A14        1.95913   0.00012   0.01165  -0.01617  -0.00435   1.95477
   A15        1.99337  -0.00342  -0.02169   0.00678  -0.01521   1.97816
   A16        1.72796  -0.00153   0.04853  -0.05071  -0.00201   1.72595
   A17        1.94365   0.00080  -0.00796  -0.00053  -0.00863   1.93503
   A18        1.89158   0.00379  -0.00371   0.03500   0.03230   1.92388
   A19        1.93502   0.00044  -0.02268   0.02451   0.00148   1.93650
   A20        1.93508  -0.00486  -0.01357   0.00826  -0.00531   1.92977
   A21        1.96744   0.01462   0.03195  -0.00280   0.02868   1.99611
   A22        2.00328   0.01425   0.00867   0.02922   0.03742   2.04069
   A23        2.24704  -0.01434   0.00865  -0.00892  -0.00074   2.24630
    D1        2.98922  -0.00154   0.01951  -0.02827  -0.00875   2.98046
    D2        0.88486  -0.00051   0.01094  -0.01310  -0.00217   0.88269
    D3       -1.25385   0.00098   0.01506  -0.01465   0.00040  -1.25345
    D4       -1.27494   0.00102   0.02716  -0.00998   0.01690  -1.25804
    D5        0.84392   0.00077   0.03811  -0.01915   0.01904   0.86296
[...]
 ! D26   D(5,3,7,8)            135.381          -DE/DX =    0.0                 !
 ! D27   D(5,3,7,9)            -46.1956         -DE/DX =    0.0                 !
 ! D28   D(3,5,6,15)            66.1232         -DE/DX =    0.0                 !
 ! D29   D(13,5,6,15)         -178.3679         -DE/DX =    0.0                 !
 ! D30   D(14,5,6,15)          -43.1442         -DE/DX =    0.0                 !
 --------------------------------------------------------------------------------
 GradGradGradGradGradGradGradGradGradGradGradGradGradGradGradGradGradGrad


 ----------------------------------------------------------------------

 Electric dipole moment (input orientation):
 (Debye = 10**-18 statcoulomb cm , SI units = C m)
                  (au)            (Debye)         (10**-30 SI)
   Tot        0.225558D+01      0.573311D+01      0.191236D+02
   x         -0.159560D+01     -0.405562D+01     -0.135281D+02
   y         -0.154531D+01     -0.392779D+01     -0.131017D+02
   z         -0.392050D+00     -0.996492D+00     -0.332394D+01

 Dipole polarizability, Alpha (input orientation).
 (esu units = cm**3 , SI units = C**2 m**2 J**-1)
 Alpha(0;0):
               (au)            (10**-24 esu)      (10**-40 SI)
   iso        0.866833D+02      0.128451D+02      0.142921D+02
   aniso      0.317288D+02      0.470173D+01      0.523138D+01
   xx         0.912521D+02      0.135222D+02      0.150454D+02
   yx         0.614830D+01      0.911084D+00      0.101372D+01
   yy         0.922863D+02      0.136754D+02      0.152160D+02
   zx        -0.106779D+02     -0.158230D+01     -0.176055D+01
   zy        -0.102902D+02     -0.152485D+01     -0.169663D+01
   zz         0.765116D+02      0.113378D+02      0.126151D+02

 ----------------------------------------------------------------------

 Dipole orientation:
     8          0.50239507         -1.01029538          4.38966072
     6          2.15488525         -0.32816904          2.44145823
     6          0.54037860          0.41579599          0.14512268
    35         -1.11793781         -2.20224709         -1.52307807
     6         -1.70222266          2.59620246          1.25711397
     8         -3.28879637          1.43753349          2.78868324
     7          2.05179739          1.98486631         -1.78256506
     8          4.29952492          1.70188134         -1.60821341
     8          0.88986105          3.24631877         -3.25331975
     1          1.36078715         -1.93767675          5.71632955
     1          3.41600848         -1.89285547          1.88184475
     1          3.34206198          1.31178223          2.95498253
     1         -2.63618106          3.30185913         -0.45709766
     1         -0.37000232          3.93736725          2.16131437
     1         -2.42464211          0.85705597          4.34634735

 Electric dipole moment (dipole orientation):
 (Debye = 10**-18 statcoulomb cm , SI units = C m)
                  (au)            (Debye)         (10**-30 SI)
   Tot        0.225558D+01      0.573311D+01      0.191236D+02
   x          0.000000D+00      0.000000D+00      0.000000D+00
   y          0.000000D+00      0.000000D+00      0.000000D+00
   z          0.225558D+01      0.573311D+01      0.191236D+02

 Dipole polarizability, Alpha (dipole orientation).
 (esu units = cm**3 , SI units = C**2 m**2 J**-1)
 Alpha(0;0):
               (au)            (10**-24 esu)      (10**-40 SI)
   iso        0.866833D+02      0.128451D+02      0.142921D+02
   aniso      0.317288D+02      0.470173D+01      0.523138D+01
   xx         0.837951D+02      0.124171D+02      0.138159D+02
   yx         0.169949D+01      0.251839D+00      0.280209D+00
   yy         0.840798D+02      0.124593D+02      0.138629D+02
   zx        -0.121449D+02     -0.179969D+01     -0.200242D+01
   zy         0.127494D+02      0.188926D+01      0.210209D+01
   zz         0.921751D+02      0.136589D+02      0.151976D+02

 ----------------------------------------------------------------------
 1\1\GINC-C261\Freq\UwB97XD\def2SVPP\C3H6Br1N1O4(1+,2)\PETERCHAO1\10-Ju
 l-2023\0\\#T Geom=AllCheck Guess=TCheck SCRF=Check GenChk UwB97XD/def2
 SVPP Freq\\comment\\1,2\O,-1.7114513508,-1.3803603674,-0.9580953313\C,
 -0.3314609664,-1.2517293895,-1.1501986351\C,0.2005685298,-0.3027259924
 ,-0.0648903712\Br,-0.2503951027,1.4958172259,-0.2398281954\C,-0.420111
 4391,-0.9083350353,1.4628191664\O,-1.728246526,-0.7489820744,1.4958013
 69\N,1.7238391857,-0.4323823978,0.115483245\O,2.2791069295,-0.89682330
 36,-0.8445645994\O,2.1972751575,-0.0459098343,1.1430515834\H,-2.150109
 4333,-1.7543680571,-1.7376667634\H,-0.0809880654,-0.8274781879,-2.1380
 82386\H,0.1950166965,-2.2180964555,-1.0472887035\H,0.0922354758,-0.306
 9017973,2.2259390213\H,-0.061128835,-1.9531415861,1.367176782\H,-2.175
 8322561,-1.3181627474,0.8185938184\\Version=ES64L-G16RevB.01\State=2-A
 \HF=-3046.4612108\S2=0.756206\S2-1=0.\S2A=0.750024\RMSD=9.158e-10\RMSF
 =2.003e-06\ZeroPoint=0.1054512\Thermal=0.1155029\Dipole=-1.5956022,-1.
 5453112,-0.3920502\DipoleDeriv=-0.9384099,-0.1519917,-0.1979861,-0.149
 7588,-0.5139844,-0.0059654,-0.1870691,-0.0843451,-0.3598711,0.6427736,
 0.1155127,0.2780525,0.2099936,0.3072611,0.0779488,-0.1262015,-0.243028
 3,0.1392611,-0.2076741,-0.0453039,-0.1215867,-0.1308533,0.8044593,-0.1
 633562,-0.3250706,0.2274591,0.1304759,0.1838663,0.1436178,-0.0271068,-
 0.0365827,-0.3861337,0.1859566,-0.0326076,0.0872125,0.1091185,0.543091
 3,-0.0340568,-0.0527569,-0.1491312,0.3659998,-0.0216336,-0.0779998,-0.
 3902539,0.5106726,-0.8030649,-0.4584552,0.2851607,-0.1469308,-0.429756
 3,0.1234894,-0.0652905,0.104682,-0.3692993,1.7454306,-0.1789286,-0.030
 0715,0.1292891,0.3798123,0.3578441,1.0208293,0.2488892,1.2699462,-0.82
 78788,0.2165984,0.2228356,0.0651666,-0.318919,-0.2269824,-0.1016023,-0
 .2179255,-0.6756798,-0.6238928,-0.0403299,-0.2431829,-0.1008421,-0.206
 6487,-0.1834933,-0.4604228,-0.152454,-0.6940096,0.4631241,0.0964474,0.
 1155262,0.0304811,0.3930405,-0.0041261,0.0841637,-0.0040076,0.3293967,
 -0.0036115,-0.0277725,-0.0223844,-0.0824172,-0.0430083,0.025968,-0.011
 2277,0.006491,0.0880507,-0.0029728,0.0099763,-0.0285889,0.0184642,0.02
 67768,-0.0000122,-0.0335318,0.0616056,0.0388502,0.1277765,0.0365164,0.
 0015208,-0.0186761,-0.0281639,0.0673499,-0.0083714,0.0468678,0.1405638
 ,0.1099521,0.0823777,-0.0578433,0.0600736,0.1192985,-0.0871456,0.07953
 62,0.0392151,-0.0062331,0.5914902,0.235792,-0.1215882,0.3017239,0.5299
 661,-0.1458421,0.2448658,0.2695921,0.3487573\Polar=91.2521074,6.148298
 5,92.2862734,-10.6778982,-10.2902142,76.5115752\Quadrupole=-4.8566504,
 4.5296578,0.3269926,4.7869079,2.5051411,0.1178029\PG=C01 [X(C3H6Br1N1O
 4)]\NImag=0\\0.49537391,0.11670483,0.13190314,0.13124710,0.17772950,0.
 46594333,-0.26874657,-0.02486961,0.00202170,0.53220732,0.00002233,-0.0
 6975880,-0.01321904,-0.04887020,0.55921453,0.05186607,-0.00879748,-0.1
 0146044,-0.02325010,-0.06026919,0.55800802,-0.04095034,-0.02675164,-0.
 03050828,-0.06252806,-0.00124178,-0.02239865,0.29020450,-0.01082918,-0
 .00142874,-0.00015433,-0.00533404,-0.10346350,-0.05253178,-0.02273772,
 0.36086074,-0.00619059,0.00403957,-0.00234261,-0.01727688,-0.05391250,
 -0.11155029,0.06057207,0.08675207,0.27376559,0.00117828,-0.00012743,-0
 .00058049,0.00376853,-0.00390536,0.00487722,-0.03662588,0.03202813,-0.
 00811876,0.04506888,0.00024191,0.00096847,-0.00057524,0.00674638,-0.02
 957407,-0.00248361,0.03755040,-0.15224854,0.00400789,-0.05007917,0.219
 92746,-0.00045316,-0.00025124,0.00167143,0.00512912,-0.01512249,-0.000
 78193,-0.00981163,0.01341821,-0.02294109,0.00628559,-0.01812308,0.0278
 1903,-0.00302932,-0.00107264,0.00222640,0.00339968,-0.00129646,0.00237
 074,0.01286183,0.02737891,-0.06730978,-0.00155329,-0.00970618,0.004974
 64,0.61254214,0.00346352,0.00047547,-0.00142626,-0.00456488,-0.0049597
 3,-0.00068623,0.00541288,-0.00259552,-0.01598338,-0.00179902,-0.021219
 13,0.01097705,-0.04895391,0.53776137,0.00579280,0.00213480,0.00059762,
 0.00450882,0.00543839,-0.03345333,-0.03428312,-0.02564198,0.00962825,0
 .00247237,0.01113221,-0.00888429,0.16843089,0.19206547,0.33805408,0.01
 018889,0.00123368,-0.00621383,-0.00797278,0.00010221,-0.00749793,-0.03
 973662,-0.01721472,0.04144275,0.00155554,0.00132344,-0.00084953,-0.399
 90258,0.07863248,-0.03499290,0.59672570,0.00098746,0.00210005,-0.00964
 810,-0.00164913,0.00117515,-0.00296398,-0.00384210,-0.00908550,-0.0014
 4954,-0.00426494,-0.00317702,0.00510970,0.02769945,-0.08267645,-0.0296
 0917,0.03589499,0.24571906,0.00402184,-0.00601520,-0.02532202,-0.00753
 029,-0.00358558,0.00245522,0.02013221,0.00760462,-0.00499457,0.0015958
 9,0.00012647,-0.00068952,-0.01164857,-0.04919425,-0.08064484,0.1039648
 2,0.19672752,0.28771931,0.00549650,0.00345167,0.00308614,-0.01476709,-
 0.01687285,-0.00508697,-0.04154376,0.00382296,-0.00310798,-0.00970312,
 0.01084967,0.00142252,-0.02851754,0.00353675,0.01592204,0.00346442,-0.
 00271415,0.00274893,0.57664188,-0.00289694,-0.00357106,-0.00553147,-0.
 01551568,0.00995337,0.00853978,-0.00632352,-0.08469876,-0.00138331,0.0
 3044535,-0.02016050,0.00487840,-0.00896775,0.00348857,0.00408451,-0.00
 063340,-0.00092907,0.00102218,-0.03345547,0.40449329,0.00403688,-0.002
 62956,-0.00614347,-0.02718038,0.00411901,0.00890746,0.01108430,0.00650
 031,-0.05935421,-0.00584396,-0.00065608,0.00577292,0.01497338,0.015319
 16,0.01012201,-0.00331197,-0.00413884,-0.00315498,-0.01228324,0.329969
 12,0.99027609,-0.00164364,-0.00057351,0.00006654,-0.00366566,0.0020035
 2,-0.00213598,-0.05031795,0.02046433,0.03458955,-0.00189404,0.00056054
 ,-0.00215155,-0.00023565,-0.00339403,-0.00207687,-0.00089194,0.0004101
 9,-0.00005901,-0.25491316,0.11419066,0.23187884,0.27114047,-0.00158700
 ,0.00214934,0.00066851,-0.00089658,-0.00516005,-0.00040981,0.02071852,
 0.01122739,-0.01449012,-0.00046121,0.00097398,0.00072739,0.00018017,-0
 .00112467,-0.00053529,0.00143205,0.00063258,0.00012097,0.09978658,-0.1
 6223429,-0.17804833,-0.12626969,0.14603090,-0.00234982,0.00072452,0.00
 254205,-0.00077287,-0.00371153,-0.00459286,0.02969594,-0.01433206,-0.0
 0501167,0.00053528,0.00139059,0.00036390,-0.00097675,-0.00299932,-0.00
 331068,0.00216343,0.00186392,0.00090875,0.19450128,-0.17397066,-0.4316
 6652,-0.24597498,0.24593094,0.54262669,-0.00337408,-0.00250844,-0.0034
 6153,-0.00578588,0.00656011,0.00383495,-0.03463208,-0.01991676,-0.0468
 8795,-0.00174152,0.00032856,-0.00093262,-0.00199816,-0.00000231,-0.002
 16796,-0.00117019,-0.00078766,-0.00083699,-0.23653564,-0.07343045,-0.2
 1398539,0.04654684,0.00835618,0.02504162,0.24290701,-0.00010368,0.0001
 5617,0.00047350,0.00020232,-0.00058790,-0.00213862,-0.00500624,0.01449
 535,-0.00830821,-0.00101008,0.00343784,-0.00036064,0.00076512,-0.00057
 881,-0.00074811,0.00034565,0.00042078,-0.00035937,-0.06950640,-0.14451
 672,-0.16357479,-0.00815862,0.00592134,-0.05652305,0.08295133,0.121602
 60,-0.00407133,-0.00116817,-0.00096329,-0.00046974,0.00263823,0.001118
 74,-0.03585854,-0.01632041,-0.02189735,0.00054915,0.00120894,-0.001032
 34,0.00501417,-0.00391562,-0.00733942,0.00223865,0.00220602,0.00174442
 ,-0.19129326,-0.16244421,-0.50587281,-0.01593664,-0.05403559,-0.104280
 88,0.23965161,0.23026291,0.63377921,-0.12613858,-0.07362791,-0.1319008
 2,-0.02359452,-0.01841018,-0.03235127,-0.00401395,0.00158873,0.0033478
 6,-0.00014700,0.00052410,-0.00000458,0.00007893,-0.00058805,-0.0011570
 3,0.00052751,0.00142227,0.00249094,-0.00112531,-0.00099756,-0.00259019
 ,0.00095569,0.00017121,0.00043106,-0.00015184,0.00008233,0.00050476,0.
 15021976,-0.09155578,-0.07382171,-0.15175707,0.00098032,-0.00336255,0.
 00047251,-0.00271696,-0.00070786,-0.00129486,-0.00016238,0.00037334,0.
 00035831,-0.00028278,-0.00040685,0.00005595,0.00037600,0.00105549,0.00
 114473,0.00025121,-0.00034734,-0.00146899,0.00042678,-0.00017088,0.000
 47819,-0.00026123,0.00014235,-0.00000654,0.08973423,0.07594004,-0.1778
 7340,-0.15880108,-0.34492873,0.00706535,0.00465863,0.00790892,0.003113
 98,0.00022954,-0.00006105,0.00007132,-0.00003482,0.00002905,0.00095773
 ,-0.00010956,0.00004108,-0.00056072,-0.00043024,-0.00219882,-0.0001318
 4,0.00056448,0.00053132,0.00015411,0.00024110,0.00012521,0.00076887,-0
 .00002966,0.00046265,0.16499630,0.15387786,0.33616244,-0.02420680,-0.0
 1562390,0.03624584,-0.05739497,-0.01796706,0.03767567,0.00176542,0.004
 83425,-0.00664866,0.00076266,0.00013306,-0.00050266,0.00020857,-0.0003
 9628,-0.00321714,0.00034075,0.00054914,0.00100437,0.00132817,-0.000299
 39,0.00102526,-0.00210932,0.00060593,-0.00068436,-0.00012410,0.0000116
 4,-0.00007132,0.00166742,0.00057295,0.00196821,0.07307236,-0.00604741,
 0.00158943,0.00063108,-0.01578869,-0.09275775,0.09581515,0.00057969,0.
 00246213,-0.01897813,0.00064262,-0.00065304,-0.00200850,0.00038715,0.0
 0118309,-0.00284562,-0.00119072,-0.00056163,0.00134384,0.00131144,0.00
 024644,0.00115791,-0.00126985,-0.00005269,-0.00053596,-0.00016074,-0.0
 0010392,-0.00046645,-0.00017435,0.00117368,0.00096025,0.02494294,0.094
 46680,0.00255394,-0.00000733,0.00469464,0.04880389,0.09621848,-0.26944
 148,0.00044102,0.00524949,-0.02105535,-0.00026495,0.00105600,0.0011872
 4,-0.00105814,-0.00110846,-0.00201732,-0.00032946,-0.00040160,0.000628
 27,0.00207084,-0.00165501,-0.00155262,0.00003176,0.00028992,0.00165465
 ,-0.00045812,0.00032219,0.00031391,0.00048828,-0.00053362,0.00121878,-
 0.05308772,-0.09933036,0.28359629,-0.03450574,0.02547958,0.00052124,-0
 .09609058,0.10054816,-0.01462061,0.00525482,-0.00755569,0.00232509,-0.
 00052009,-0.00263144,-0.00178362,0.00020490,-0.00004103,0.00010891,0.0
 0097163,0.00050036,0.00032896,0.00012942,-0.00108625,0.00039308,-0.003
 55612,-0.00186327,-0.00060956,-0.00007405,-0.00013566,0.00000643,-0.00
 018126,0.00185409,0.00114189,0.00474822,-0.00381788,0.00031954,0.12404
 016,-0.00361015,0.01510764,-0.00127152,0.10369676,-0.26390419,0.025966
 25,0.00534419,-0.01871676,0.00024057,-0.00080628,-0.00097658,-0.002026
 07,0.00006001,-0.00041618,0.00201562,0.00051198,0.00048743,-0.00016928
 ,0.00225342,-0.00143376,-0.00202612,-0.00055543,0.00202250,0.00164120,
 -0.00023343,0.00014154,0.00056754,0.00033929,0.00018434,-0.00012970,0.
 00429167,-0.00700276,-0.00025366,-0.11099136,0.27374528,0.00183836,-0.
 00351585,0.00492092,-0.00982425,0.02902141,-0.05733942,0.00680763,-0.0
 2296892,-0.00527500,-0.00132654,-0.00165084,-0.00056178,-0.00000724,-0
 .00226735,0.00288359,0.00128034,0.00055243,-0.00036633,-0.00017483,-0.
 00041298,0.00086729,-0.00055204,-0.00047775,0.00014451,0.00025429,-0.0
 0000738,-0.00042344,-0.00014678,-0.00001870,0.00031423,-0.01112907,0.0
 2546333,0.00066802,0.01346034,-0.02361223,0.05578106,0.00028070,-0.000
 14359,-0.00018556,-0.00029105,0.00016290,0.00036686,0.00276583,0.00006
 271,0.00653005,0.00026451,0.00109446,-0.00016884,-0.09883019,-0.057348
 56,-0.08634312,-0.03019778,-0.02349339,-0.02597197,0.00029916,0.001437
 34,0.00160211,0.00062482,-0.00058235,-0.00099730,-0.00355709,-0.000673
 73,-0.00086000,-0.00000725,-0.00001785,-0.00004681,0.00043649,-0.00003
 300,0.00037166,0.00004526,-0.00019779,-0.00012297,0.12441500,-0.000134
 75,-0.00020070,0.00001016,-0.00002138,0.00080796,-0.00132611,0.0005985
 4,-0.00279744,0.01194051,0.00079585,0.00009796,0.00258920,-0.06455082,
 -0.14427027,-0.12512235,-0.00263503,0.00505057,0.01164182,-0.00028206,
 0.00028988,-0.00313924,0.00068062,0.00031280,0.00059423,-0.00082749,-0
 .00069089,0.00071547,0.00026784,0.00006548,-0.00003985,-0.00010892,-0.
 00019720,0.00014727,-0.00006525,0.00037234,0.00046344,0.07255402,0.143
 31390,0.00045543,0.00028581,0.00041417,0.00059486,0.00039885,-0.001017
 50,-0.00224536,-0.00339309,-0.01961671,-0.00022508,-0.00095166,0.00003
 770,-0.10237438,-0.12595997,-0.18908799,0.00789783,0.00796159,0.004693
 52,-0.00141630,-0.00128222,-0.00283872,-0.00051799,0.00057357,0.001074
 44,-0.00090761,0.00028812,0.00285284,-0.00019825,-0.00006615,0.0000292
 0,-0.00031701,-0.00018241,-0.00050887,-0.00000117,0.00001330,-0.000110
 75,0.09811033,0.12263959,0.19569476,-0.00041501,0.00006038,0.00039087,
 0.00108940,-0.00043154,0.00077925,-0.00086277,-0.00547505,0.00471956,0
 .00002744,0.00107127,-0.00047322,-0.06772481,0.05863713,-0.00284512,-0
 .02680324,0.03955633,0.00196969,0.00191483,-0.00178896,0.00205062,-0.0
 0095556,0.00045200,-0.00004278,-0.00061879,0.00007909,-0.00057707,-0.0
 0025294,-0.00006558,0.00003938,-0.00005512,0.00019020,0.00008160,0.000
 03992,-0.00005968,-0.00017939,0.00763921,-0.00988798,0.00058574,0.0863
 7068,-0.00019391,-0.00055348,0.00085062,0.00113334,0.00209987,-0.00285
 222,-0.00019207,-0.01615900,0.00648603,-0.00055959,0.00052603,0.001093
 71,0.07267231,-0.28385069,-0.03586226,0.00503076,0.00472997,0.00434661
 ,-0.00058736,0.00022100,-0.00060923,0.00054365,-0.00010503,0.00014637,
 -0.00039405,-0.00003066,0.00007119,0.00003934,0.00018050,0.00005969,-0
 .00059725,-0.00000185,-0.00022663,0.00001825,0.00059164,0.00025145,0.0
 0396523,-0.00725256,0.00263271,-0.08154761,0.29809287,-0.00069265,-0.0
 0120732,0.00023250,0.00068947,0.00377221,-0.00096426,0.00521914,0.0185
 9445,-0.01450961,-0.00012159,0.00151038,-0.00065064,-0.01514282,-0.025
 19889,-0.04437083,0.01080837,-0.00841370,0.01255465,-0.00362958,-0.000
 89492,-0.00417620,0.00155904,-0.00015965,0.00024881,0.00023616,0.00066
 576,0.00197485,0.00018653,0.00004359,-0.00011043,0.00051378,-0.0002559
 3,0.00045350,0.00044319,-0.00073148,-0.00096526,0.00726266,-0.01823553
 ,0.00477153,-0.00837896,0.02581795,0.04847152,-0.00950822,-0.00163146,
 -0.00295531,0.00037221,-0.00040379,0.00557074,-0.00164102,-0.00111686,
 0.00201365,-0.00044091,0.00199301,-0.00068045,-0.02750452,-0.03259468,
 -0.03015256,-0.10709933,-0.07026881,-0.09221082,-0.00216876,-0.0006779
 8,-0.00184933,0.00091522,-0.00004252,0.00003982,0.00030954,0.00015694,
 0.00117312,0.00216335,0.00086700,-0.00166435,-0.00043976,0.00042861,0.
 00003586,-0.00050651,-0.00004320,-0.00017784,-0.00388762,0.00361683,0.
 00055895,0.00060676,0.00066895,0.00104727,0.14882955,-0.00446124,-0.00
 511522,0.00321967,0.00475107,0.00027767,0.00366534,-0.00139217,0.00285
 601,0.00233340,-0.00073648,0.00170381,-0.00125993,0.00568742,-0.000810
 20,0.00343783,-0.10320936,-0.16494139,-0.16475509,-0.00184541,-0.00080
 105,-0.00077433,0.00094085,-0.00042321,-0.00069736,0.00032638,0.000190
 95,0.00068670,-0.00037128,-0.00029802,-0.00101665,-0.00094876,0.000209
 27,0.00023333,-0.00021260,-0.00020245,-0.00082006,0.00321361,0.0050981
 9,-0.00295805,-0.00079000,0.00151137,0.00469308,0.09904797,0.16074428,
 -0.01018147,-0.00252096,0.00014389,0.01749131,0.00355513,0.00220314,-0
 .00196073,-0.00300613,0.00521567,0.00009457,0.00404285,-0.00133970,-0.
 00043028,0.01048759,0.00778206,-0.11603984,-0.15736601,-0.19333304,-0.
 00262774,-0.00148369,-0.00171756,0.00112523,-0.00039586,-0.00082638,-0
 .00014933,0.00003737,-0.00043709,-0.00409681,-0.00128520,0.00047616,-0
 .00277520,-0.00076820,0.00016035,-0.00203371,-0.00022444,-0.00053762,0
 .00045292,-0.00287860,0.00361238,0.00187983,-0.00220599,-0.00296014,0.
 11925125,0.15401213,0.18155788\\-0.00000015,-0.00000170,0.00000179,0.0
 0000204,-0.00000191,-0.00000072,0.00000344,-0.00000083,-0.00000128,-0.
 00000056,-0.00000044,-0.00000433,-0.00000003,0.00000360,0.00000008,-0.
 00000308,0.00000119,-0.00000271,-0.00000242,0.00000202,-0.00000068,0.0
 0000099,-0.00000116,0.00000244,-0.00000125,0.00000224,0.00000029,0.000
 00185,-0.00000358,-0.00000014,0.00000147,-0.00000381,0.00000030,0.0000
 0098,-0.00000180,0.00000300,-0.00000145,0.00000386,-0.00000040,-0.0000
 0140,0.00000111,0.00000281,-0.00000043,0.00000119,-0.00000045\\\@


     SCHOPENHAUER'S LAW OF ENTROPY
 IF YOU PUT A SPOONFUL OF WINE IN A BARREL FULL
 OF SEWAGE, YOU GET SEWAGE.
 IF YOU PUT A SPOONFUL OF SEWAGE IN A BARREL FULL
 OF WINE, YOU GET SEWAGE.
 Job cpu time:       0 days  0 hours  9 minutes 58.0 seconds.
 Elapsed time:       0 days  0 hours  2 minutes 30.8 seconds.
 File lengths (MBytes):  RWF=    109 Int=      0 D2E=      0 Chk=      4 Scr=      1
 Normal termination of Gaussian 16 at Mon Jul 10 19:58:01 2023.
real 2332.75
user 8422.32
sys 32.18
