 Entering Gaussian System, Link 0=g16
 Input=gaussian_test.inp
 Output=gaussian_test.log
 Initial command:
 /sw/restricted/lms/sw/Gaussian/g16_B01/g16/l1.exe "/scratch/user/peterchao1/peterchao1/9982569_1711744467000000612453013/Gau-207071.inp" -scrdir="/scratch/user/peterchao1/peterchao1/9982569_1711744467000000612453013/"
 Entering Link 1 = /sw/restricted/lms/sw/Gaussian/g16_B01/g16/l1.exe PID=    207072.
  
 Copyright (c) 1988-2017, Gaussian, Inc.  All Rights Reserved.
  
 This is part of the Gaussian(R) 16 program.  It is based on
 the Gaussian(R) 09 system (copyright 2009, Gaussian, Inc.),
 the Gaussian(R) 03 system (copyright 2003, Gaussian, Inc.),
 the Gaussian(R) 98 system (copyright 1998, Gaussian, Inc.),
 the Gaussian(R) 94 system (copyright 1995, Gaussian, Inc.),
 the Gaussian 92(TM) system (copyright 1992, Gaussian, Inc.),
 the Gaussian 90(TM) system (copyright 1990, Gaussian, Inc.),
 the Gaussian 88(TM) system (copyright 1988, Gaussian, Inc.),
 the Gaussian 86(TM) system (copyright 1986, Carnegie Mellon
 University), and the Gaussian 82(TM) system (copyright 1983,
 Carnegie Mellon University). Gaussian is a federally registered
 trademark of Gaussian, Inc.
  
 This software contains proprietary and confidential information,
 including trade secrets, belonging to Gaussian, Inc.
  
 This software is provided under written license and may be
 used, copied, transmitted, or stored only in accord with that
 written license.
  
 The following legend is applicable only to US Government
 contracts under FAR:
  
                    RESTRICTED RIGHTS LEGEND
  
 Use, reproduction and disclosure by the US Government is
 subject to restrictions as set forth in subparagraphs (a)
 and (c) of the Commercial Computer Software - Restricted
 Rights clause in FAR 52.227-19.
  
 Gaussian, Inc.
 340 Quinnipiac St., Bldg. 40, Wallingford CT 06492
  
  
 ---------------------------------------------------------------
 Warning -- This program may not be used in any manner that
 competes with the business of Gaussian, Inc. or will provide
 assistance to any competitor of Gaussian, Inc.  The licensee
 of this program is prohibited from giving any competitor of
 Gaussian, Inc. access to this program.  By using this program,
 the user acknowledges that Gaussian, Inc. is engaged in the
 business of creating and licensing software in the field of
 computational chemistry and represents and warrants to the
 licensee that it is not a competitor of Gaussian, Inc. and that
 it will not use this program in any manner prohibited above.
 ---------------------------------------------------------------
  

 Cite this work as:
 Gaussian 16, Revision B.01,
 M. J. Frisch, G. W. Trucks, H. B. Schlegel, G. E. Scuseria, 
 M. A. Robb, J. R. Cheeseman, G. Scalmani, V. Barone, 
 G. A. Petersson, H. Nakatsuji, X. Li, M. Caricato, A. V. Marenich, 
 J. Bloino, B. G. Janesko, R. Gomperts, B. Mennucci, H. P. Hratchian, 
 J. V. Ortiz, A. F. Izmaylov, J. L. Sonnenberg, D. Williams-Young, 
 F. Ding, F. Lipparini, F. Egidi, J. Goings, B. Peng, A. Petrone, 
 T. Henderson, D. Ranasinghe, V. G. Zakrzewski, J. Gao, N. Rega, 
 G. Zheng, W. Liang, M. Hada, M. Ehara, K. Toyota, R. Fukuda, 
 J. Hasegawa, M. Ishida, T. Nakajima, Y. Honda, O. Kitao, H. Nakai, 
 T. Vreven, K. Throssell, J. A. Montgomery, Jr., J. E. Peralta, 
 F. Ogliaro, M. J. Bearpark, J. J. Heyd, E. N. Brothers, K. N. Kudin, 
 V. N. Staroverov, T. A. Keith, R. Kobayashi, J. Normand, 
 K. Raghavachari, A. P. Rendell, J. C. Burant, S. S. Iyengar, 
 J. Tomasi, M. Cossi, J. M. Millam, M. Klene, C. Adamo, R. Cammi, 
 J. W. Ochterski, R. L. Martin, K. Morokuma, O. Farkas, 
 J. B. Foresman, and D. J. Fox, Gaussian, Inc., Wallingford CT, 2016.
 
 ******************************************
 Gaussian 16:  ES64L-G16RevB.01 20-Dec-2017
                29-Mar-2024 
 ******************************************
 %nprocshared=4
 Will use up to    4 processors via shared memory.
 %mem=8000mb
 %chk=monomer.chk
 %nprocshared=4
 Will use up to    4 processors via shared memory.
 %mem=8000mb
 ----------------------------------------------------------------------
 #T wB97XD/def2svpp opt=tight freq int(grid=ultrafine) scf=(verytight,q
 c) Volume=tight
 ----------------------------------------------------------------------
 -------
 Monomer
 -------
 Symbolic Z-matrix:
 Charge =  0 Multiplicity = 1
 C                    -1.7953    0.70964  -0.02169 
 C                    -0.49256   0.00605   0.34084 
 O                    -0.47967  -1.34324  -0.08731 
 C                     0.72814   0.73117  -0.2473 
 O                     1.91908   0.07564   0.10009 
 H                    -2.6405    0.14779   0.36814 
 H                    -1.89539   0.78755  -1.10368 
 H                    -1.81225   1.70961   0.40136 
 H                    -0.38068  -0.05082   1.42877 
 H                    -0.68935  -1.36682  -1.02912 
 H                     0.79537   1.75002   0.13886 
 H                     0.62566   0.77682  -1.34525 
 H                     1.73499  -0.87441   0.08177 
 

 GradGradGradGradGradGradGradGradGradGradGradGradGradGradGradGradGradGrad
 Initialization pass.
                           ----------------------------
                           !    Initial Parameters    !
                           ! (Angstroms and Degrees)  !
 --------------------------                            --------------------------
 ! Name  Definition              Value          Derivative Info.                !
 --------------------------------------------------------------------------------
 ! R1    R(1,2)                  1.5243         estimate D2E/DX2                !
 ! R2    R(1,6)                  1.0872         estimate D2E/DX2                !
 ! R3    R(1,7)                  1.0894         estimate D2E/DX2                !
 ! R4    R(1,8)                  1.0859         estimate D2E/DX2                !
 ! R5    R(2,3)                  1.4156         estimate D2E/DX2                !
 ! R6    R(2,4)                  1.5368         estimate D2E/DX2                !
 ! R7    R(2,9)                  1.0951         estimate D2E/DX2                !
 ! R8    R(3,10)                 0.9652         estimate D2E/DX2                !
 ! R9    R(4,5)                  1.4031         estimate D2E/DX2                !
 ! R10   R(4,11)                 1.0916         estimate D2E/DX2                !
 ! R11   R(4,12)                 1.1037         estimate D2E/DX2                !
 ! R12   R(5,13)                 0.9679         estimate D2E/DX2                !
 ! A1    A(2,1,6)              109.912          estimate D2E/DX2                !
 ! A2    A(2,1,7)              110.3494         estimate D2E/DX2                !
 ! A3    A(2,1,8)              110.2265         estimate D2E/DX2                !
 ! A4    A(6,1,7)              108.7629         estimate D2E/DX2                !
 ! A5    A(6,1,8)              108.9093         estimate D2E/DX2                !
 ! A6    A(7,1,8)              108.6413         estimate D2E/DX2                !
 ! A7    A(1,2,3)              112.0734         estimate D2E/DX2                !
 ! A8    A(1,2,4)              111.7171         estimate D2E/DX2                !
 ! A9    A(1,2,9)              110.3368         estimate D2E/DX2                !
 ! A10   A(3,2,4)              109.0708         estimate D2E/DX2                !
 ! A11   A(3,2,9)              104.4792         estimate D2E/DX2                !
 ! A12   A(4,2,9)              108.8769         estimate D2E/DX2                !
 ! A13   A(2,3,10)             108.4473         estimate D2E/DX2                !
 ! A14   A(2,4,5)              111.0386         estimate D2E/DX2                !
 ! A15   A(2,4,11)             110.7265         estimate D2E/DX2                !
 ! A16   A(2,4,12)             109.0553         estimate D2E/DX2                !
 ! A17   A(5,4,11)             107.2286         estimate D2E/DX2                !
 ! A18   A(5,4,12)             110.1477         estimate D2E/DX2                !
 ! A19   A(11,4,12)            108.604          estimate D2E/DX2                !
 ! A20   A(4,5,13)             107.0056         estimate D2E/DX2                !
 ! D1    D(6,1,2,3)             54.5757         estimate D2E/DX2                !
 ! D2    D(6,1,2,4)            177.3296         estimate D2E/DX2                !
 ! D3    D(6,1,2,9)            -61.4033         estimate D2E/DX2                !
 ! D4    D(7,1,2,3)            -65.373          estimate D2E/DX2                !
 ! D5    D(7,1,2,4)             57.3808         estimate D2E/DX2                !
 ! D6    D(7,1,2,9)            178.648          estimate D2E/DX2                !
 ! D7    D(8,1,2,3)            174.6283         estimate D2E/DX2                !
 ! D8    D(8,1,2,4)            -62.6179         estimate D2E/DX2                !
 ! D9    D(8,1,2,9)             58.6492         estimate D2E/DX2                !
 ! D10   D(1,2,3,10)            53.2982         estimate D2E/DX2                !
 ! D11   D(4,2,3,10)           -70.9423         estimate D2E/DX2                !
 ! D12   D(9,2,3,10)           172.7733         estimate D2E/DX2                !
 ! D13   D(1,2,4,5)            179.7201         estimate D2E/DX2                !
 ! D14   D(1,2,4,11)            60.7178         estimate D2E/DX2                !
 ! D15   D(1,2,4,12)           -58.7265         estimate D2E/DX2                !
 ! D16   D(3,2,4,5)            -55.8298         estimate D2E/DX2                !
 ! D17   D(3,2,4,11)          -174.832          estimate D2E/DX2                !
 ! D18   D(3,2,4,12)            65.7236         estimate D2E/DX2                !
 ! D19   D(9,2,4,5)             57.6105         estimate D2E/DX2                !
 ! D20   D(9,2,4,11)           -61.3918         estimate D2E/DX2                !
 ! D21   D(9,2,4,12)           179.1639         estimate D2E/DX2                !
 ! D22   D(2,4,5,13)            37.0909         estimate D2E/DX2                !
 ! D23   D(11,4,5,13)          158.1735         estimate D2E/DX2                !
 ! D24   D(12,4,5,13)          -83.821          estimate D2E/DX2                !
 --------------------------------------------------------------------------------
 Number of steps in this run=     66 maximum allowed number of steps=    100.
 GradGradGradGradGradGradGradGradGradGradGradGradGradGradGradGradGradGrad

                    Distance matrix (angstroms):
                    1          2          3          4          5
     1  C    0.000000
     2  C    1.524337   0.000000
     3  O    2.439163   1.415644   0.000000
     4  C    2.533594   1.536826   2.405738   0.000000
     5  O    3.770063   2.424626   2.793265   1.403116   0.000000
     6  H    1.087201   2.152778   2.664537   3.473729   4.568015
     7  H    1.089402   2.159939   2.752737   2.760339   4.062764
     8  H    1.085907   2.155776   3.366669   2.798512   4.084532
     9  H    2.164084   1.095137   1.994650   2.156433   2.658999
    10  H    2.559242   1.949430   0.965159   2.649921   3.187432
    11  H    2.796372   2.177381   3.353369   1.091641   2.016865
    12  H    2.759955   2.165044   2.701632   1.103662   2.062422
    13  H    3.870775   2.409218   2.270046   1.923525   0.967901
                    6          7          8          9         10
     6  H    0.000000
     7  H    1.769387   0.000000
     8  H    1.768161   1.766991   0.000000
     9  H    2.504222   3.067654   2.490793   0.000000
    10  H    2.837833   2.470101   3.573735   2.805054   0.000000
    11  H    3.798007   3.116154   2.621106   2.507980   3.644614
    12  H    3.741540   2.532618   3.140721   3.064778   2.534636
    13  H    4.502421   4.164986   4.400255   2.639849   2.711824
                   11         12         13
    11  H    0.000000
    12  H    1.782828   0.000000
    13  H    2.788150   2.448177   0.000000
 Framework group  C1[X(C3H8O2)]
 Deg. of freedom    33
                         Standard orientation:                         
 ---------------------------------------------------------------------
 Center     Atomic      Atomic             Coordinates (Angstroms)
 Number     Number       Type             X           Y           Z
 ---------------------------------------------------------------------
      1          6           0       -1.770935   -0.604995    0.015264
      2          6           0       -0.441217    0.042724   -0.353397
      3          8           0       -0.373762    1.393767    0.063953
      4          6           0        0.749755   -0.726205    0.240039
      5          8           0        1.965845   -0.121898   -0.113054
      6          1           0       -2.593132   -0.012721   -0.378702
      7          1           0       -1.873302   -0.670192    1.097885
      8          1           0       -1.828391   -1.606811   -0.399775
      9          1           0       -0.327924    0.086372   -1.441783
     10          1           0       -0.581652    1.433265    1.005629
     11          1           0        0.775677   -1.749972   -0.137994
     12          1           0        0.646311   -0.758944    1.338355
     13          1           0        1.820131    0.834911   -0.102250
 ---------------------------------------------------------------------
 Rotational constants (GHZ):           8.3851837           3.6594299           2.7992720
    86 basis functions,   157 primitive gaussians,    91 cartesian basis functions
    21 alpha electrons       21 beta electrons
       nuclear repulsion energy       195.3347762489 Hartrees.
 NAtoms=   13 NActive=   13 NUniq=   13 SFac= 1.00D+00 NAtFMM=   60 NAOKFM=F Big=F
 Nuclear repulsion after empirical dispersion term =      195.3289614533 Hartrees.
   1 Symmetry operations used in ECPInt.
 ECPInt:  NShTT=    1081 NPrTT=    4367 LenC2=    1080 LenP2D=    3704.
 LDataN:  DoStor=T MaxTD1= 4 Len=   56
 ExpMin= 1.22D-01 ExpMax= 2.27D+03 ExpMxC= 3.41D+02 IAcc=3 IRadAn=         5 AccDes= 0.00D+00
 Harris functional with IExCor= 4639 and IRadAn=       5 diagonalized for initial guess.
 HarFok:  IExCor= 4639 AccDes= 0.00D+00 IRadAn=         5 IDoV= 1 UseB2=F ITyADJ=14
 ICtDFT=  3500011 ScaDFX=  1.000000  1.000000  1.000000  1.000000
 FoFCou: FMM=F IPFlag=           0 FMFlag=      100000 FMFlg1=           0
         NFxFlg=           0 DoJE=T BraDBF=F KetDBF=T FulRan=T
         wScrn=  0.000000 ICntrl=       500 IOpCl=  0 I1Cent=   200000004 NGrid=           0
         NMat0=    1 NMatS0=      1 NMatT0=    0 NMatD0=    1 NMtDS0=    0 NMtDT0=    0
 Petite list used in FoFCou.
     Minimum is close to point  3 DX= -8.66D-03 DF= -9.04D-06 DXR=  1.46D-02 DFR=  2.13D-04 which will be used.
     Accept linear search using points  2 and  3.
     Accept linear search using points  1 and  2.
     Minimum is close to point  2 DX=  7.68D-05 DF= -2.27D-13 DXR=  7.68D-05 DFR=  6.90D-09 which will be used.
 SCF Done:  E(RwB97XD) =  -269.259351859     a.u. after    7 cycles
            Convg  =    0.1059D-08                    32 Fock formations.
              S**2 =  0.0000                  -V/T =  2.0079

 **********************************************************************

            Population analysis using the SCF Density.

 **********************************************************************

 Orbital symmetries:
       Occupied  (A) (A) (A) (A) (A) (A) (A) (A) (A) (A) (A) (A)
                 (A) (A) (A) (A) (A) (A) (A) (A) (A)
       Virtual   (A) (A) (A) (A) (A) (A) (A) (A) (A) (A) (A) (A)
                 (A) (A) (A) (A) (A) (A) (A) (A) (A) (A) (A) (A)
                 (A) (A) (A) (A) (A) (A) (A) (A) (A) (A) (A) (A)
                 (A) (A) (A) (A) (A) (A) (A) (A) (A) (A) (A) (A)
                 (A) (A) (A) (A) (A) (A) (A) (A) (A) (A) (A) (A)
                 (A) (A) (A) (A) (A)
 The electronic state is 1-A.
 Alpha  occ. eigenvalues --  -19.26285 -19.23733 -10.34747 -10.33224 -10.29046
 Alpha  occ. eigenvalues --   -1.13357  -1.09745  -0.86565  -0.77178  -0.71164
 Alpha  occ. eigenvalues --   -0.61056  -0.58220  -0.54835  -0.52998  -0.51184
 Alpha  occ. eigenvalues --   -0.48997  -0.46470  -0.42657  -0.41004  -0.37461
 Alpha  occ. eigenvalues --   -0.34301
 Alpha virt. eigenvalues --    0.12239   0.15872   0.16900   0.19026   0.19956
 Alpha virt. eigenvalues --    0.21790   0.22662   0.24459   0.29294   0.30192
 Alpha virt. eigenvalues --    0.30469   0.32466   0.53406   0.54193   0.56712
 Alpha virt. eigenvalues --    0.59122   0.60324   0.63452   0.68243   0.70194
 Alpha virt. eigenvalues --    0.72857   0.73612   0.76426   0.78013   0.79132
 Alpha virt. eigenvalues --    0.79746   0.81055   0.81879   0.82784   0.84691
 Alpha virt. eigenvalues --    0.96508   1.07897   1.11065   1.13013   1.16225
 Alpha virt. eigenvalues --    1.20459   1.28887   1.38321   1.53762   1.56242
 Alpha virt. eigenvalues --    1.60612   1.70880   1.80713   1.87524   1.95193
 Alpha virt. eigenvalues --    1.97386   2.02275   2.07517   2.19219   2.20951
 Alpha virt. eigenvalues --    2.25809   2.30471   2.35367   2.56054   2.61344
 Alpha virt. eigenvalues --    2.71098   2.73460   2.91693   2.96219   3.01357
 Alpha virt. eigenvalues --    3.07055   3.10327   3.13050   3.45123   3.47988
          Condensed to atoms (all electrons):
 Mulliken charges:
               1
     1  C   -0.304269
     2  C   -0.031986
     3  O   -0.496334
     4  C    0.057818
     5  O   -0.497269
     6  H    0.136345
     7  H    0.103411
     8  H    0.124317
     9  H    0.106851
    10  H    0.313814
    11  H    0.102636
    12  H    0.066545
    13  H    0.318120
 Sum of Mulliken charges =   0.00000
 Mulliken charges with hydrogens summed into heavy atoms:
               1
     1  C    0.059804
     2  C    0.074864
     3  O   -0.182519
     4  C    0.226999
     5  O   -0.179149
 Electronic spatial extent (au):  <R**2>=            471.5516
 Charge=              0.0000 electrons
 Dipole moment (field-independent basis, Debye):
    X=             -2.0967    Y=             -0.2923    Z=              1.2491  Tot=              2.4580
 Evaluate density.
 Using the total density.
 Monte-Carlo method of calculating molar volume:
 based on  0.001 e/bohr**3 density envelope.
 Number of points per bohr**3 =  100 CutOff= 1.00D-04
 Using the SCF density.
 There are      1595 points.  Will hold      1595 in memory.
 LenV=  1048416548 MDV=  1048576000.
 Box volume = 4063.782 fraction occupied=0.161
 Integrated density= 3.1627188859326477D+01 error=-1.0372811140673523D+01
 Molar volume =  652.243 bohr**3/mol ( 58.206 cm**3/mol)
 Recommended a0 for SCRF calculation =  3.63 angstrom (  6.87 bohr)
   1 Symmetry operations used in ECPInt.
 ECPInt:  NShTT=    1081 NPrTT=    4367 LenC2=    1080 LenP2D=    3704.
 LDataN:  DoStor=T MaxTD1= 5 Len=  102
 Calling FoFJK, ICntrl=      2127 FMM=F ISym2X=0 I1Cent= 0 IOpClX= 0 NMat=1 NMatS=1 NMatT=0.

 GradGradGradGradGradGradGradGradGradGradGradGradGradGradGradGradGradGrad
 FormGI is forming the generalized inverse of G from B-inverse, IUseBI=4.
 Internal  Forces:  Max     0.011735480 RMS     0.003311662
 Step number   1 out of a maximum of   66
 All quantities printed in internal units (Hartrees-Bohrs-Radians)
 Mixed Optimization -- RFO/linear search
 Second derivative matrix not updated -- first step.
 ITU=  0
     Eigenvalues ---    0.00279   0.00444   0.01485   0.01651   0.04170
     Eigenvalues ---    0.04712   0.04999   0.05712   0.05745   0.05761
     Eigenvalues ---    0.07515   0.11586   0.13880   0.16000   0.16000
     Eigenvalues ---    0.16000   0.16000   0.16000   0.16864   0.20077
     Eigenvalues ---    0.22055   0.28802   0.29953   0.33280   0.34226
     Eigenvalues ---    0.34624   0.34882   0.35138   0.35290   0.43123
     Eigenvalues ---    0.45108   0.53808   0.54378
 Linear search not attempted -- first point.
 Iteration  1 RMS(Cart)=  0.05510724 RMS(Int)=  0.00156022
 Iteration  2 RMS(Cart)=  0.00187229 RMS(Int)=  0.00008128
 Iteration  3 RMS(Cart)=  0.00000178 RMS(Int)=  0.00008127
 Iteration  4 RMS(Cart)=  0.00000000 RMS(Int)=  0.00008127
 Variable       Old X    -DE/DX   Delta X   Delta X   Delta X     New X
                                 (Linear)    (Quad)   (Total)
    R1        2.88058   0.00022   0.00000   0.00074   0.00074   2.88132
    R2        2.05451   0.01029   0.00000   0.02906   0.02906   2.08357
    R3        2.05867   0.01094   0.00000   0.03113   0.03113   2.08981
    R4        2.05207   0.01174   0.00000   0.03301   0.03301   2.08508
    R5        2.67518   0.00202   0.00000   0.00465   0.00465   2.67983
    R6        2.90418  -0.00564   0.00000  -0.01940  -0.01940   2.88478
    R7        2.06951   0.00446   0.00000   0.01294   0.01294   2.08245
    R8        1.82389   0.00315   0.00000   0.00577   0.00577   1.82965
    R9        2.65150  -0.00203   0.00000  -0.00447  -0.00447   2.64704
   R10        2.06290   0.00750   0.00000   0.02151   0.02151   2.08441
   R11        2.08562   0.00636   0.00000   0.01898   0.01898   2.10460
   R12        1.82907   0.00223   0.00000   0.00412   0.00412   1.83319
    A1        1.91833   0.00070   0.00000   0.00475   0.00472   1.92305
    A2        1.92596   0.00083   0.00000   0.00425   0.00424   1.93020
    A3        1.92382   0.00198   0.00000   0.01259   0.01255   1.93637
    A4        1.89827  -0.00087   0.00000  -0.00612  -0.00612   1.89215
    A5        1.90083  -0.00117   0.00000  -0.00559  -0.00564   1.89518
    A6        1.89615  -0.00155   0.00000  -0.01042  -0.01044   1.88571
    A7        1.95605  -0.00011   0.00000   0.00868   0.00856   1.96461
    A8        1.94983   0.00399   0.00000   0.02443   0.02439   1.97422
    A9        1.92574  -0.00097   0.00000  -0.00585  -0.00567   1.92007
   A10        1.90364  -0.00204   0.00000  -0.00468  -0.00502   1.89862
   A11        1.82351   0.00069   0.00000  -0.00454  -0.00464   1.81887
   A12        1.90026  -0.00189   0.00000  -0.02103  -0.02102   1.87924
   A13        1.89276   0.00007   0.00000   0.00043   0.00043   1.89320
   A14        1.93799  -0.00197   0.00000  -0.00503  -0.00499   1.93300
   A15        1.93254   0.00013   0.00000  -0.00291  -0.00296   1.92958
   A16        1.90337  -0.00137   0.00000  -0.01486  -0.01490   1.88847
   A17        1.87149   0.00163   0.00000   0.01692   0.01690   1.88839
   A18        1.92244   0.00250   0.00000   0.02138   0.02136   1.94380
   A19        1.89550  -0.00083   0.00000  -0.01505  -0.01531   1.88019
   A20        1.86760  -0.00311   0.00000  -0.01912  -0.01912   1.84848
    D1        0.95253  -0.00009   0.00000  -0.00297  -0.00308   0.94945
    D2        3.09498   0.00012   0.00000   0.01533   0.01539   3.11038
    D3       -1.07169  -0.00026   0.00000   0.00107   0.00107  -1.07062
    D4       -1.14097   0.00003   0.00000  -0.00110  -0.00119  -1.14216
    D5        1.00148   0.00024   0.00000   0.01720   0.01728   1.01876
    D6        3.11800  -0.00014   0.00000   0.00294   0.00296   3.12096
    D7        3.04784   0.00016   0.00000   0.00107   0.00098   3.04882
    D8       -1.09289   0.00037   0.00000   0.01937   0.01945  -1.07344
    D9        1.02362  -0.00001   0.00000   0.00510   0.00513   1.02876
   D10        0.93023   0.00145   0.00000   0.01253   0.01248   0.94271
   D11       -1.23818  -0.00212   0.00000  -0.02144  -0.02139  -1.25957
   D12        3.01546   0.00064   0.00000   0.00729   0.00730   3.02276
   D13        3.13671   0.00008   0.00000   0.07824   0.07819  -3.06829
   D14        1.05973  -0.00078   0.00000   0.06221   0.06221   1.12194
   D15       -1.02497   0.00103   0.00000   0.09186   0.09177  -0.93320
   D16       -0.97441   0.00124   0.00000   0.10289   0.10284  -0.87157
   D17       -3.05139   0.00038   0.00000   0.08686   0.08686  -2.96453
   D18        1.14709   0.00219   0.00000   0.11651   0.11642   1.26352
   D19        1.00549  -0.00001   0.00000   0.08404   0.08412   1.08962
   D20       -1.07149  -0.00086   0.00000   0.06801   0.06815  -1.00334
   D21        3.12700   0.00094   0.00000   0.09766   0.09770  -3.05848
   D22        0.64736   0.00018   0.00000   0.02941   0.02938   0.67674
   D23        2.76065   0.00021   0.00000   0.03362   0.03353   2.79418
   D24       -1.46295   0.00153   0.00000   0.03711   0.03722  -1.42573
         Item               Value     Threshold  Converged?
 Maximum Force            0.011735     0.000015     NO 
 RMS     Force            0.003312     0.000010     NO 
 Maximum Displacement     0.190914     0.000060     NO 
 RMS     Displacement     0.055182     0.000040     NO 
 GradGradGradGradGradGradGradGradGradGradGradGradGradGradGradGradGradGrad

                    Distance matrix (angstroms):
                    1          2          3          4          5
     1  C    0.000000
     2  C    1.524726   0.000000
     3  O    2.448504   1.418107   0.000000
     4  C    2.546105   1.526559   2.394891   0.000000
     5  O    3.770698   2.409951   2.720750   1.400752   0.000000
     6  H    1.102580   2.168061   2.684587   3.495545   4.570986
     7  H    1.105877   2.175740   2.774998   2.798830   4.067827
     8  H    1.103377   2.178314   3.395879   2.827567   4.130537
     9  H    2.165444   1.101984   1.998200   2.136852   2.665074
    10  H    2.577224   1.954105   0.968210   2.651739   3.105296
    11  H    2.844034   2.174751   3.349361   1.103023   2.035619
    12  H    2.726765   2.152402   2.737952   1.113705   2.083129
    13  H    3.835412   2.388529   2.165365   1.910013   0.970080
                    6          7          8          9         10
     6  H    0.000000
     7  H    1.791338   0.000000
     8  H    1.791263   1.787813   0.000000
     9  H    2.514744   3.087870   2.511177   0.000000
    10  H    2.867765   2.496039   3.609260   2.813268   0.000000
    11  H    3.845491   3.209285   2.680897   2.461449   3.671160
    12  H    3.735384   2.515391   3.095253   3.052111   2.582461
    13  H    4.472624   4.108620   4.420217   2.683884   2.560569
                   11         12         13
    11  H    0.000000
    12  H    1.790272   0.000000
    13  H    2.802021   2.441636   0.000000
 Framework group  C1[X(C3H8O2)]
 Deg. of freedom    33
                         Standard orientation:                         
 ---------------------------------------------------------------------
 Center     Atomic      Atomic             Coordinates (Angstroms)
 Number     Number       Type             X           Y           Z
 ---------------------------------------------------------------------
      1          6           0       -1.795566   -0.555496    0.033996
      2          6           0       -0.442751    0.034191   -0.349348
      3          8           0       -0.307540    1.388924    0.047445
      4          6           0        0.736443   -0.760619    0.205774
      5          8           0        1.948336   -0.125481   -0.094263
      6          1           0       -2.610438    0.071849   -0.363627
      7          1           0       -1.899633   -0.607528    1.133736
      8          1           0       -1.909216   -1.576448   -0.368722
      9          1           0       -0.340683    0.062047   -1.446242
     10          1           0       -0.495023    1.451139    0.995289
     11          1           0        0.760895   -1.773224   -0.230908
     12          1           0        0.596263   -0.868793    1.305313
     13          1           0        1.782705    0.824956    0.007177
 ---------------------------------------------------------------------
 Rotational constants (GHZ):           8.4515739           3.6902838           2.8144127
    86 basis functions,   157 primitive gaussians,    91 cartesian basis functions
    21 alpha electrons       21 beta electrons
       nuclear repulsion energy       195.4998185458 Hartrees.
 NAtoms=   13 NActive=   13 NUniq=   13 SFac= 1.00D+00 NAtFMM=   60 NAOKFM=F Big=F
 Nuclear repulsion after empirical dispersion term =      195.4940166077 Hartrees.
   1 Symmetry operations used in ECPInt.
 ECPInt:  NShTT=    1081 NPrTT=    4367 LenC2=    1080 LenP2D=    3699.
 LDataN:  DoStor=T MaxTD1= 4 Len=   56
 Initial guess from the checkpoint file:  "monomer.chk"
 B after Tr=     0.000000    0.000000    0.000000
         Rot=    0.999930   -0.002116   -0.000955    0.011574 Ang=  -1.35 deg.
 ExpMin= 1.22D-01 ExpMax= 2.27D+03 ExpMxC= 3.41D+02 IAcc=3 IRadAn=         5 AccDes= 0.00D+00
 Harris functional with IExCor= 4639 and IRadAn=       5 diagonalized for initial guess.
 HarFok:  IExCor= 4639 AccDes= 0.00D+00 IRadAn=         5 IDoV= 1 UseB2=F ITyADJ=14
 ICtDFT=  3500011 ScaDFX=  1.000000  1.000000  1.000000  1.000000
 FoFCou: FMM=F IPFlag=           0 FMFlag=      100000 FMFlg1=           0
         NFxFlg=           0 DoJE=T BraDBF=F KetDBF=T FulRan=T
         wScrn=  0.000000 ICntrl=       500 IOpCl=  0 I1Cent=   200000004 NGrid=           0
         NMat0=    1 NMatS0=      1 NMatT0=    0 NMatD0=    1 NMtDS0=    0 NMtDT0=    0
 Petite list used in FoFCou.
     Minimum is close to point  4 DX=  5.64D-02 DF= -5.90D-06 DXR=  4.49D-02 DFR=  2.02D-03 which will be used.
     Accept linear search using points  2 and  3.
     Accept linear search using points  1 and  2.
     Accept linear search using points  1 and  2.
     Accept linear search using points  1 and  2.
     Minimum is close to point  2 DX= -2.16D-04 DF= -2.84D-12 DXR=  2.16D-04 DFR=  4.63D-08 which will be used.
 SCF Done:  E(RwB97XD) =  -269.260502959     a.u. after    8 cycles
            Convg  =    0.1960D-08                    36 Fock formations.
              S**2 =  0.0000                  -V/T =  2.0083
   1 Symmetry operations used in ECPInt.
 ECPInt:  NShTT=    1081 NPrTT=    4367 LenC2=    1080 LenP2D=    3699.
 LDataN:  DoStor=T MaxTD1= 5 Len=  102
 Calling FoFJK, ICntrl=      2127 FMM=F ISym2X=0 I1Cent= 0 IOpClX= 0 NMat=1 NMatS=1 NMatT=0.

 GradGradGradGradGradGradGradGradGradGradGradGradGradGradGradGradGradGrad
 Using GEDIIS/GDIIS optimizer.
 FormGI is forming the generalized inverse of G from B-inverse, IUseBI=4.
 Internal  Forces:  Max     0.003060828 RMS     0.000778456
 Step number   2 out of a maximum of   66
 All quantities printed in internal units (Hartrees-Bohrs-Radians)
 Mixed Optimization -- En-DIIS/RFO-DIIS
 Trust test= 8.28D-01 RLast= 2.90D-01 DXMaxT set to 5.05D-01
 ITU=  1  0
 Use linear search instead of GDIIS.
     Eigenvalues ---    0.00375   0.00443   0.01481   0.01708   0.04107
     Eigenvalues ---    0.04703   0.05033   0.05620   0.05684   0.05755
     Eigenvalues ---    0.07823   0.11667   0.13799   0.15342   0.16000
     Eigenvalues ---    0.16000   0.16000   0.16033   0.17329   0.19286
     Eigenvalues ---    0.21865   0.28596   0.29410   0.31749   0.33932
     Eigenvalues ---    0.34436   0.34685   0.35096   0.35224   0.43092
     Eigenvalues ---    0.45541   0.53686   0.54250
 Quartic linear search produced a step of -0.10051.
 Iteration  1 RMS(Cart)=  0.04175066 RMS(Int)=  0.00068496
 Iteration  2 RMS(Cart)=  0.00093777 RMS(Int)=  0.00001570
 Iteration  3 RMS(Cart)=  0.00000024 RMS(Int)=  0.00001570
 Variable       Old X    -DE/DX   Delta X   Delta X   Delta X     New X
                                 (Linear)    (Quad)   (Total)
    R1        2.88132  -0.00238  -0.00007  -0.00695  -0.00702   2.87429
    R2        2.08357  -0.00020  -0.00292   0.00853   0.00561   2.08918
    R3        2.08981   0.00026  -0.00313   0.01037   0.00724   2.09705
    R4        2.08508  -0.00011  -0.00332   0.01000   0.00668   2.09176
    R5        2.67983   0.00098  -0.00047   0.00350   0.00303   2.68287
    R6        2.88478   0.00139   0.00195  -0.00166   0.00029   2.88506
    R7        2.08245   0.00039  -0.00130   0.00507   0.00377   2.08621
    R8        1.82965   0.00082  -0.00058   0.00316   0.00258   1.83223
    R9        2.64704  -0.00306   0.00045  -0.00753  -0.00708   2.63996
   R10        2.08441  -0.00009  -0.00216   0.00646   0.00430   2.08871
   R11        2.10460   0.00112  -0.00191   0.00896   0.00705   2.11165
   R12        1.83319   0.00092  -0.00041   0.00282   0.00241   1.83559
    A1        1.92305   0.00021  -0.00047   0.00292   0.00244   1.92548
    A2        1.93020   0.00066  -0.00043   0.00519   0.00476   1.93495
    A3        1.93637   0.00001  -0.00126   0.00356   0.00230   1.93867
    A4        1.89215  -0.00035   0.00062  -0.00309  -0.00248   1.88966
    A5        1.89518  -0.00015   0.00057  -0.00283  -0.00226   1.89292
    A6        1.88571  -0.00042   0.00105  -0.00619  -0.00514   1.88056
    A7        1.96461  -0.00147  -0.00086  -0.00887  -0.00971   1.95490
    A8        1.97422   0.00096  -0.00245   0.00981   0.00736   1.98158
    A9        1.92007  -0.00039   0.00057  -0.00416  -0.00363   1.91644
   A10        1.89862   0.00017   0.00050  -0.00255  -0.00199   1.89663
   A11        1.81887   0.00069   0.00047   0.00536   0.00582   1.82468
   A12        1.87924   0.00007   0.00211   0.00034   0.00246   1.88170
   A13        1.89320  -0.00024  -0.00004  -0.00124  -0.00129   1.89191
   A14        1.93300  -0.00051   0.00050  -0.00288  -0.00240   1.93060
   A15        1.92958   0.00053   0.00030  -0.00012   0.00017   1.92975
   A16        1.88847   0.00080   0.00150   0.00341   0.00489   1.89337
   A17        1.88839  -0.00050  -0.00170  -0.00263  -0.00433   1.88406
   A18        1.94380   0.00037  -0.00215   0.01293   0.01077   1.95457
   A19        1.88019  -0.00068   0.00154  -0.01089  -0.00931   1.87088
   A20        1.84848  -0.00050   0.00192  -0.00878  -0.00686   1.84162
    D1        0.94945   0.00009   0.00031   0.01638   0.01672   0.96616
    D2        3.11038  -0.00009  -0.00155   0.01366   0.01210   3.12248
    D3       -1.07062   0.00038  -0.00011   0.01775   0.01763  -1.05298
    D4       -1.14216  -0.00003   0.00012   0.01504   0.01518  -1.12699
    D5        1.01876  -0.00022  -0.00174   0.01231   0.01056   1.02933
    D6        3.12096   0.00025  -0.00030   0.01641   0.01609   3.13705
    D7        3.04882   0.00005  -0.00010   0.01707   0.01699   3.06581
    D8       -1.07344  -0.00013  -0.00195   0.01434   0.01238  -1.06106
    D9        1.02876   0.00034  -0.00052   0.01844   0.01791   1.04666
   D10        0.94271  -0.00002  -0.00125  -0.02031  -0.02153   0.92117
   D11       -1.25957  -0.00034   0.00215  -0.02473  -0.02259  -1.28216
   D12        3.02276  -0.00083  -0.00073  -0.02664  -0.02739   2.99537
   D13       -3.06829  -0.00033  -0.00786  -0.06424  -0.07209  -3.14037
   D14        1.12194   0.00029  -0.00625  -0.05899  -0.06523   1.05671
   D15       -0.93320   0.00034  -0.00922  -0.04777  -0.05697  -0.99017
   D16       -0.87157  -0.00143  -0.01034  -0.07066  -0.08100  -0.95257
   D17       -2.96453  -0.00081  -0.00873  -0.06541  -0.07414  -3.03867
   D18        1.26352  -0.00076  -0.01170  -0.05420  -0.06588   1.19763
   D19        1.08962  -0.00051  -0.00845  -0.06550  -0.07397   1.01564
   D20       -1.00334   0.00011  -0.00685  -0.06025  -0.06712  -1.07046
   D21       -3.05848   0.00016  -0.00982  -0.04903  -0.05886  -3.11734
   D22        0.67674  -0.00006  -0.00295  -0.00352  -0.00647   0.67027
   D23        2.79418  -0.00004  -0.00337  -0.00714  -0.01049   2.78369
   D24       -1.42573  -0.00097  -0.00374  -0.01455  -0.01832  -1.44405
         Item               Value     Threshold  Converged?
 Maximum Force            0.003061     0.000015     NO 
 RMS     Force            0.000778     0.000010     NO 
 Maximum Displacement     0.157601     0.000060     NO 
 RMS     Displacement     0.041657     0.000040     NO 
 GradGradGradGradGradGradGradGradGradGradGradGradGradGradGradGradGradGrad

                    Distance matrix (angstroms):
                    1          2          3          4          5
     1  C    0.000000
     2  C    1.521011   0.000000
     3  O    2.438733   1.419712   0.000000
     4  C    2.549298   1.526710   2.394589   0.000000
     5  O    3.767841   2.405067   2.756083   1.397006   0.000000
     6  H    1.105549   2.168805   2.682298   3.501289   4.569513
     7  H    1.109710   2.178818   2.762175   2.813986   4.097846
     8  H    1.106913   2.179382   3.393881   2.830142   4.110091
     9  H    2.161029   1.103977   2.005409   2.140288   2.630180
    10  H    2.556503   1.955651   0.969574   2.661694   3.179918
    11  H    2.821107   2.176724   3.356083   1.105296   2.031006
    12  H    2.763724   2.158966   2.710531   1.117437   2.090284
    13  H    3.837083   2.374267   2.202643   1.902948   0.971353
                    6          7          8          9         10
     6  H    0.000000
     7  H    1.795244   0.000000
     8  H    1.795083   1.790420   0.000000
     9  H    2.506287   3.090884   2.516001   0.000000
    10  H    2.853838   2.467828   3.593849   2.818797   0.000000
    11  H    3.830734   3.183667   2.651987   2.491351   3.668001
    12  H    3.770547   2.564794   3.142238   3.062279   2.561565
    13  H    4.473101   4.154087   4.404159   2.617591   2.664806
                   11         12         13
    11  H    0.000000
    12  H    1.789003   0.000000
    13  H    2.795564   2.451764   0.000000
 Framework group  C1[X(C3H8O2)]
 Deg. of freedom    33
                         Standard orientation:                         
 ---------------------------------------------------------------------
 Center     Atomic      Atomic             Coordinates (Angstroms)
 Number     Number       Type             X           Y           Z
 ---------------------------------------------------------------------
      1          6           0       -1.782762   -0.579279    0.010783
      2          6           0       -0.434635    0.029995   -0.342509
      3          8           0       -0.343068    1.388546    0.059406
      4          6           0        0.751365   -0.733488    0.241735
      5          8           0        1.955067   -0.122454   -0.117940
      6          1           0       -2.602003    0.024398   -0.421256
      7          1           0       -1.922549   -0.618718    1.110946
      8          1           0       -1.866611   -1.612547   -0.377268
      9          1           0       -0.312034    0.056453   -1.439338
     10          1           0       -0.575593    1.446066    0.998926
     11          1           0        0.769716   -1.771559   -0.137411
     12          1           0        0.625333   -0.789036    1.350652
     13          1           0        1.783950    0.832833   -0.077035
 ---------------------------------------------------------------------
 Rotational constants (GHZ):           8.4390305           3.6704777           2.8110856
    86 basis functions,   157 primitive gaussians,    91 cartesian basis functions
    21 alpha electrons       21 beta electrons
       nuclear repulsion energy       195.3516023373 Hartrees.
 NAtoms=   13 NActive=   13 NUniq=   13 SFac= 1.00D+00 NAtFMM=   60 NAOKFM=F Big=F
 Nuclear repulsion after empirical dispersion term =      195.3458094937 Hartrees.
   1 Symmetry operations used in ECPInt.
 ECPInt:  NShTT=    1081 NPrTT=    4367 LenC2=    1080 LenP2D=    3700.
 LDataN:  DoStor=T MaxTD1= 4 Len=   56
 Initial guess from the checkpoint file:  "monomer.chk"
 B after Tr=     0.000000    0.000000   -0.000000
         Rot=    0.999965    0.004405    0.001797   -0.006904 Ang=   0.96 deg.
 ExpMin= 1.22D-01 ExpMax= 2.27D+03 ExpMxC= 3.41D+02 IAcc=3 IRadAn=         5 AccDes= 0.00D+00
 Harris functional with IExCor= 4639 and IRadAn=       5 diagonalized for initial guess.
 HarFok:  IExCor= 4639 AccDes= 0.00D+00 IRadAn=         5 IDoV= 1 UseB2=F ITyADJ=14
 ICtDFT=  3500011 ScaDFX=  1.000000  1.000000  1.000000  1.000000
 FoFCou: FMM=F IPFlag=           0 FMFlag=      100000 FMFlg1=           0
         NFxFlg=           0 DoJE=T BraDBF=F KetDBF=T FulRan=T
         wScrn=  0.000000 ICntrl=       500 IOpCl=  0 I1Cent=   200000004 NGrid=           0
         NMat0=    1 NMatS0=      1 NMatT0=    0 NMatD0=    1 NMtDS0=    0 NMtDT0=    0
 Petite list used in FoFCou.
     Minimum is close to point  4 DX=  1.32D-01 DF= -1.68D-05 DXR=  9.94D-02 DFR=  9.98D-03 which will be used.
     Accept linear search using points  2 and  3.
     Accept linear search using points  1 and  2.
     Accept linear search using points  1 and  2.
     Accept linear search using points  1 and  2.
     Minimum is close to point  2 DX= -6.61D-05 DF= -3.41D-13 DXR=  6.61D-05 DFR=  4.35D-09 which will be used.
 SCF Done:  E(RwB97XD) =  -269.260533166     a.u. after    7 cycles
            Convg  =    0.1908D-08                    32 Fock formations.
              S**2 =  0.0000                  -V/T =  2.0083
   1 Symmetry operations used in ECPInt.
 ECPInt:  NShTT=    1081 NPrTT=    4367 LenC2=    1080 LenP2D=    3700.
 LDataN:  DoStor=T MaxTD1= 5 Len=  102
 Calling FoFJK, ICntrl=      2127 FMM=F ISym2X=0 I1Cent= 0 IOpClX= 0 NMat=1 NMatS=1 NMatT=0.

 GradGradGradGradGradGradGradGradGradGradGradGradGradGradGradGradGradGrad
 Using GEDIIS/GDIIS optimizer.
 FormGI is forming the generalized inverse of G from B-inverse, IUseBI=4.
 Internal  Forces:  Max     0.002273002 RMS     0.000676135
 Step number   3 out of a maximum of   66
 All quantities printed in internal units (Hartrees-Bohrs-Radians)
 Mixed Optimization -- En-DIIS/RFO-DIIS
 Swapping is turned off.
 Trust test= 1.41D-01 RLast= 2.19D-01 DXMaxT set to 5.05D-01
 ITU=  0  1  0
     Eigenvalues ---    0.00432   0.00581   0.01420   0.01837   0.04076
     Eigenvalues ---    0.04699   0.05508   0.05581   0.05650   0.05676
     Eigenvalues ---    0.07986   0.11602   0.13982   0.14820   0.16000
     Eigenvalues ---    0.16000   0.16028   0.16392   0.17666   0.18480
     Eigenvalues ---    0.21812   0.28319   0.29651   0.32919   0.34215
     Eigenvalues ---    0.34645   0.34856   0.35216   0.36886   0.43065
     Eigenvalues ---    0.45056   0.53516   0.54486
 En-DIIS/RFO-DIIS/Sim-DIIS IScMMF=       -3 using points:     3    2
 RFO step:  Lambda=-2.00070048D-04.
 DidBck=T Rises=F RFO-DIIS coefs:    0.47433    0.52567
 Iteration  1 RMS(Cart)=  0.02370551 RMS(Int)=  0.00022914
 Iteration  2 RMS(Cart)=  0.00032632 RMS(Int)=  0.00000482
 Iteration  3 RMS(Cart)=  0.00000003 RMS(Int)=  0.00000482
 Variable       Old X    -DE/DX   Delta X   Delta X   Delta X     New X
                                 (Linear)    (Quad)   (Total)
    R1        2.87429  -0.00037   0.00369  -0.00523  -0.00154   2.87275
    R2        2.08918  -0.00213  -0.00295  -0.00192  -0.00487   2.08432
    R3        2.09705  -0.00201  -0.00381  -0.00089  -0.00470   2.09235
    R4        2.09176  -0.00227  -0.00351  -0.00176  -0.00527   2.08649
    R5        2.68287   0.00015  -0.00159   0.00174   0.00015   2.68302
    R6        2.88506  -0.00005  -0.00015   0.00175   0.00160   2.88667
    R7        2.08621  -0.00091  -0.00198  -0.00001  -0.00199   2.08422
    R8        1.83223  -0.00092  -0.00136   0.00032  -0.00104   1.83119
    R9        2.63996   0.00003   0.00372  -0.00416  -0.00044   2.63952
   R10        2.08871  -0.00117  -0.00226  -0.00076  -0.00302   2.08569
   R11        2.11165  -0.00115  -0.00371   0.00119  -0.00252   2.10913
   R12        1.83559   0.00011  -0.00126   0.00131   0.00005   1.83564
    A1        1.92548  -0.00010  -0.00128   0.00083  -0.00045   1.92504
    A2        1.93495   0.00006  -0.00250   0.00285   0.00035   1.93530
    A3        1.93867   0.00013  -0.00121   0.00091  -0.00030   1.93837
    A4        1.88966  -0.00001   0.00131  -0.00128   0.00003   1.88969
    A5        1.89292   0.00001   0.00119  -0.00085   0.00034   1.89326
    A6        1.88056  -0.00008   0.00270  -0.00265   0.00005   1.88062
    A7        1.95490   0.00053   0.00511  -0.00509   0.00002   1.95492
    A8        1.98158   0.00002  -0.00387   0.00359  -0.00028   1.98130
    A9        1.91644   0.00008   0.00191  -0.00066   0.00126   1.91770
   A10        1.89663  -0.00039   0.00105  -0.00191  -0.00087   1.89576
   A11        1.82468  -0.00036  -0.00306   0.00076  -0.00229   1.82239
   A12        1.88170   0.00007  -0.00129   0.00338   0.00208   1.88378
   A13        1.89191  -0.00035   0.00068  -0.00196  -0.00129   1.89062
   A14        1.93060   0.00018   0.00126  -0.00075   0.00052   1.93112
   A15        1.92975  -0.00013  -0.00009   0.00173   0.00164   1.93139
   A16        1.89337   0.00030  -0.00257   0.00408   0.00151   1.89488
   A17        1.88406   0.00054   0.00227   0.00016   0.00243   1.88649
   A18        1.95457  -0.00091  -0.00566  -0.00079  -0.00644   1.94813
   A19        1.87088  -0.00000   0.00490  -0.00454   0.00035   1.87123
   A20        1.84162   0.00141   0.00361   0.00167   0.00527   1.84689
    D1        0.96616  -0.00003  -0.00879   0.00939   0.00060   0.96676
    D2        3.12248  -0.00011  -0.00636   0.00559  -0.00077   3.12171
    D3       -1.05298   0.00005  -0.00927   0.01189   0.00262  -1.05036
    D4       -1.12699   0.00002  -0.00798   0.00861   0.00063  -1.12636
    D5        1.02933  -0.00007  -0.00555   0.00482  -0.00073   1.02859
    D6        3.13705   0.00009  -0.00846   0.01111   0.00266   3.13971
    D7        3.06581   0.00000  -0.00893   0.00947   0.00053   3.06634
    D8       -1.06106  -0.00008  -0.00651   0.00567  -0.00083  -1.06189
    D9        1.04666   0.00008  -0.00941   0.01197   0.00256   1.04922
   D10        0.92117   0.00002   0.01132  -0.01356  -0.00225   0.91892
   D11       -1.28216  -0.00010   0.01188  -0.01313  -0.00125  -1.28341
   D12        2.99537   0.00017   0.01440  -0.01652  -0.00212   2.99325
   D13       -3.14037   0.00077   0.03789   0.00723   0.04512  -3.09525
   D14        1.05671   0.00006   0.03429   0.00640   0.04069   1.09740
   D15       -0.99017  -0.00005   0.02995   0.00849   0.03843  -0.95174
   D16       -0.95257   0.00117   0.04258   0.00169   0.04427  -0.90830
   D17       -3.03867   0.00046   0.03897   0.00086   0.03984  -2.99883
   D18        1.19763   0.00036   0.03463   0.00295   0.03758   1.23521
   D19        1.01564   0.00061   0.03889   0.00333   0.04222   1.05786
   D20       -1.07046  -0.00010   0.03528   0.00250   0.03779  -1.03267
   D21       -3.11734  -0.00021   0.03094   0.00459   0.03553  -3.08182
   D22        0.67027   0.00028   0.00340   0.00294   0.00634   0.67661
   D23        2.78369   0.00058   0.00551   0.00471   0.01022   2.79391
   D24       -1.44405   0.00039   0.00963  -0.00120   0.00844  -1.43561
         Item               Value     Threshold  Converged?
 Maximum Force            0.002273     0.000015     NO 
 RMS     Force            0.000676     0.000010     NO 
 Maximum Displacement     0.091279     0.000060     NO 
 RMS     Displacement     0.023727     0.000040     NO 
 GradGradGradGradGradGradGradGradGradGradGradGradGradGradGradGradGradGrad

                    Distance matrix (angstroms):
                    1          2          3          4          5
     1  C    0.000000
     2  C    1.520194   0.000000
     3  O    2.438125   1.419791   0.000000
     4  C    2.549091   1.527559   2.394610   0.000000
     5  O    3.767074   2.406023   2.733622   1.396772   0.000000
     6  H    1.102973   2.165821   2.680396   3.498780   4.566688
     7  H    1.107224   2.176469   2.760356   2.812427   4.082875
     8  H    1.104123   2.176328   3.390724   2.828555   4.120489
     9  H    2.160441   1.102923   2.002976   2.141813   2.651638
    10  H    2.553934   1.954463   0.969024   2.660933   3.145109
    11  H    2.840010   2.177455   3.353478   1.103698   2.031350
    12  H    2.747567   2.159849   2.729522   1.116105   2.084568
    13  H    3.833006   2.382054   2.178836   1.906378   0.971379
                    6          7          8          9         10
     6  H    0.000000
     7  H    1.791159   0.000000
     8  H    1.790950   1.786194   0.000000
     9  H    2.503419   3.087963   2.515055   0.000000
    10  H    2.849852   2.464973   3.588680   2.815492   0.000000
    11  H    3.842256   3.210376   2.673576   2.479699   3.673583
    12  H    3.757123   2.547947   3.113731   3.062142   2.582338
    13  H    4.469407   4.127088   4.412177   2.658380   2.614486
                   11         12         13
    11  H    0.000000
    12  H    1.786875   0.000000
    13  H    2.799087   2.446452   0.000000
 Framework group  C1[X(C3H8O2)]
 Deg. of freedom    33
                         Standard orientation:                         
 ---------------------------------------------------------------------
 Center     Atomic      Atomic             Coordinates (Angstroms)
 Number     Number       Type             X           Y           Z
 ---------------------------------------------------------------------
      1          6           0       -1.787897   -0.565466    0.023596
      2          6           0       -0.438799    0.028688   -0.347762
      3          8           0       -0.326399    1.385831    0.053903
      4          6           0        0.746930   -0.748195    0.221392
      5          8           0        1.950388   -0.118737   -0.104867
      6          1           0       -2.604005    0.046284   -0.396259
      7          1           0       -1.913132   -0.603836    1.123046
      8          1           0       -1.887938   -1.594943   -0.362741
      9          1           0       -0.330883    0.057253   -1.445021
     10          1           0       -0.547226    1.444128    0.995628
     11          1           0        0.774012   -1.772691   -0.188272
     12          1           0        0.615925   -0.837601    1.326171
     13          1           0        1.779928    0.834491   -0.028206
 ---------------------------------------------------------------------
 Rotational constants (GHZ):           8.4702486           3.6825027           2.8162321
    86 basis functions,   157 primitive gaussians,    91 cartesian basis functions
    21 alpha electrons       21 beta electrons
       nuclear repulsion energy       195.5191399949 Hartrees.
 NAtoms=   13 NActive=   13 NUniq=   13 SFac= 1.00D+00 NAtFMM=   60 NAOKFM=F Big=F
 Nuclear repulsion after empirical dispersion term =      195.5133499256 Hartrees.
   1 Symmetry operations used in ECPInt.
 ECPInt:  NShTT=    1081 NPrTT=    4367 LenC2=    1080 LenP2D=    3701.
 LDataN:  DoStor=T MaxTD1= 4 Len=   56
 Initial guess from the checkpoint file:  "monomer.chk"
 B after Tr=    -0.000000   -0.000000    0.000000
         Rot=    0.999993   -0.002312   -0.000927    0.002802 Ang=  -0.43 deg.
 ExpMin= 1.22D-01 ExpMax= 2.27D+03 ExpMxC= 3.41D+02 IAcc=3 IRadAn=         5 AccDes= 0.00D+00
 Harris functional with IExCor= 4639 and IRadAn=       5 diagonalized for initial guess.
 HarFok:  IExCor= 4639 AccDes= 0.00D+00 IRadAn=         5 IDoV= 1 UseB2=F ITyADJ=14
 ICtDFT=  3500011 ScaDFX=  1.000000  1.000000  1.000000  1.000000
 FoFCou: FMM=F IPFlag=           0 FMFlag=      100000 FMFlg1=           0
         NFxFlg=           0 DoJE=T BraDBF=F KetDBF=T FulRan=T
         wScrn=  0.000000 ICntrl=       500 IOpCl=  0 I1Cent=   200000004 NGrid=           0
         NMat0=    1 NMatS0=      1 NMatT0=    0 NMatD0=    1 NMtDS0=    0 NMtDT0=    0
 Petite list used in FoFCou.
     Minimum is close to point  4 DX=  1.24D-01 DF= -4.51D-06 DXR=  9.34D-02 DFR=  8.80D-03 which will be used.
     Accept linear search using points  2 and  3.
     Accept linear search using points  1 and  2.
     Minimum is close to point  2 DX=  4.45D-05 DF= -5.68D-14 DXR=  4.45D-05 DFR=  1.24D-09 which will be used.
 SCF Done:  E(RwB97XD) =  -269.260641243     a.u. after    6 cycles
            Convg  =    0.1195D-08                    32 Fock formations.
              S**2 =  0.0000                  -V/T =  2.0083
   1 Symmetry operations used in ECPInt.
 ECPInt:  NShTT=    1081 NPrTT=    4367 LenC2=    1080 LenP2D=    3701.
 LDataN:  DoStor=T MaxTD1= 5 Len=  102
 Calling FoFJK, ICntrl=      2127 FMM=F ISym2X=0 I1Cent= 0 IOpClX= 0 NMat=1 NMatS=1 NMatT=0.

 GradGradGradGradGradGradGradGradGradGradGradGradGradGradGradGradGradGrad
 Using GEDIIS/GDIIS optimizer.
 FormGI is forming the generalized inverse of G from B-inverse, IUseBI=4.
 Internal  Forces:  Max     0.000536897 RMS     0.000159014
 Step number   4 out of a maximum of   66
 All quantities printed in internal units (Hartrees-Bohrs-Radians)
 Mixed Optimization -- En-DIIS/RFO-DIIS
 Swapping is turned off.
 Trust test= 1.06D+00 RLast= 1.23D-01 DXMaxT set to 5.05D-01
 ITU=  1  0  1  0
     Eigenvalues ---    0.00425   0.00599   0.01347   0.01899   0.04057
     Eigenvalues ---    0.04710   0.05513   0.05594   0.05667   0.05691
     Eigenvalues ---    0.07950   0.11745   0.14124   0.15132   0.15999
     Eigenvalues ---    0.16000   0.16034   0.16538   0.17515   0.18785
     Eigenvalues ---    0.21835   0.28687   0.29758   0.32833   0.34121
     Eigenvalues ---    0.34652   0.34781   0.35190   0.35673   0.41954
     Eigenvalues ---    0.44612   0.53656   0.54359
 En-DIIS/RFO-DIIS/Sim-DIIS IScMMF=       -3 using points:     4    3    2
 RFO step:  Lambda=-8.48950833D-06.
 DidBck=F Rises=F RFO-DIIS coefs:    1.46694   -0.22404   -0.24290
 Iteration  1 RMS(Cart)=  0.00286812 RMS(Int)=  0.00001337
 Iteration  2 RMS(Cart)=  0.00001406 RMS(Int)=  0.00000229
 Iteration  3 RMS(Cart)=  0.00000000 RMS(Int)=  0.00000229
 Variable       Old X    -DE/DX   Delta X   Delta X   Delta X     New X
                                 (Linear)    (Quad)   (Total)
    R1        2.87275  -0.00000  -0.00243   0.00216  -0.00027   2.87248
    R2        2.08432  -0.00045  -0.00091  -0.00065  -0.00156   2.08276
    R3        2.09235  -0.00048  -0.00043  -0.00119  -0.00162   2.09073
    R4        2.08649  -0.00045  -0.00084  -0.00066  -0.00149   2.08500
    R5        2.68302   0.00054   0.00081   0.00105   0.00185   2.68487
    R6        2.88667  -0.00004   0.00082  -0.00107  -0.00025   2.88642
    R7        2.08422  -0.00027  -0.00002  -0.00092  -0.00094   2.08328
    R8        1.83119  -0.00023   0.00014  -0.00064  -0.00050   1.83069
    R9        2.63952  -0.00019  -0.00193   0.00108  -0.00085   2.63867
   R10        2.08569  -0.00024  -0.00037  -0.00041  -0.00078   2.08491
   R11        2.10913  -0.00027   0.00054  -0.00139  -0.00085   2.10828
   R12        1.83564  -0.00008   0.00061  -0.00070  -0.00010   1.83554
    A1        1.92504   0.00000   0.00038  -0.00016   0.00022   1.92525
    A2        1.93530  -0.00004   0.00132  -0.00160  -0.00029   1.93502
    A3        1.93837   0.00011   0.00042   0.00072   0.00114   1.93951
    A4        1.88969   0.00002  -0.00059   0.00059   0.00000   1.88969
    A5        1.89326  -0.00004  -0.00039   0.00021  -0.00018   1.89308
    A6        1.88062  -0.00006  -0.00122   0.00029  -0.00093   1.87968
    A7        1.95492   0.00016  -0.00235   0.00352   0.00117   1.95609
    A8        1.98130   0.00003   0.00166  -0.00089   0.00076   1.98206
    A9        1.91770   0.00000  -0.00029   0.00097   0.00067   1.91836
   A10        1.89576  -0.00017  -0.00089  -0.00068  -0.00157   1.89420
   A11        1.82239  -0.00003   0.00034  -0.00115  -0.00081   1.82158
   A12        1.88378  -0.00000   0.00157  -0.00199  -0.00042   1.88336
   A13        1.89062  -0.00005  -0.00091   0.00039  -0.00052   1.89010
   A14        1.93112  -0.00008  -0.00034  -0.00029  -0.00063   1.93049
   A15        1.93139   0.00002   0.00081  -0.00052   0.00029   1.93168
   A16        1.89488  -0.00010   0.00189  -0.00320  -0.00131   1.89356
   A17        1.88649   0.00006   0.00008   0.00097   0.00105   1.88754
   A18        1.94813   0.00008  -0.00039   0.00110   0.00070   1.94883
   A19        1.87123   0.00002  -0.00210   0.00204  -0.00006   1.87117
   A20        1.84689   0.00005   0.00080  -0.00057   0.00022   1.84711
    D1        0.96676   0.00005   0.00434   0.00008   0.00442   0.97118
    D2        3.12171  -0.00003   0.00258   0.00126   0.00384   3.12555
    D3       -1.05036  -0.00001   0.00551  -0.00120   0.00430  -1.04605
    D4       -1.12636   0.00005   0.00398   0.00048   0.00446  -1.12190
    D5        1.02859  -0.00003   0.00222   0.00166   0.00388   1.03248
    D6        3.13971  -0.00000   0.00515  -0.00080   0.00435  -3.13913
    D7        3.06634   0.00007   0.00437   0.00070   0.00508   3.07142
    D8       -1.06189  -0.00001   0.00262   0.00188   0.00450  -1.05740
    D9        1.04922   0.00002   0.00554  -0.00058   0.00496   1.05419
   D10        0.91892  -0.00013  -0.00628  -0.00528  -0.01156   0.90737
   D11       -1.28341  -0.00015  -0.00607  -0.00613  -0.01220  -1.29562
   D12        2.99325  -0.00006  -0.00764  -0.00300  -0.01064   2.98261
   D13       -3.09525  -0.00000   0.00356  -0.00091   0.00265  -3.09260
   D14        1.09740  -0.00004   0.00315  -0.00161   0.00155   1.09895
   D15       -0.95174  -0.00002   0.00410  -0.00186   0.00225  -0.94950
   D16       -0.90830   0.00010   0.00100   0.00252   0.00352  -0.90478
   D17       -2.99883   0.00006   0.00059   0.00183   0.00242  -2.99641
   D18        1.23521   0.00008   0.00154   0.00157   0.00312   1.23833
   D19        1.05786  -0.00002   0.00175  -0.00014   0.00160   1.05946
   D20       -1.03267  -0.00006   0.00134  -0.00083   0.00050  -1.03217
   D21       -3.08182  -0.00004   0.00229  -0.00109   0.00120  -3.08062
   D22        0.67661  -0.00004   0.00139  -0.00135   0.00004   0.67665
   D23        2.79391  -0.00002   0.00223  -0.00154   0.00068   2.79460
   D24       -1.43561   0.00009  -0.00051   0.00218   0.00167  -1.43394
         Item               Value     Threshold  Converged?
 Maximum Force            0.000537     0.000015     NO 
 RMS     Force            0.000159     0.000010     NO 
 Maximum Displacement     0.009674     0.000060     NO 
 RMS     Displacement     0.002868     0.000040     NO 
 GradGradGradGradGradGradGradGradGradGradGradGradGradGradGradGradGradGrad

                    Distance matrix (angstroms):
                    1          2          3          4          5
     1  C    0.000000
     2  C    1.520052   0.000000
     3  O    2.439767   1.420772   0.000000
     4  C    2.549495   1.527426   2.393936   0.000000
     5  O    3.766430   2.405025   2.729508   1.396322   0.000000
     6  H    1.102148   2.165233   2.683781   3.498385   4.565184
     7  H    1.106364   2.175485   2.759376   2.814123   4.082327
     8  H    1.103332   2.176421   3.392165   2.827793   4.120347
     9  H    2.160430   1.102426   2.002833   2.141017   2.650755
    10  H    2.550835   1.954788   0.968759   2.665493   3.148267
    11  H    2.841355   2.177235   3.352884   1.103286   2.031412
    12  H    2.745820   2.158416   2.728706   1.115655   2.084312
    13  H    3.831441   2.381027   2.173550   1.906102   0.971328
                    6          7          8          9         10
     6  H    0.000000
     7  H    1.789794   0.000000
     8  H    1.789521   1.784252   0.000000
     9  H    2.501785   3.086853   2.517644   0.000000
    10  H    2.846489   2.459883   3.585364   2.814272   0.000000
    11  H    3.841677   3.214222   2.674413   2.478817   3.677230
    12  H    3.755727   2.548213   3.108905   3.060275   2.587643
    13  H    4.467641   4.124223   4.411381   2.658052   2.616374
                   11         12         13
    11  H    0.000000
    12  H    1.786140   0.000000
    13  H    2.799091   2.445756   0.000000
 Framework group  C1[X(C3H8O2)]
 Deg. of freedom    33
                         Standard orientation:                         
 ---------------------------------------------------------------------
 Center     Atomic      Atomic             Coordinates (Angstroms)
 Number     Number       Type             X           Y           Z
 ---------------------------------------------------------------------
      1          6           0       -1.788764   -0.563703    0.023873
      2          6           0       -0.438929    0.028141   -0.347913
      3          8           0       -0.322336    1.385954    0.053766
      4          6           0        0.746318   -0.749717    0.220552
      5          8           0        1.949160   -0.119239   -0.104077
      6          1           0       -2.603486    0.046469   -0.398795
      7          1           0       -1.915024   -0.597819    1.122479
      8          1           0       -1.889836   -1.594075   -0.357519
      9          1           0       -0.330819    0.057033   -1.444645
     10          1           0       -0.552439    1.446096    0.992876
     11          1           0        0.773274   -1.773501   -0.189790
     12          1           0        0.613590   -0.839999    1.324598
     13          1           0        1.778393    0.833749   -0.025781
 ---------------------------------------------------------------------
 Rotational constants (GHZ):           8.4710839           3.6853252           2.8173697
    86 basis functions,   157 primitive gaussians,    91 cartesian basis functions
    21 alpha electrons       21 beta electrons
       nuclear repulsion energy       195.5532397894 Hartrees.
 NAtoms=   13 NActive=   13 NUniq=   13 SFac= 1.00D+00 NAtFMM=   60 NAOKFM=F Big=F
 Nuclear repulsion after empirical dispersion term =      195.5474528420 Hartrees.
   1 Symmetry operations used in ECPInt.
 ECPInt:  NShTT=    1081 NPrTT=    4367 LenC2=    1080 LenP2D=    3701.
 LDataN:  DoStor=T MaxTD1= 4 Len=   56
 Initial guess from the checkpoint file:  "monomer.chk"
 B after Tr=     0.000000   -0.000000    0.000000
         Rot=    1.000000    0.000145    0.000095    0.000487 Ang=   0.06 deg.
     Accept linear search using points  1 and  2.
     Minimum is close to point  2 DX= -1.90D-05 DF=  0.00D+00 DXR=  1.90D-05 DFR=  0.00D+00 which will be used.
 SCF Done:  E(RwB97XD) =  -269.260646674     a.u. after    3 cycles
            Convg  =    0.6500D-09                    21 Fock formations.
              S**2 =  0.0000                  -V/T =  2.0082
   1 Symmetry operations used in ECPInt.
 ECPInt:  NShTT=    1081 NPrTT=    4367 LenC2=    1080 LenP2D=    3701.
 LDataN:  DoStor=T MaxTD1= 5 Len=  102
 Calling FoFJK, ICntrl=      2127 FMM=F ISym2X=0 I1Cent= 0 IOpClX= 0 NMat=1 NMatS=1 NMatT=0.

 GradGradGradGradGradGradGradGradGradGradGradGradGradGradGradGradGradGrad
 Using GEDIIS/GDIIS optimizer.
 FormGI is forming the generalized inverse of G from B-inverse, IUseBI=4.
 Internal  Forces:  Max     0.000187766 RMS     0.000053623
 Step number   5 out of a maximum of   66
 All quantities printed in internal units (Hartrees-Bohrs-Radians)
 Mixed Optimization -- En-DIIS/RFO-DIIS
 Swapping is turned off.
 Trust test= 1.35D+00 RLast= 2.55D-02 DXMaxT set to 5.05D-01
 ITU=  1  1  0  1  0
     Eigenvalues ---    0.00395   0.00575   0.00951   0.01890   0.04047
     Eigenvalues ---    0.04712   0.05542   0.05579   0.05671   0.05752
     Eigenvalues ---    0.08165   0.11848   0.14174   0.15283   0.15986
     Eigenvalues ---    0.16006   0.16174   0.16641   0.18279   0.18826
     Eigenvalues ---    0.22001   0.28590   0.30577   0.33054   0.34347
     Eigenvalues ---    0.34661   0.34915   0.35257   0.38008   0.41107
     Eigenvalues ---    0.45235   0.53689   0.54356
 En-DIIS/RFO-DIIS/Sim-DIIS IScMMF=       -3 using points:     5    4    3    2
 RFO step:  Lambda=-1.82614713D-06.
 DidBck=F Rises=F RFO-DIIS coefs:    1.25192   -0.13738   -0.05561   -0.05893
 Iteration  1 RMS(Cart)=  0.00159881 RMS(Int)=  0.00000354
 Iteration  2 RMS(Cart)=  0.00000320 RMS(Int)=  0.00000063
 Iteration  3 RMS(Cart)=  0.00000000 RMS(Int)=  0.00000063
 Variable       Old X    -DE/DX   Delta X   Delta X   Delta X     New X
                                 (Linear)    (Quad)   (Total)
    R1        2.87248  -0.00007  -0.00066   0.00026  -0.00040   2.87209
    R2        2.08276   0.00010  -0.00062   0.00065   0.00003   2.08279
    R3        2.09073   0.00008  -0.00052   0.00053   0.00001   2.09074
    R4        2.08500   0.00005  -0.00059   0.00051  -0.00008   2.08492
    R5        2.68487   0.00003   0.00066  -0.00020   0.00046   2.68533
    R6        2.88642   0.00019   0.00014   0.00040   0.00053   2.88695
    R7        2.08328   0.00006  -0.00024   0.00029   0.00004   2.08333
    R8        1.83069   0.00001  -0.00009   0.00003  -0.00006   1.83063
    R9        2.63867   0.00001  -0.00068   0.00044  -0.00024   2.63843
   R10        2.08491   0.00003  -0.00029   0.00029   0.00000   2.08491
   R11        2.10828   0.00003  -0.00009   0.00009   0.00000   2.10828
   R12        1.83554  -0.00002   0.00012  -0.00012   0.00000   1.83554
    A1        1.92525   0.00004   0.00015   0.00026   0.00041   1.92566
    A2        1.93502  -0.00001   0.00025  -0.00027  -0.00003   1.93499
    A3        1.93951  -0.00012   0.00039  -0.00092  -0.00053   1.93898
    A4        1.88969   0.00001  -0.00014   0.00032   0.00017   1.88986
    A5        1.89308   0.00003  -0.00014   0.00018   0.00004   1.89311
    A6        1.87968   0.00006  -0.00053   0.00048  -0.00005   1.87963
    A7        1.95609  -0.00010  -0.00028  -0.00046  -0.00073   1.95535
    A8        1.98206  -0.00002   0.00059  -0.00052   0.00007   1.98213
    A9        1.91836   0.00001   0.00010   0.00015   0.00025   1.91861
   A10        1.89420   0.00007  -0.00061   0.00040  -0.00021   1.89399
   A11        1.82158   0.00001  -0.00012   0.00014   0.00002   1.82160
   A12        1.88336   0.00003   0.00028   0.00037   0.00065   1.88401
   A13        1.89010   0.00006  -0.00035   0.00055   0.00020   1.89030
   A14        1.93049   0.00010  -0.00024   0.00049   0.00025   1.93073
   A15        1.93168  -0.00004   0.00027  -0.00047  -0.00020   1.93148
   A16        1.89356   0.00003   0.00013   0.00010   0.00023   1.89379
   A17        1.88754  -0.00006   0.00029  -0.00057  -0.00029   1.88725
   A18        1.94883  -0.00005   0.00007  -0.00017  -0.00010   1.94873
   A19        1.87117   0.00002  -0.00052   0.00062   0.00009   1.87126
   A20        1.84711  -0.00006   0.00026  -0.00053  -0.00028   1.84684
    D1        0.97118   0.00000   0.00217  -0.00072   0.00145   0.97263
    D2        3.12555   0.00000   0.00159  -0.00094   0.00065   3.12620
    D3       -1.04605   0.00004   0.00242  -0.00071   0.00171  -1.04434
    D4       -1.12190  -0.00003   0.00209  -0.00111   0.00098  -1.12091
    D5        1.03248  -0.00002   0.00152  -0.00133   0.00018   1.03266
    D6       -3.13913   0.00001   0.00235  -0.00110   0.00125  -3.13788
    D7        3.07142  -0.00001   0.00234  -0.00092   0.00142   3.07284
    D8       -1.05740  -0.00001   0.00177  -0.00115   0.00062  -1.05678
    D9        1.05419   0.00003   0.00260  -0.00092   0.00168   1.05587
   D10        0.90737  -0.00006  -0.00444  -0.00177  -0.00621   0.90116
   D11       -1.29562  -0.00002  -0.00455  -0.00107  -0.00562  -1.30124
   D12        2.98261  -0.00009  -0.00454  -0.00174  -0.00628   2.97633
   D13       -3.09260   0.00001   0.00159  -0.00019   0.00140  -3.09121
   D14        1.09895   0.00005   0.00121   0.00051   0.00172   1.10067
   D15       -0.94950   0.00003   0.00161  -0.00003   0.00158  -0.94792
   D16       -0.90478  -0.00007   0.00118  -0.00085   0.00033  -0.90445
   D17       -2.99641  -0.00004   0.00080  -0.00015   0.00066  -2.99576
   D18        1.23833  -0.00006   0.00121  -0.00069   0.00052   1.23884
   D19        1.05946  -0.00001   0.00088  -0.00031   0.00057   1.06003
   D20       -1.03217   0.00003   0.00050   0.00040   0.00090  -1.03127
   D21       -3.08062   0.00000   0.00090  -0.00015   0.00076  -3.07986
   D22        0.67665   0.00004   0.00036   0.00117   0.00152   0.67818
   D23        2.79460   0.00002   0.00073   0.00052   0.00125   2.79585
   D24       -1.43394  -0.00002   0.00031   0.00082   0.00113  -1.43281
         Item               Value     Threshold  Converged?
 Maximum Force            0.000188     0.000015     NO 
 RMS     Force            0.000054     0.000010     NO 
 Maximum Displacement     0.008363     0.000060     NO 
 RMS     Displacement     0.001599     0.000040     NO 
 GradGradGradGradGradGradGradGradGradGradGradGradGradGradGradGradGradGrad

                    Distance matrix (angstroms):
                    1          2          3          4          5
     1  C    0.000000
     2  C    1.519843   0.000000
     3  O    2.439189   1.421016   0.000000
     4  C    2.549616   1.527707   2.394185   0.000000
     5  O    3.766458   2.405365   2.729685   1.396196   0.000000
     6  H    1.102166   2.165357   2.683945   3.498751   4.565603
     7  H    1.106371   2.175287   2.758153   2.814253   4.081904
     8  H    1.103290   2.175825   3.391562   2.827111   4.119990
     9  H    2.160443   1.102449   2.003067   2.141765   2.652018
    10  H    2.547800   1.955111   0.968725   2.668515   3.152163
    11  H    2.842153   2.177344   3.353044   1.103289   2.031100
    12  H    2.745546   2.158833   2.729338   1.115655   2.084134
    13  H    3.831271   2.381656   2.173775   1.905802   0.971328
                    6          7          8          9         10
     6  H    0.000000
     7  H    1.789926   0.000000
     8  H    1.789525   1.784188   0.000000
     9  H    2.501545   3.086836   2.517824   0.000000
    10  H    2.842788   2.456260   3.582714   2.814176   0.000000
    11  H    3.842241   3.215545   2.674466   2.479155   3.679723
    12  H    3.755982   2.547978   3.107293   3.060946   2.591558
    13  H    4.468235   4.122939   4.411071   2.660137   2.619879
                   11         12         13
    11  H    0.000000
    12  H    1.786204   0.000000
    13  H    2.798870   2.444938   0.000000
 Framework group  C1[X(C3H8O2)]
 Deg. of freedom    33
                         Standard orientation:                         
 ---------------------------------------------------------------------
 Center     Atomic      Atomic             Coordinates (Angstroms)
 Number     Number       Type             X           Y           Z
 ---------------------------------------------------------------------
      1          6           0       -1.788340   -0.564121    0.024218
      2          6           0       -0.438966    0.027700   -0.348420
      3          8           0       -0.323082    1.385697    0.053700
      4          6           0        0.746961   -0.749581    0.220175
      5          8           0        1.949454   -0.118300   -0.103644
      6          1           0       -2.603665    0.044942   -0.398932
      7          1           0       -1.914229   -0.597348    1.122901
      8          1           0       -1.888535   -1.594923   -0.356122
      9          1           0       -0.331474    0.057002   -1.445225
     10          1           0       -0.558203    1.446458    0.991492
     11          1           0        0.774878   -1.773026   -0.190956
     12          1           0        0.614103   -0.840728    1.324135
     13          1           0        1.778218    0.834457   -0.023574
 ---------------------------------------------------------------------
 Rotational constants (GHZ):           8.4723116           3.6847873           2.8171584
    86 basis functions,   157 primitive gaussians,    91 cartesian basis functions
    21 alpha electrons       21 beta electrons
       nuclear repulsion energy       195.5473457297 Hartrees.
 NAtoms=   13 NActive=   13 NUniq=   13 SFac= 1.00D+00 NAtFMM=   60 NAOKFM=F Big=F
 Nuclear repulsion after empirical dispersion term =      195.5415596611 Hartrees.
   1 Symmetry operations used in ECPInt.
 ECPInt:  NShTT=    1081 NPrTT=    4367 LenC2=    1080 LenP2D=    3701.
 LDataN:  DoStor=T MaxTD1= 4 Len=   56
 Initial guess from the checkpoint file:  "monomer.chk"
 B after Tr=     0.000000    0.000000   -0.000000
         Rot=    1.000000    0.000024    0.000043   -0.000262 Ang=   0.03 deg.
     Accept linear search using points  1 and  2.
     Minimum is close to point  2 DX= -1.39D-05 DF=  0.00D+00 DXR=  1.39D-05 DFR=  0.00D+00 which will be used.
 SCF Done:  E(RwB97XD) =  -269.260647747     a.u. after    3 cycles
            Convg  =    0.1431D-09                    20 Fock formations.
              S**2 =  0.0000                  -V/T =  2.0082
   1 Symmetry operations used in ECPInt.
 ECPInt:  NShTT=    1081 NPrTT=    4367 LenC2=    1080 LenP2D=    3701.
 LDataN:  DoStor=T MaxTD1= 5 Len=  102
 Calling FoFJK, ICntrl=      2127 FMM=F ISym2X=0 I1Cent= 0 IOpClX= 0 NMat=1 NMatS=1 NMatT=0.

 GradGradGradGradGradGradGradGradGradGradGradGradGradGradGradGradGradGrad
 Using GEDIIS/GDIIS optimizer.
 FormGI is forming the generalized inverse of G from B-inverse, IUseBI=4.
 Internal  Forces:  Max     0.000087923 RMS     0.000029721
 Step number   6 out of a maximum of   66
 All quantities printed in internal units (Hartrees-Bohrs-Radians)
 Mixed Optimization -- En-DIIS/RFO-DIIS
 Swapping is turned off.
 Trust test= 1.18D+00 RLast= 1.19D-02 DXMaxT set to 5.05D-01
 ITU=  1  1  1  0  1  0
     Eigenvalues ---    0.00391   0.00552   0.00699   0.01904   0.04189
     Eigenvalues ---    0.04733   0.05540   0.05593   0.05666   0.05714
     Eigenvalues ---    0.08103   0.11878   0.14196   0.15425   0.15984
     Eigenvalues ---    0.16005   0.16191   0.16557   0.18339   0.19145
     Eigenvalues ---    0.22595   0.28750   0.31969   0.32973   0.34310
     Eigenvalues ---    0.34679   0.34894   0.35365   0.37087   0.42925
     Eigenvalues ---    0.46525   0.53723   0.54334
 En-DIIS/RFO-DIIS/Sim-DIIS IScMMF=       -3 using points:     6    5    4    3    2
 RFO step:  Lambda=-5.49452994D-07.
 DidBck=F Rises=F RFO-DIIS coefs:    2.11234   -1.11380   -0.13248    0.07276    0.06118
 Iteration  1 RMS(Cart)=  0.00120544 RMS(Int)=  0.00000295
 Iteration  2 RMS(Cart)=  0.00000262 RMS(Int)=  0.00000069
 Iteration  3 RMS(Cart)=  0.00000000 RMS(Int)=  0.00000069
 Variable       Old X    -DE/DX   Delta X   Delta X   Delta X     New X
                                 (Linear)    (Quad)   (Total)
    R1        2.87209   0.00004   0.00020  -0.00009   0.00011   2.87220
    R2        2.08279   0.00008   0.00035  -0.00010   0.00025   2.08304
    R3        2.09074   0.00008   0.00020   0.00004   0.00024   2.09098
    R4        2.08492   0.00009   0.00021   0.00005   0.00026   2.08518
    R5        2.68533  -0.00006   0.00030  -0.00033  -0.00003   2.68530
    R6        2.88695   0.00000   0.00036  -0.00030   0.00006   2.88701
    R7        2.08333   0.00004   0.00009   0.00002   0.00011   2.08343
    R8        1.83063   0.00001  -0.00009   0.00005  -0.00004   1.83058
    R9        2.63843   0.00009   0.00023  -0.00001   0.00022   2.63865
   R10        2.08491   0.00004   0.00015  -0.00002   0.00013   2.08504
   R11        2.10828   0.00001  -0.00009   0.00006  -0.00003   2.10825
   R12        1.83554  -0.00000  -0.00015   0.00017   0.00001   1.83556
    A1        1.92566   0.00000   0.00036  -0.00025   0.00011   1.92577
    A2        1.93499  -0.00002  -0.00037   0.00016  -0.00020   1.93479
    A3        1.93898  -0.00003  -0.00069   0.00040  -0.00029   1.93868
    A4        1.88986   0.00001   0.00034  -0.00011   0.00023   1.89010
    A5        1.89311   0.00001   0.00013  -0.00013   0.00001   1.89312
    A6        1.87963   0.00002   0.00025  -0.00009   0.00016   1.87978
    A7        1.95535   0.00001  -0.00022   0.00030   0.00008   1.95543
    A8        1.98213  -0.00006  -0.00033  -0.00017  -0.00050   1.98163
    A9        1.91861   0.00001   0.00033  -0.00034  -0.00001   1.91860
   A10        1.89399   0.00003   0.00001   0.00006   0.00007   1.89406
   A11        1.82160  -0.00001  -0.00003   0.00019   0.00016   1.82175
   A12        1.88401   0.00002   0.00029  -0.00002   0.00027   1.88428
   A13        1.89030   0.00002   0.00047  -0.00032   0.00016   1.89045
   A14        1.93073  -0.00000   0.00035  -0.00050  -0.00015   1.93058
   A15        1.93148  -0.00001  -0.00045   0.00032  -0.00012   1.93136
   A16        1.89379  -0.00000  -0.00024   0.00028   0.00004   1.89384
   A17        1.88725  -0.00001  -0.00038   0.00022  -0.00016   1.88710
   A18        1.94873   0.00000   0.00009  -0.00017  -0.00008   1.94865
   A19        1.87126   0.00002   0.00063  -0.00014   0.00049   1.87175
   A20        1.84684  -0.00001  -0.00060   0.00066   0.00007   1.84690
    D1        0.97263   0.00000   0.00050  -0.00035   0.00015   0.97278
    D2        3.12620   0.00001   0.00008  -0.00016  -0.00008   3.12612
    D3       -1.04434  -0.00000   0.00047  -0.00055  -0.00008  -1.04442
    D4       -1.12091  -0.00000   0.00007  -0.00016  -0.00008  -1.12100
    D5        1.03266   0.00000  -0.00035   0.00003  -0.00032   1.03234
    D6       -3.13788  -0.00001   0.00004  -0.00036  -0.00032  -3.13820
    D7        3.07284  -0.00000   0.00046  -0.00041   0.00005   3.07288
    D8       -1.05678   0.00000   0.00004  -0.00022  -0.00019  -1.05697
    D9        1.05587  -0.00001   0.00043  -0.00061  -0.00019   1.05568
   D10        0.90116  -0.00005  -0.00527  -0.00020  -0.00547   0.89569
   D11       -1.30124  -0.00000  -0.00469  -0.00025  -0.00493  -1.30618
   D12        2.97633  -0.00004  -0.00501  -0.00034  -0.00535   2.97098
   D13       -3.09121  -0.00001  -0.00008  -0.00019  -0.00028  -3.09148
   D14        1.10067   0.00000   0.00045  -0.00035   0.00010   1.10077
   D15       -0.94792  -0.00001   0.00010  -0.00054  -0.00045  -0.94836
   D16       -0.90445  -0.00002  -0.00061   0.00013  -0.00048  -0.90493
   D17       -2.99576   0.00000  -0.00007  -0.00003  -0.00011  -2.99586
   D18        1.23884  -0.00002  -0.00043  -0.00022  -0.00065   1.23819
   D19        1.06003   0.00000  -0.00050   0.00037  -0.00013   1.05991
   D20       -1.03127   0.00002   0.00004   0.00020   0.00024  -1.03103
   D21       -3.07986   0.00000  -0.00032   0.00002  -0.00030  -3.08016
   D22        0.67818   0.00001   0.00124   0.00039   0.00163   0.67981
   D23        2.79585  -0.00000   0.00066   0.00062   0.00128   2.79713
   D24       -1.43281   0.00001   0.00124   0.00049   0.00174  -1.43108
         Item               Value     Threshold  Converged?
 Maximum Force            0.000088     0.000015     NO 
 RMS     Force            0.000030     0.000010     NO 
 Maximum Displacement     0.007259     0.000060     NO 
 RMS     Displacement     0.001206     0.000040     NO 
 GradGradGradGradGradGradGradGradGradGradGradGradGradGradGradGradGradGrad

                    Distance matrix (angstroms):
                    1          2          3          4          5
     1  C    0.000000
     2  C    1.519900   0.000000
     3  O    2.439290   1.421001   0.000000
     4  C    2.549275   1.527740   2.394257   0.000000
     5  O    3.766294   2.405358   2.729915   1.396312   0.000000
     6  H    1.102299   2.165591   2.684293   3.498706   4.565793
     7  H    1.106497   2.175287   2.758199   2.813527   4.081447
     8  H    1.103428   2.175770   3.391625   2.826544   4.119462
     9  H    2.160527   1.102505   2.003214   2.142038   2.652167
    10  H    2.545852   1.955186   0.968703   2.671065   3.156017
    11  H    2.841668   2.177333   3.353107   1.103356   2.031139
    12  H    2.745293   2.158879   2.729127   1.115637   2.084165
    13  H    3.831665   2.382241   2.174456   1.905955   0.971335
                    6          7          8          9         10
     6  H    0.000000
     7  H    1.790287   0.000000
     8  H    1.789749   1.784502   0.000000
     9  H    2.501812   3.086933   2.517647   0.000000
    10  H    2.839548   2.454502   3.581390   2.814039   0.000000
    11  H    3.841994   3.214748   2.673563   2.479288   3.681722
    12  H    3.755876   2.547183   3.107100   3.061174   2.594199
    13  H    4.469151   4.122759   4.411222   2.661291   2.623920
                   11         12         13
    11  H    0.000000
    12  H    1.786564   0.000000
    13  H    2.799123   2.444337   0.000000
 Framework group  C1[X(C3H8O2)]
 Deg. of freedom    33
                         Standard orientation:                         
 ---------------------------------------------------------------------
 Center     Atomic      Atomic             Coordinates (Angstroms)
 Number     Number       Type             X           Y           Z
 ---------------------------------------------------------------------
      1          6           0       -1.787980   -0.564611    0.024181
      2          6           0       -0.438831    0.027807   -0.348561
[...]
 ! R8    R(3,10)                 0.9687         -DE/DX =    0.0                 !
 ! R9    R(4,5)                  1.3963         -DE/DX =    0.0                 !
 ! R10   R(4,11)                 1.1033         -DE/DX =    0.0                 !
 ! R11   R(4,12)                 1.1156         -DE/DX =    0.0                 !
 ! R12   R(5,13)                 0.9713         -DE/DX =    0.0                 !
 ! A1    A(2,1,6)              110.3389         -DE/DX =    0.0                 !
 ! A2    A(2,1,7)              110.8599         -DE/DX =    0.0                 !
 ! A3    A(2,1,8)              111.0806         -DE/DX =    0.0                 !
 ! A4    A(6,1,7)              108.2918         -DE/DX =    0.0                 !
 ! A5    A(6,1,8)              108.4645         -DE/DX =    0.0                 !
 ! A6    A(7,1,8)              107.7025         -DE/DX =    0.0                 !
 ! A7    A(1,2,3)              112.0422         -DE/DX =    0.0                 !
 ! A8    A(1,2,4)              113.5397         -DE/DX =    0.0                 !
 ! A9    A(1,2,9)              109.9202         -DE/DX =    0.0                 !
 ! A10   A(3,2,4)              108.5235         -DE/DX =    0.0                 !
 ! A11   A(3,2,9)              104.3874         -DE/DX =    0.0                 !
 ! A12   A(4,2,9)              107.9539         -DE/DX =    0.0                 !
 ! A13   A(2,3,10)             108.3218         -DE/DX =    0.0                 !
 ! A14   A(2,4,5)              110.6165         -DE/DX =    0.0                 !
 ! A15   A(2,4,11)             110.666          -DE/DX =    0.0                 !
 ! A16   A(2,4,12)             108.5067         -DE/DX =    0.0                 !
 ! A17   A(5,4,11)             108.1159         -DE/DX =    0.0                 !
 ! A18   A(5,4,12)             111.6507         -DE/DX =    0.0                 !
 ! A19   A(11,4,12)            107.2413         -DE/DX =    0.0                 !
 ! A20   A(4,5,13)             105.8082         -DE/DX =    0.0                 !
 ! D1    D(6,1,2,3)             55.7143         -DE/DX =    0.0                 !
 ! D2    D(6,1,2,4)            179.0977         -DE/DX =    0.0                 !
 ! D3    D(6,1,2,9)            -59.8713         -DE/DX =    0.0                 !
 ! D4    D(7,1,2,3)            -64.2499         -DE/DX =    0.0                 !
 ! D5    D(7,1,2,4)             59.1336         -DE/DX =    0.0                 !
 ! D6    D(7,1,2,9)           -179.8354         -DE/DX =    0.0                 !
 ! D7    D(8,1,2,3)            176.0385         -DE/DX =    0.0                 !
 ! D8    D(8,1,2,4)            -60.578          -DE/DX =    0.0                 !
 ! D9    D(8,1,2,9)             60.453          -DE/DX =    0.0                 !
 ! D10   D(1,2,3,10)            51.2936         -DE/DX =    0.0                 !
 ! D11   D(4,2,3,10)           -74.8689         -DE/DX =    0.0                 !
 ! D12   D(9,2,3,10)           170.1974         -DE/DX =    0.0                 !
 ! D13   D(1,2,4,5)           -177.1374         -DE/DX =    0.0                 !
 ! D14   D(1,2,4,11)            63.0633         -DE/DX =    0.0                 !
 ! D15   D(1,2,4,12)           -54.3439         -DE/DX =    0.0                 !
 ! D16   D(3,2,4,5)            -51.8497         -DE/DX =    0.0                 !
 ! D17   D(3,2,4,11)          -171.649          -DE/DX =    0.0                 !
 ! D18   D(3,2,4,12)            70.9438         -DE/DX =    0.0                 !
 ! D19   D(9,2,4,5)             60.7341         -DE/DX =    0.0                 !
 ! D20   D(9,2,4,11)           -59.0652         -DE/DX =    0.0                 !
 ! D21   D(9,2,4,12)          -176.4724         -DE/DX =    0.0                 !
 ! D22   D(2,4,5,13)            38.9928         -DE/DX =    0.0                 !
 ! D23   D(11,4,5,13)          160.3124         -DE/DX =    0.0                 !
 ! D24   D(12,4,5,13)          -81.9519         -DE/DX =    0.0                 !
 --------------------------------------------------------------------------------
 GradGradGradGradGradGradGradGradGradGradGradGradGradGradGradGradGradGrad


 ----------------------------------------------------------------------

 Electric dipole moment (input orientation):
 (Debye = 10**-18 statcoulomb cm , SI units = C m)
                  (au)            (Debye)         (10**-30 SI)
   Tot        0.102093D+01      0.259496D+01      0.865585D+01
   x         -0.865424D+00     -0.219969D+01     -0.733737D+01
   y          0.164504D+00      0.418127D+00      0.139472D+01
   z         -0.516031D+00     -0.131162D+01     -0.437509D+01

 Dipole polarizability, Alpha (input orientation).
 (esu units = cm**3 , SI units = C**2 m**2 J**-1)
 Alpha(0;0):
               (au)            (10**-24 esu)      (10**-40 SI)
   iso        0.391110D+02      0.579566D+01      0.644854D+01
   aniso      0.403318D+01      0.597656D+00      0.664982D+00
   xx         0.408135D+02      0.604794D+01      0.672924D+01
   yx        -0.113716D+01     -0.168510D+00     -0.187492D+00
   yy         0.392432D+02      0.581525D+01      0.647034D+01
   zx         0.853380D+00      0.126458D+00      0.140703D+00
   zy         0.509675D+00      0.755261D-01      0.840341D-01
   zz         0.372763D+02      0.552378D+01      0.614604D+01

 ----------------------------------------------------------------------

 Dipole orientation:
     6         -1.60266247         -0.97543999          3.11688585
     6         -1.01512494         -0.06763672          0.45591263
     8         -0.55495401          2.57635771          0.37182779
     6          1.22358486         -1.42730226         -0.75822135
     8          1.73774381         -0.42337218         -3.14370543
     1         -3.20950951          0.08909359          3.90677597
     1          0.04497514         -0.70687535          4.37599997
     1         -2.08505523         -3.00399914          3.12787383
     1         -2.67619158         -0.34328700         -0.77110863
     1          0.69944704          2.98280578          1.64160013
     1          0.81568400         -3.45948907         -0.98425180
     1          2.88478413         -1.26283997          0.52943911
     1          1.49402929          1.38911330         -2.98656314

 Electric dipole moment (dipole orientation):
 (Debye = 10**-18 statcoulomb cm , SI units = C m)
                  (au)            (Debye)         (10**-30 SI)
   Tot        0.102093D+01      0.259496D+01      0.865585D+01
   x          0.000000D+00      0.000000D+00      0.000000D+00
   y          0.000000D+00      0.000000D+00      0.000000D+00
   z          0.102093D+01      0.259496D+01      0.865585D+01

 Dipole polarizability, Alpha (dipole orientation).
 (esu units = cm**3 , SI units = C**2 m**2 J**-1)
 Alpha(0;0):
               (au)            (10**-24 esu)      (10**-40 SI)
   iso        0.391110D+02      0.579566D+01      0.644854D+01
   aniso      0.403318D+01      0.597656D+00      0.664982D+00
   xx         0.373164D+02      0.552973D+01      0.615265D+01
   yx         0.661273D+00      0.979905D-01      0.109029D+00
   yy         0.391887D+02      0.580716D+01      0.646134D+01
   zx        -0.125205D+01     -0.185535D+00     -0.206436D+00
   zy        -0.574486D+00     -0.851300D-01     -0.947199D-01
   zz         0.408280D+02      0.605008D+01      0.673162D+01

 ----------------------------------------------------------------------
 1\1\GINC-C209\Freq\RwB97XD\def2SVPP\C3H8O2\PETERCHAO1\29-Mar-2024\0\\#
 T Geom=AllCheck Guess=TCheck SCRF=Check GenChk RwB97XD/def2SVPP Freq\\
 Monomer\\0,1\C,-1.7946090841,0.6960989179,-0.0315992728\C,-0.482044355
 6,0.025311184,0.3391795165\O,-0.4439852992,-1.3347769643,-0.070194272\
 C,0.7470852386,0.736364913,-0.2243611274\O,1.9111617264,0.0355533593,0
 .0974510758\H,-2.6444928209,0.1326915822,0.3871439909\H,-1.9165720287,
 0.7428972721,-1.1303608722\H,-1.8355733421,1.7288297129,0.3548179113\H
 ,-0.3778516257,-0.015710575,1.4359852196\H,-0.6861178705,-1.3776560394
 ,-1.0071686821\H,0.8332192881,1.7543489749,0.1923462966\H,0.6210664382
 ,0.8403869631,-1.3279650095\H,1.6862412056,-0.9053335795,0.0101987982\
 \Version=ES64L-G16RevB.01\State=1-A\HF=-269.2606481\RMSD=9.806e-11\RMS
 F=6.655e-07\ZeroPoint=0.1147448\Thermal=0.1207558\Dipole=-0.8654237,0.
 1645038,-0.516031\DipoleDeriv=-0.1179962,0.0848038,0.0006635,0.0010176
 ,-0.0450905,-0.0180916,0.0007089,0.0160686,0.0751239,0.4268983,0.03768
 45,-0.0191478,-0.0666311,0.7416575,0.1162878,0.0106197,0.1389828,0.247
 1916,-0.6914509,-0.0379785,0.0574639,-0.0140658,-0.9570712,-0.1408541,
 0.0827421,-0.1752409,-0.2899283,0.5837425,-0.2855914,0.1559457,-0.1741
 929,0.3639994,-0.0966956,0.0943961,-0.0383752,0.464232,-0.9304117,0.25
 06542,-0.0582595,0.2555242,-0.5134169,0.107513,0.0099495,0.0989149,-0.
 535193,-0.0690696,-0.0349881,0.031925,-0.0800867,0.0290067,0.0462672,0
 .0390157,0.0432165,0.0533445,0.040502,0.0195261,0.0255306,0.018922,0.0
 628565,-0.0219595,-0.0449567,0.0104118,-0.1420563,0.0610349,-0.0087682
 ,-0.0183108,0.0359606,-0.089689,-0.0546751,-0.0066903,-0.0636405,0.057
 0465,0.0061355,0.0036339,-0.0307806,0.0064764,-0.0128891,0.0303,-0.016
 2795,0.0026491,-0.1290683,0.3405803,0.018123,-0.0406378,0.0304154,0.30
 67452,0.0977942,-0.0511972,0.0304532,0.1286568,0.017836,-0.0075914,-0.
 0042507,0.0060512,-0.1262842,-0.0423084,-0.0159202,-0.0870337,0.016676
 8,-0.0582112,0.0342812,-0.0705059,0.006835,-0.0026584,-0.005014,-0.047
 3148,0.0642155,-0.2503714,0.3904101,-0.073789,-0.0296358,-0.026226,0.2
 428339,-0.0185638,-0.0550733,-0.0406221,0.3043452\Polar=40.8135143,-1.
 1371586,39.243243,0.8533797,0.5096751,37.2763325\Quadrupole=-2.8708595
 ,0.7449099,2.1259495,-1.4756433,0.1012024,1.8353613\PG=C01 [X(C3H8O2)]
 \NImag=0\\0.52881809,0.03850081,0.58096681,-0.02239731,0.01081296,0.57
 452286,-0.18892166,0.03636852,-0.03481680,0.52900307,0.04663522,-0.099
 59355,0.01989286,-0.01355375,0.48971824,-0.02958971,0.01285141,-0.1000
 3693,0.02587501,-0.00893479,0.66320037,0.00180351,0.03832219,0.0116868
 3,-0.07003858,-0.00109821,-0.01369312,0.10814983,0.00391881,-0.0378074
 9,-0.01366795,0.01074657,-0.22304743,-0.01155317,-0.00495330,0.3643831
 2,0.00010004,0.00347812,0.00327487,-0.00500598,-0.05941219,-0.11102210
 ,0.13041887,0.07277926,0.56456429,-0.02604881,-0.00691845,0.00973976,-
 0.14344615,-0.05237097,0.03940100,-0.00660954,-0.00478098,-0.00072894,
 0.49424488,0.01275744,0.01338790,-0.00579098,-0.03272835,-0.09675931,0
 .02076336,-0.02762058,-0.05077495,0.00727467,-0.00908695,0.63917326,-0
 .00895460,-0.00545654,0.00388482,0.04033783,0.03007945,-0.11391362,-0.
 01005546,-0.01518136,0.00533839,0.02148322,0.03772718,0.57641926,-0.00
 596692,-0.00762551,0.00359853,-0.05017891,0.02504602,-0.01110740,0.001
 96323,0.00121906,-0.00100778,-0.21837064,0.04811169,-0.04237032,0.3620
 1507,-0.00128939,0.00069934,0.00039584,-0.00087596,-0.00038693,-0.0035
 0620,-0.01027373,0.00362341,-0.00028298,0.09881174,-0.14560560,0.02264
 569,-0.00579899,0.60774124,0.00179506,0.00178506,0.00066044,0.00920300
 ,-0.00664903,0.00534720,-0.00118415,0.00051435,0.00321014,-0.04615072,
 0.01573494,-0.08568243,0.08495949,0.00499880,0.08162929,-0.20754042,-0
 .10782858,0.08072195,-0.02377371,-0.01778251,0.01224501,0.00414029,-0.
 00031113,-0.00036305,-0.00162065,0.00483290,-0.00315420,-0.00274227,0.
 00000524,0.00064028,0.22375267,-0.11091129,-0.12202832,0.05481050,0.01
 414230,0.00762962,-0.00715247,-0.00123473,0.00201392,0.00013177,0.0014
 9275,-0.00211592,0.00083750,0.00141107,0.00025865,-0.00009236,0.115914
 52,0.12491700,0.08189152,0.05496681,-0.09072192,-0.00882629,-0.0059031
 9,0.00366959,0.00047866,-0.00064459,-0.00034937,-0.00067443,0.00135854
 ,-0.00051228,-0.00089756,0.00008544,0.00057974,-0.08584941,-0.05962289
 ,0.09099824,-0.05205506,0.00125367,-0.02449309,-0.00274696,-0.00016237
 ,-0.03218656,0.00141647,-0.00247633,0.00094139,0.00122118,0.00060765,-
 0.00231225,0.00007169,-0.00034189,0.00110303,0.00415415,0.00141446,0.0
 2412689,0.05369687,0.00012845,-0.05021891,0.01002681,0.00175314,-0.001
 56414,0.01548586,-0.00103174,0.00179933,0.00058667,-0.00102046,-0.0001
 6549,-0.00039560,0.00001982,-0.00021544,-0.00012535,0.00353346,-0.0000
 4959,0.01607472,-0.00353891,0.04723646,-0.02536970,0.00935767,-0.30742
 213,-0.00081488,-0.00169828,-0.00968014,0.00050276,0.00103549,0.002723
 96,0.00115688,0.00045102,0.00009797,-0.00005503,-0.00002056,0.00062311
 ,-0.00231261,-0.00103039,-0.00909367,0.03053863,-0.01190049,0.32943389
 ,-0.05023594,0.00674133,0.00214893,0.00470274,0.02424682,0.01343966,-0
 .00612097,0.00632400,-0.00101798,-0.00015664,-0.00002273,0.00048230,0.
 00072303,-0.00077450,-0.00017043,0.00278739,-0.02179767,-0.01068670,-0
 .00082515,-0.00298175,-0.00076123,0.04892323,0.00908873,-0.28556509,-0
 .08965384,-0.00419767,-0.01117406,-0.00582189,0.00451190,-0.00200777,0
 .00044651,-0.00047725,-0.00031938,-0.00018286,0.00016808,0.00048313,0.
 00019423,0.00247464,-0.01150493,-0.00566766,-0.00024897,0.00422353,0.0
 0208856,-0.01077638,0.30466179,0.00301718,-0.09082279,-0.08270880,0.00
 161741,0.00822384,0.00211251,-0.00237124,0.00211449,0.00111684,0.00006
 366,-0.00035991,0.00011688,0.00016867,0.00016413,-0.00016235,-0.001993
 79,0.01255554,0.00485852,0.00146159,-0.02965287,-0.00799015,-0.0022351
 3,0.09718906,0.08216594,-0.00328677,0.00238603,-0.02918221,-0.05529779
 ,0.00160054,-0.02476980,0.00202454,-0.00004878,0.00013675,0.00100499,-
 0.00372439,0.02894863,0.00279301,0.00002798,-0.00203516,0.00096175,-0.
 00076895,-0.00004773,-0.00477657,0.00268270,-0.00169820,0.00094500,-0.
 00001081,0.00051872,0.05846016,0.00088913,0.00010123,0.01438871,0.0025
 5299,-0.04887099,0.02503189,-0.00519834,-0.01154497,-0.04284185,0.0010
 8117,-0.00100886,0.01860520,0.00102327,0.00047863,-0.00211825,-0.00022
 625,0.00043417,-0.00086824,0.00282511,-0.00065209,0.00087188,-0.000478
 14,0.00027550,0.00005294,-0.00090685,0.06746376,-0.00028362,0.00109291
 ,-0.00474425,-0.02334448,0.01450127,-0.31271869,-0.00190418,-0.0071536
 1,-0.01060846,-0.00205640,0.00278825,-0.01427498,-0.00052475,-0.001000
 42,0.00282437,-0.00022683,-0.00022335,0.00051673,-0.00072731,0.0005711
 5,0.00116913,-0.00039550,0.00042910,0.00014251,0.02567297,-0.01064432,
 0.33647989,0.00095813,-0.00058372,0.00267370,0.00065316,0.00152609,0.0
 0203710,-0.03856242,-0.00336498,-0.12405581,-0.00000740,0.00020824,-0.
 00249698,-0.00121429,0.00004541,0.00148805,-0.00058707,0.00017163,0.00
 047284,0.00043610,0.00049806,-0.00078813,-0.00032458,-0.00031372,-0.00
 042666,0.00058254,0.00132787,0.00136530,0.03850882,0.00003648,0.002252
 71,-0.00113072,-0.01111616,-0.00690183,-0.04639783,0.01042627,-0.04541
 022,0.01657319,-0.00094163,0.00109281,-0.00195153,0.00100575,-0.000442
 09,0.00038608,0.00002544,-0.00002399,0.00028017,0.00079901,-0.00072933
 ,0.00113045,-0.00050119,0.00038331,0.00050533,-0.00005603,-0.00619119,
 -0.00174561,0.00112692,0.05595824,0.00073477,0.00223887,0.00329611,-0.
 00351418,0.00145818,-0.01740175,-0.11789248,-0.03114386,-0.45853425,0.
 00002050,0.00109361,0.00301303,0.00018103,0.00053355,-0.00037828,0.000
 35561,-0.00032882,-0.00032481,0.00080072,-0.00051793,-0.00041303,-0.00
 074274,0.00081383,0.00003981,0.00018596,-0.00412130,0.00123365,0.12112
 268,0.03027105,0.47029499,0.00027296,0.00047200,-0.00022312,0.00295452
 ,-0.01993699,-0.01435884,-0.00432998,-0.00707944,0.00242051,-0.0547365
 8,-0.03447036,-0.01212520,-0.00209158,0.03810890,0.00754265,0.00024019
 ,0.00015829,0.00015582,-0.00009163,-0.00006107,0.00009195,-0.00090339,
 0.00016130,0.00012063,0.00098307,0.00065810,0.00033987,0.00012694,0.00
 031332,0.00054208,0.06147752,0.00026358,-0.00008473,0.00009705,0.00117
 098,-0.01084036,-0.00767334,-0.00302469,-0.00209336,0.00127200,-0.0266
 1086,-0.26844855,-0.09347797,0.00522649,-0.01943986,-0.00105208,-0.000
 12244,0.00021366,0.00021122,-0.00002954,0.00000604,0.00012322,-0.00027
 262,0.00057525,0.00003738,0.00031531,0.00027836,0.00024629,0.00020300,
 0.00013971,0.00034590,0.01998132,0.29574306,-0.00045068,-0.00026070,0.
 00006587,0.00114467,0.01151532,0.00480488,0.00176868,0.00292286,0.0010
 3829,-0.01091565,-0.10113044,-0.09689255,0.00061879,0.01153698,0.00691
 812,-0.00015521,0.00009582,-0.00009212,0.00008909,-0.00009167,0.000055
 17,-0.00006893,0.00000813,0.00026306,-0.00064778,0.00011784,0.00064228
 ,0.00066728,0.00068210,-0.00022086,0.01376412,0.10012759,0.09398116,0.
 00196313,-0.00026535,0.00100986,0.00059718,-0.00159101,0.02925560,0.00
 167903,0.00211413,-0.00144857,-0.04976545,-0.00191305,-0.01223152,-0.0
 1502764,0.01374091,-0.03479588,0.00020400,-0.00002920,-0.00023763,-0.0
 0058475,-0.00007716,-0.00059638,-0.00000786,0.00007527,0.00004450,-0.0
 0419344,-0.00313662,0.00202432,-0.00008061,-0.00028660,-0.00073383,0.0
 0194912,-0.00061860,-0.00447713,0.06394261,0.00075962,-0.00015235,-0.0
 0011898,-0.00163163,-0.00086753,0.01675721,0.00114421,0.00233921,0.000
 06252,-0.00164762,-0.05825671,0.00920920,0.01141488,-0.00214815,0.0215
 7338,0.00003265,-0.00007609,-0.00021615,-0.00005126,0.00023094,-0.0003
 4815,-0.00011569,0.00001299,-0.00008217,-0.00194076,-0.00076618,0.0014
 3452,-0.00057596,-0.00038211,-0.00026732,-0.00111339,0.00423981,-0.028
 19341,-0.00649980,0.05525781,-0.00065030,0.00041632,0.00028251,-0.0017
 8353,-0.00253966,-0.01713157,0.00005453,0.00052936,0.00352103,-0.01106
 380,0.00972635,-0.27918947,-0.01340348,0.01044081,-0.00059695,0.000219
 26,-0.00005267,0.00052217,0.00089886,-0.00019620,0.00070740,-0.0000252
 7,0.00012517,0.00001103,0.00232740,0.00166216,0.00014712,0.00063067,0.
 00127432,-0.00050966,0.00092299,0.00097232,-0.01087523,0.02275845,-0.0
 2134886,0.30393933,0.00023976,-0.00082293,-0.00046704,-0.00350690,0.00
 744112,0.00345204,0.00448460,-0.00130762,-0.00038944,0.00429081,0.0430
 4848,0.00244857,-0.07197378,-0.13138572,-0.02239522,0.00002368,0.00003
 681,0.00009400,0.00008367,0.00009546,0.00010595,0.00049314,-0.00045512
 ,0.00001447,-0.00020049,-0.00041144,0.00006061,-0.00048932,-0.00083158
 ,-0.00106013,-0.00585116,0.00351808,-0.00133723,-0.00067532,0.00022475
 ,-0.00088577,0.07308131,-0.00077760,-0.00195754,-0.00006226,-0.0026309
 6,0.00265826,0.00014996,0.00003075,-0.00147279,-0.00006770,0.00246951,
 -0.03019920,-0.00245836,-0.08122163,-0.44504634,-0.03514976,-0.0005479
 4,0.00033182,-0.00005418,-0.00005063,0.00009869,-0.00006043,0.00040852
 ,-0.00004427,0.00007502,0.00044402,0.00000264,-0.00029619,-0.00026884,
 0.00025398,-0.00037575,0.00280802,-0.00028903,0.00266958,-0.00151293,0
 .00056838,-0.00100941,0.08084972,0.47509541,0.00015735,-0.00046010,-0.
 00035345,-0.00007178,-0.00053378,0.00277025,0.00219030,-0.00055127,-0.
 00427363,-0.00027508,0.01036341,0.00159498,-0.02016020,-0.04599110,-0.
 01497241,-0.00012701,0.00007182,-0.00005082,-0.00024098,0.00013490,-0.
 00021149,0.00003302,0.00003167,0.00003419,0.00059045,-0.00013666,-0.00
 080931,-0.00269004,0.00012301,-0.00009496,0.00080655,-0.00122958,0.000
 31193,-0.00057179,0.00153819,-0.00082771,0.02035920,0.03663948,0.01688
 242\\0.00000036,0.00000043,-0.00000038,-0.00000010,-0.00000245,-0.0000
 0049,0.00000003,0.00000217,0.00000043,-0.00000023,0.00000009,0.0000005
 0,0.00000010,-0.00000050,0.00000014,0.00000001,0.00000059,-0.00000066,
 0.00000015,0.00000014,-0.00000032,-0.00000002,0.00000014,-0.00000091,-
 0.00000063,0.00000062,0.00000016,-0.00000011,-0.00000027,0.00000030,-0
 .00000001,-0.00000027,0.,0.00000057,0.00000004,0.00000008,-0.00000012,
 -0.00000074,0.00000116\\\@


 CHILDREN YOU ARE VERY LITTLE,
 AND YOUR BONES ARE VERY BRITTLE;
 IF YOU WOULD GROW GREAT AND STATELY
 YOU MUST TRY TO WALK SEDATELY.
 YOU MUST STILL BE BRIGHT AND QUIET,
 AND CONTENT WITH SIMPLE DIET;
 AND REMAIN, THROUGH ALL BEWILD'RING
 INNOCENT AND HONEST CHILDREN.
     -- A CHILD'S GARDEN OF VERSE,
        ROBERT LOUIS STEVENSON
 File lengths (MBytes):  RWF=     16 Int=      0 D2E=      0 Chk=      2 Scr=      1
 Normal termination of Gaussian 16 at Fri Mar 29 15:37:41 2024.
real 193.15
user 679.17
sys 9.20
