 Entering Gaussian System, Link 0=g16
 Input=gaussian_test.inp
 Output=gaussian_test.log
 Initial command:
 /sw/restricted/lms/sw/Gaussian/g16_B01/g16/l1.exe "/scratch/user/peterchao1/peterchao1/7003933_1675700538000000394733439/Gau-76661.inp" -scrdir="/scratch/user/peterchao1/peterchao1/7003933_1675700538000000394733439/"
 Entering Link 1 = /sw/restricted/lms/sw/Gaussian/g16_B01/g16/l1.exe PID=     76662.
  
 Copyright (c) 1988-2017, Gaussian, Inc.  All Rights Reserved.
  
 This is part of the Gaussian(R) 16 program.  It is based on
 the Gaussian(R) 09 system (copyright 2009, Gaussian, Inc.),
 the Gaussian(R) 03 system (copyright 2003, Gaussian, Inc.),
 the Gaussian(R) 98 system (copyright 1998, Gaussian, Inc.),
 the Gaussian(R) 94 system (copyright 1995, Gaussian, Inc.),
 the Gaussian 92(TM) system (copyright 1992, Gaussian, Inc.),
 the Gaussian 90(TM) system (copyright 1990, Gaussian, Inc.),
 the Gaussian 88(TM) system (copyright 1988, Gaussian, Inc.),
 the Gaussian 86(TM) system (copyright 1986, Carnegie Mellon
 University), and the Gaussian 82(TM) system (copyright 1983,
 Carnegie Mellon University). Gaussian is a federally registered
 trademark of Gaussian, Inc.
  
 This software contains proprietary and confidential information,
 including trade secrets, belonging to Gaussian, Inc.
  
 This software is provided under written license and may be
 used, copied, transmitted, or stored only in accord with that
 written license.
  
 The following legend is applicable only to US Government
 contracts under FAR:
  
                    RESTRICTED RIGHTS LEGEND
  
 Use, reproduction and disclosure by the US Government is
 subject to restrictions as set forth in subparagraphs (a)
 and (c) of the Commercial Computer Software - Restricted
 Rights clause in FAR 52.227-19.
  
 Gaussian, Inc.
 340 Quinnipiac St., Bldg. 40, Wallingford CT 06492
  
  
 ---------------------------------------------------------------
 Warning -- This program may not be used in any manner that
 competes with the business of Gaussian, Inc. or will provide
 assistance to any competitor of Gaussian, Inc.  The licensee
 of this program is prohibited from giving any competitor of
 Gaussian, Inc. access to this program.  By using this program,
 the user acknowledges that Gaussian, Inc. is engaged in the
 business of creating and licensing software in the field of
 computational chemistry and represents and warrants to the
 licensee that it is not a competitor of Gaussian, Inc. and that
 it will not use this program in any manner prohibited above.
 ---------------------------------------------------------------
  

 Cite this work as:
 Gaussian 16, Revision B.01,
 M. J. Frisch, G. W. Trucks, H. B. Schlegel, G. E. Scuseria, 
 M. A. Robb, J. R. Cheeseman, G. Scalmani, V. Barone, 
 G. A. Petersson, H. Nakatsuji, X. Li, M. Caricato, A. V. Marenich, 
 J. Bloino, B. G. Janesko, R. Gomperts, B. Mennucci, H. P. Hratchian, 
 J. V. Ortiz, A. F. Izmaylov, J. L. Sonnenberg, D. Williams-Young, 
 F. Ding, F. Lipparini, F. Egidi, J. Goings, B. Peng, A. Petrone, 
 T. Henderson, D. Ranasinghe, V. G. Zakrzewski, J. Gao, N. Rega, 
 G. Zheng, W. Liang, M. Hada, M. Ehara, K. Toyota, R. Fukuda, 
 J. Hasegawa, M. Ishida, T. Nakajima, Y. Honda, O. Kitao, H. Nakai, 
 T. Vreven, K. Throssell, J. A. Montgomery, Jr., J. E. Peralta, 
 F. Ogliaro, M. J. Bearpark, J. J. Heyd, E. N. Brothers, K. N. Kudin, 
 V. N. Staroverov, T. A. Keith, R. Kobayashi, J. Normand, 
 K. Raghavachari, A. P. Rendell, J. C. Burant, S. S. Iyengar, 
 J. Tomasi, M. Cossi, J. M. Millam, M. Klene, C. Adamo, R. Cammi, 
 J. W. Ochterski, R. L. Martin, K. Morokuma, O. Farkas, 
 J. B. Foresman, and D. J. Fox, Gaussian, Inc., Wallingford CT, 2016.
 
 ******************************************
 Gaussian 16:  ES64L-G16RevB.01 20-Dec-2017
                 6-Feb-2023 
 ******************************************
 %nprocshared=4
 Will use up to    4 processors via shared memory.
 %mem=8000mb
 %chk=15.chk
 %nprocshared=4
 Will use up to    4 processors via shared memory.
 %mem=8000mb
 ----------------------------------------------------------------------
 #T wB97XD/def2svpp opt=tight freq int(grid=ultrafine) scf=(verytight,q
 c) Volume=tight
 ----------------------------------------------------------------------
 -------
 Monomer
 -------
 Symbolic Z-matrix:
 Charge =  0 Multiplicity = 1
 C                     2.26818  -0.63501  -0.67184 
 C                     0.92487   0.01449  -1.00298 
 C                     0.07655   0.49987   0.19179 
 C                     0.74878   1.67304   0.91272 
 C                    -1.29574   0.97511  -0.33756 
 O                    -2.0012    0.00459  -1.05709 
 C                    -0.1448   -0.62443   1.22073 
 O                    -0.78964  -1.76917   0.69087 
 H                     2.81065  -0.88571  -1.59908 
 H                     2.15399  -1.57525  -0.10205 
 H                     2.91878   0.03102  -0.07957 
 H                     0.31194  -0.68014  -1.60333 
 H                     1.0987    0.88351  -1.66397 
 H                     0.94194   2.50428   0.21203 
 H                     1.71344   1.38181   1.36319 
 H                     0.10849   2.06078   1.72571 
 H                    -1.14536   1.83113  -1.01947 
 H                    -1.89079   1.34963   0.5254 
 H                    -1.98763  -0.80983  -0.52512 
 H                    -0.808    -0.25898   2.02291 
 H                     0.81391  -0.90561   1.69947 
 H                    -0.18031  -2.22844   0.09648 
 

 GradGradGradGradGradGradGradGradGradGradGradGradGradGradGradGradGradGrad
 Initialization pass.
                           ----------------------------
                           !    Initial Parameters    !
                           ! (Angstroms and Degrees)  !
 --------------------------                            --------------------------
 ! Name  Definition              Value          Derivative Info.                !
 --------------------------------------------------------------------------------
 ! R1    R(1,2)                  1.5284         estimate D2E/DX2                !
 ! R2    R(1,9)                  1.1031         estimate D2E/DX2                !
 ! R3    R(1,10)                 1.1053         estimate D2E/DX2                !
 ! R4    R(1,11)                 1.1035         estimate D2E/DX2                !
 ! R5    R(2,3)                  1.5436         estimate D2E/DX2                !
 ! R6    R(2,12)                 1.1039         estimate D2E/DX2                !
 ! R7    R(2,13)                 1.1056         estimate D2E/DX2                !
 ! R8    R(3,4)                  1.5323         estimate D2E/DX2                !
 ! R9    R(3,5)                  1.5457         estimate D2E/DX2                !
 ! R10   R(3,7)                  1.5401         estimate D2E/DX2                !
 ! R11   R(4,14)                 1.1042         estimate D2E/DX2                !
 ! R12   R(4,15)                 1.1038         estimate D2E/DX2                !
 ! R13   R(4,16)                 1.1051         estimate D2E/DX2                !
 ! R14   R(5,6)                  1.399          estimate D2E/DX2                !
 ! R15   R(5,17)                 1.1047         estimate D2E/DX2                !
 ! R16   R(5,18)                 1.1131         estimate D2E/DX2                !
 ! R17   R(6,19)                 0.9729         estimate D2E/DX2                !
 ! R18   R(7,8)                  1.4167         estimate D2E/DX2                !
 ! R19   R(7,20)                 1.1031         estimate D2E/DX2                !
 ! R20   R(7,21)                 1.1079         estimate D2E/DX2                !
 ! R21   R(8,22)                 0.9672         estimate D2E/DX2                !
 ! A1    A(2,1,9)              110.2836         estimate D2E/DX2                !
 ! A2    A(2,1,10)             112.4804         estimate D2E/DX2                !
 ! A3    A(2,1,11)             112.2093         estimate D2E/DX2                !
 ! A4    A(9,1,10)             106.9048         estimate D2E/DX2                !
 ! A5    A(9,1,11)             107.3609         estimate D2E/DX2                !
 ! A6    A(10,1,11)            107.3169         estimate D2E/DX2                !
 ! A7    A(1,2,3)              116.6764         estimate D2E/DX2                !
 ! A8    A(1,2,12)             109.7807         estimate D2E/DX2                !
 ! A9    A(1,2,13)             108.9877         estimate D2E/DX2                !
 ! A10   A(3,2,12)             108.2803         estimate D2E/DX2                !
 ! A11   A(3,2,13)             107.578          estimate D2E/DX2                !
 ! A12   A(12,2,13)            104.8779         estimate D2E/DX2                !
 ! A13   A(2,3,4)              111.3345         estimate D2E/DX2                !
 ! A14   A(2,3,5)              108.6339         estimate D2E/DX2                !
 ! A15   A(2,3,7)              111.504          estimate D2E/DX2                !
 ! A16   A(4,3,5)              108.3736         estimate D2E/DX2                !
 ! A17   A(4,3,7)              107.9174         estimate D2E/DX2                !
 ! A18   A(5,3,7)              109.0052         estimate D2E/DX2                !
 ! A19   A(3,4,14)             110.7659         estimate D2E/DX2                !
 ! A20   A(3,4,15)             111.9264         estimate D2E/DX2                !
 ! A21   A(3,4,16)             111.1353         estimate D2E/DX2                !
 ! A22   A(14,4,15)            107.7413         estimate D2E/DX2                !
 ! A23   A(14,4,16)            107.7019         estimate D2E/DX2                !
 ! A24   A(15,4,16)            107.3796         estimate D2E/DX2                !
 ! A25   A(3,5,6)              114.2374         estimate D2E/DX2                !
 ! A26   A(3,5,17)             109.1943         estimate D2E/DX2                !
 ! A27   A(3,5,18)             108.2128         estimate D2E/DX2                !
 ! A28   A(6,5,17)             106.7814         estimate D2E/DX2                !
 ! A29   A(6,5,18)             111.2579         estimate D2E/DX2                !
 ! A30   A(17,5,18)            106.8937         estimate D2E/DX2                !
 ! A31   A(5,6,19)             107.0056         estimate D2E/DX2                !
 ! A32   A(3,7,8)              113.9184         estimate D2E/DX2                !
 ! A33   A(3,7,20)             109.2937         estimate D2E/DX2                !
 ! A34   A(3,7,21)             110.4643         estimate D2E/DX2                !
 ! A35   A(8,7,20)             105.4274         estimate D2E/DX2                !
 ! A36   A(8,7,21)             110.5136         estimate D2E/DX2                !
 ! A37   A(20,7,21)            106.8639         estimate D2E/DX2                !
 ! A38   A(7,8,22)             109.0734         estimate D2E/DX2                !
 ! D1    D(9,1,2,3)           -176.6087         estimate D2E/DX2                !
 ! D2    D(9,1,2,12)            59.7676         estimate D2E/DX2                !
 ! D3    D(9,1,2,13)           -54.5824         estimate D2E/DX2                !
 ! D4    D(10,1,2,3)            64.1532         estimate D2E/DX2                !
 ! D5    D(10,1,2,12)          -59.4706         estimate D2E/DX2                !
 ! D6    D(10,1,2,13)         -173.8205         estimate D2E/DX2                !
 ! D7    D(11,1,2,3)           -56.9716         estimate D2E/DX2                !
 ! D8    D(11,1,2,12)          179.4047         estimate D2E/DX2                !
 ! D9    D(11,1,2,13)           65.0547         estimate D2E/DX2                !
 ! D10   D(1,2,3,4)             66.9793         estimate D2E/DX2                !
 ! D11   D(1,2,3,5)           -173.7574         estimate D2E/DX2                !
 ! D12   D(1,2,3,7)            -53.6095         estimate D2E/DX2                !
 ! D13   D(12,2,3,4)          -168.6298         estimate D2E/DX2                !
 ! D14   D(12,2,3,5)           -49.3666         estimate D2E/DX2                !
 ! D15   D(12,2,3,7)            70.7814         estimate D2E/DX2                !
 ! D16   D(13,2,3,4)           -55.7811         estimate D2E/DX2                !
 ! D17   D(13,2,3,5)            63.4822         estimate D2E/DX2                !
 ! D18   D(13,2,3,7)          -176.3699         estimate D2E/DX2                !
 ! D19   D(2,3,4,14)            56.5893         estimate D2E/DX2                !
 ! D20   D(2,3,4,15)           -63.6715         estimate D2E/DX2                !
 ! D21   D(2,3,4,16)           176.274          estimate D2E/DX2                !
 ! D22   D(5,3,4,14)           -62.829          estimate D2E/DX2                !
 ! D23   D(5,3,4,15)           176.9103         estimate D2E/DX2                !
 ! D24   D(5,3,4,16)            56.8557         estimate D2E/DX2                !
 ! D25   D(7,3,4,14)           179.2646         estimate D2E/DX2                !
 ! D26   D(7,3,4,15)            59.0039         estimate D2E/DX2                !
 ! D27   D(7,3,4,16)           -61.0507         estimate D2E/DX2                !
 ! D28   D(2,3,5,6)             57.0269         estimate D2E/DX2                !
 ! D29   D(2,3,5,17)           -62.445          estimate D2E/DX2                !
 ! D30   D(2,3,5,18)          -178.4516         estimate D2E/DX2                !
 ! D31   D(4,3,5,6)            178.1287         estimate D2E/DX2                !
 ! D32   D(4,3,5,17)            58.6568         estimate D2E/DX2                !
 ! D33   D(4,3,5,18)           -57.3498         estimate D2E/DX2                !
 ! D34   D(7,3,5,6)            -64.6608         estimate D2E/DX2                !
 ! D35   D(7,3,5,17)           175.8673         estimate D2E/DX2                !
 ! D36   D(7,3,5,18)            59.8607         estimate D2E/DX2                !
 ! D37   D(2,3,7,8)            -58.6846         estimate D2E/DX2                !
 ! D38   D(2,3,7,20)          -176.3035         estimate D2E/DX2                !
 ! D39   D(2,3,7,21)            66.3929         estimate D2E/DX2                !
 ! D40   D(4,3,7,8)            178.7439         estimate D2E/DX2                !
 ! D41   D(4,3,7,20)            61.125          estimate D2E/DX2                !
 ! D42   D(4,3,7,21)           -56.1785         estimate D2E/DX2                !
 ! D43   D(5,3,7,8)             61.2445         estimate D2E/DX2                !
 ! D44   D(5,3,7,20)           -56.3745         estimate D2E/DX2                !
 ! D45   D(5,3,7,21)          -173.678          estimate D2E/DX2                !
 ! D46   D(3,5,6,19)            48.5615         estimate D2E/DX2                !
 ! D47   D(17,5,6,19)          169.3824         estimate D2E/DX2                !
 ! D48   D(18,5,6,19)          -74.3219         estimate D2E/DX2                !
 ! D49   D(3,7,8,22)            70.5996         estimate D2E/DX2                !
 ! D50   D(20,7,8,22)         -169.5751         estimate D2E/DX2                !
 ! D51   D(21,7,8,22)          -54.4517         estimate D2E/DX2                !
 --------------------------------------------------------------------------------
 Number of steps in this run=    120 maximum allowed number of steps=    132.
 GradGradGradGradGradGradGradGradGradGradGradGradGradGradGradGradGradGrad

                    Distance matrix (angstroms):
                    1          2          3          4          5
     1  C    0.000000
     2  C    1.528399   0.000000
     3  C    2.614774   1.543596   0.000000
     4  C    3.185359   2.540018   1.532310   0.000000
     5  C    3.925019   2.509315   1.545719   2.496075   0.000000
     6  O    4.334186   2.926588   2.474278   3.771776   1.399036
     7  C    3.066662   2.548976   1.540055   2.484297   2.512260
     8  O    3.534627   2.998349   2.479497   3.776873   2.974028
     9  H    1.103127   2.172986   3.549972   4.136138   4.681506
    10  H    1.105337   2.202206   2.950970   3.681821   4.296563
    11  H    1.103468   2.197416   2.893394   2.896516   4.326670
    12  H    2.167162   1.103908   2.161080   3.472578   2.631854
    13  H    2.158219   1.105585   2.153089   2.717560   2.738814
    14  H    3.520690   2.770482   2.183338   1.104185   2.765440
    15  H    2.918326   2.844318   2.197593   1.103771   3.480395
    16  H    4.204731   3.507063   2.188696   1.105105   2.721703
    17  H    4.225507   2.754315   2.175416   2.710367   1.104709
    18  H    4.761223   3.470801   2.168831   2.687366   1.113128
    19  H    4.261928   3.064391   2.547567   3.964840   1.923505
    20  H    4.106819   3.497656   2.170553   2.718235   2.707893
    21  H    2.794863   2.856946   2.189110   2.696792   3.483855
    22  H    3.020673   2.731475   2.742028   4.092799   3.419832
                    6          7          8          9         10
     6  O    0.000000
     7  C    3.005053   0.000000
     8  O    2.769374   1.416686   0.000000
     9  H    4.923444   4.093195   4.357343   0.000000
    10  H    4.546826   2.817487   3.054713   1.774197   0.000000
    11  H    5.016222   3.392037   4.193642   1.777911   1.779190
    12  H    2.473434   2.861297   2.768178   2.507151   2.539333
    13  H    3.278752   3.484488   4.018431   2.462745   3.098187
    14  H    4.064632   3.462266   4.635731   4.273662   4.267352
    15  H    4.642528   2.738312   4.079963   3.888511   3.329449
    16  H    4.052497   2.743995   4.067682   5.199773   4.554721
    17  H    2.017458   3.471217   4.001736   4.833954   4.830193
    18  H    2.079809   2.725599   3.311620   5.622604   5.030794
    19  H    0.972855   2.545265   1.958093   4.917582   4.232950
    20  H    3.313544   1.103122   2.013785   5.158118   3.875743
    21  H    4.043755   1.107874   2.081920   3.855877   2.343011
    22  H    3.103665   1.959092   0.967217   3.691027   2.432082
                   11         12         13         14         15
    11  H    0.000000
    12  H    3.102125   0.000000
    13  H    2.559249   1.751475   0.000000
    14  H    3.179615   3.719268   2.484119   0.000000
    15  H    2.314962   3.875056   3.128881   1.783340   0.000000
    16  H    3.908541   4.317006   3.722419   1.783970   1.779964
    17  H    4.543238   2.961599   2.519751   2.515263   3.748554
    18  H    5.023616   3.674710   3.734656   3.075025   3.700461
    19  H    4.997838   2.543106   3.699973   4.484315   4.697542
    20  H    4.288755   3.818539   4.305097   3.738605   3.079788
    21  H    2.910800   3.348329   3.820315   3.722395   2.480836
    22  H    3.839336   2.351357   3.797270   4.865326   4.269045
                   16         17         18         19         20
    16  H    0.000000
    17  H    3.026697   0.000000
    18  H    2.437954   1.781606   0.000000
    19  H    4.207179   2.815749   2.403380   0.000000
    20  H    2.511887   3.706536   2.450022   2.861362   0.000000
    21  H    3.049226   4.326789   3.712141   3.578631   1.775763
    22  H    4.597301   4.319338   3.989020   2.380172   2.825576
                   21         22
    21  H    0.000000
    22  H    2.303896   0.000000
 Framework group  C1[X(C6H14O2)]
 Deg. of freedom    60
                         Standard orientation:                         
 ---------------------------------------------------------------------
 Center     Atomic      Atomic             Coordinates (Angstroms)
 Number     Number       Type             X           Y           Z
 ---------------------------------------------------------------------
      1          6           0        2.268184   -0.635005   -0.671838
      2          6           0        0.924867    0.014494   -1.002977
      3          6           0        0.076550    0.499870    0.191785
      4          6           0        0.748777    1.673044    0.912720
      5          6           0       -1.295744    0.975105   -0.337562
      6          8           0       -2.001204    0.004585   -1.057088
      7          6           0       -0.144800   -0.624429    1.220729
      8          8           0       -0.789641   -1.769168    0.690868
      9          1           0        2.810649   -0.885706   -1.599076
     10          1           0        2.153989   -1.575253   -0.102046
     11          1           0        2.918780    0.031018   -0.079572
     12          1           0        0.311943   -0.680139   -1.603329
     13          1           0        1.098699    0.883511   -1.663969
     14          1           0        0.941940    2.504279    0.212034
     15          1           0        1.713439    1.381812    1.363189
     16          1           0        0.108493    2.060779    1.725712
     17          1           0       -1.145358    1.831125   -1.019468
     18          1           0       -1.890792    1.349632    0.525399
     19          1           0       -1.987629   -0.809829   -0.525118
     20          1           0       -0.808001   -0.258982    2.022908
     21          1           0        0.813910   -0.905612    1.699473
     22          1           0       -0.180313   -2.228436    0.096477
 ---------------------------------------------------------------------
 Rotational constants (GHZ):           2.1938816           1.6656116           1.4589531
   140 basis functions,   256 primitive gaussians,   148 cartesian basis functions
    33 alpha electrons       33 beta electrons
       nuclear repulsion energy       433.6493171639 Hartrees.
 NAtoms=   22 NActive=   22 NUniq=   22 SFac= 1.00D+00 NAtFMM=   60 NAOKFM=F Big=F
 Nuclear repulsion after empirical dispersion term =      433.6325100356 Hartrees.
   1 Symmetry operations used in ECPInt.
 ECPInt:  NShTT=    2926 NPrTT=   11774 LenC2=    2914 LenP2D=    9454.
 LDataN:  DoStor=T MaxTD1= 4 Len=   56
 ExpMin= 1.22D-01 ExpMax= 2.27D+03 ExpMxC= 3.41D+02 IAcc=3 IRadAn=         5 AccDes= 0.00D+00
 Harris functional with IExCor= 4639 and IRadAn=       5 diagonalized for initial guess.
 HarFok:  IExCor= 4639 AccDes= 0.00D+00 IRadAn=         5 IDoV= 1 UseB2=F ITyADJ=14
 ICtDFT=  3500011 ScaDFX=  1.000000  1.000000  1.000000  1.000000
 FoFCou: FMM=F IPFlag=           0 FMFlag=      100000 FMFlg1=           0
         NFxFlg=           0 DoJE=T BraDBF=F KetDBF=T FulRan=T
         wScrn=  0.000000 ICntrl=       500 IOpCl=  0 I1Cent=   200000004 NGrid=           0
         NMat0=    1 NMatS0=      1 NMatT0=    0 NMatD0=    1 NMtDS0=    0 NMtDT0=    0
 Petite list used in FoFCou.
     Minimum is close to point  3 DX= -4.34D-03 DF= -3.20D-06 DXR=  7.29D-03 DFR=  5.27D-05 which will be used.
     Accept linear search using points  2 and  3.
     Accept linear search using points  1 and  2.
     Accept linear search using points  1 and  2.
     Minimum is close to point  2 DX= -3.99D-05 DF= -5.68D-14 DXR=  3.99D-05 DFR=  1.21D-09 which will be used.
 SCF Done:  E(RwB97XD) =  -387.075244855     a.u. after    7 cycles
            Convg  =    0.1406D-08                    31 Fock formations.
              S**2 =  0.0000                  -V/T =  2.0096

 **********************************************************************

            Population analysis using the SCF Density.

 **********************************************************************

 Orbital symmetries:
       Occupied  (A) (A) (A) (A) (A) (A) (A) (A) (A) (A) (A) (A)
                 (A) (A) (A) (A) (A) (A) (A) (A) (A) (A) (A) (A)
                 (A) (A) (A) (A) (A) (A) (A) (A) (A)
       Virtual   (A) (A) (A) (A) (A) (A) (A) (A) (A) (A) (A) (A)
                 (A) (A) (A) (A) (A) (A) (A) (A) (A) (A) (A) (A)
                 (A) (A) (A) (A) (A) (A) (A) (A) (A) (A) (A) (A)
                 (A) (A) (A) (A) (A) (A) (A) (A) (A) (A) (A) (A)
                 (A) (A) (A) (A) (A) (A) (A) (A) (A) (A) (A) (A)
                 (A) (A) (A) (A) (A) (A) (A) (A) (A) (A) (A) (A)
                 (A) (A) (A) (A) (A) (A) (A) (A) (A) (A) (A) (A)
                 (A) (A) (A) (A) (A) (A) (A) (A) (A) (A) (A) (A)
                 (A) (A) (A) (A) (A) (A) (A) (A) (A) (A) (A)
 The electronic state is 1-A.
 Alpha  occ. eigenvalues --  -19.27206 -19.22858 -10.34549 -10.32804 -10.30831
 Alpha  occ. eigenvalues --  -10.29350 -10.29305 -10.29105  -1.13318  -1.09457
 Alpha  occ. eigenvalues --   -0.91854  -0.83774  -0.77495  -0.76120  -0.72199
 Alpha  occ. eigenvalues --   -0.64969  -0.62244  -0.57815  -0.56101  -0.53915
 Alpha  occ. eigenvalues --   -0.53302  -0.50672  -0.49719  -0.48356  -0.47652
 Alpha  occ. eigenvalues --   -0.46999  -0.44534  -0.43233  -0.42987  -0.40846
 Alpha  occ. eigenvalues --   -0.39356  -0.35638  -0.33589
 Alpha virt. eigenvalues --    0.11053   0.13391   0.16125   0.16716   0.18524
 Alpha virt. eigenvalues --    0.19059   0.20311   0.21292   0.22393   0.23037
 Alpha virt. eigenvalues --    0.23881   0.25074   0.25631   0.27558   0.28891
 Alpha virt. eigenvalues --    0.29522   0.30359   0.31283   0.32633   0.34715
 Alpha virt. eigenvalues --    0.35253   0.48795   0.50182   0.51996   0.55535
 Alpha virt. eigenvalues --    0.56382   0.57513   0.58928   0.63217   0.65307
 Alpha virt. eigenvalues --    0.66906   0.68532   0.70112   0.70610   0.72443
 Alpha virt. eigenvalues --    0.73230   0.75342   0.76851   0.77139   0.77899
 Alpha virt. eigenvalues --    0.78947   0.79359   0.79797   0.80330   0.82047
 Alpha virt. eigenvalues --    0.82379   0.83034   0.84129   0.84424   0.84691
 Alpha virt. eigenvalues --    0.85629   0.87767   0.97875   1.00461   1.04111
 Alpha virt. eigenvalues --    1.08608   1.13115   1.16035   1.19534   1.22051
 Alpha virt. eigenvalues --    1.24777   1.27021   1.30182   1.34415   1.42279
 Alpha virt. eigenvalues --    1.48522   1.53254   1.62266   1.64883   1.71849
 Alpha virt. eigenvalues --    1.74273   1.81590   1.86696   1.89103   1.91453
 Alpha virt. eigenvalues --    1.95237   1.97946   2.00450   2.06575   2.07710
 Alpha virt. eigenvalues --    2.09512   2.11919   2.14415   2.18674   2.20451
 Alpha virt. eigenvalues --    2.23333   2.26105   2.26516   2.29285   2.35265
 Alpha virt. eigenvalues --    2.36967   2.48015   2.57454   2.68204   2.68813
 Alpha virt. eigenvalues --    2.71677   2.75149   2.77978   2.80914   2.89586
 Alpha virt. eigenvalues --    2.97024   3.03876   3.07486   3.10265   3.13766
 Alpha virt. eigenvalues --    3.45364   3.50586
          Condensed to atoms (all electrons):
 Mulliken charges:
               1
     1  C   -0.319407
     2  C   -0.206201
     3  C   -0.317410
     4  C   -0.286678
     5  C    0.106184
     6  O   -0.503255
     7  C    0.040517
     8  O   -0.500962
     9  H    0.129547
    10  H    0.104459
    11  H    0.122744
    12  H    0.109988
    13  H    0.106421
    14  H    0.122999
    15  H    0.123725
    16  H    0.119249
    17  H    0.093590
    18  H    0.081003
    19  H    0.323064
    20  H    0.108942
    21  H    0.108475
    22  H    0.333003
 Sum of Mulliken charges =   0.00000
 Mulliken charges with hydrogens summed into heavy atoms:
               1
     1  C    0.037344
     2  C    0.010209
     3  C   -0.317410
     4  C    0.079295
     5  C    0.280778
     6  O   -0.180191
     7  C    0.257934
     8  O   -0.167959
 Electronic spatial extent (au):  <R**2>=           1057.9537
 Charge=              0.0000 electrons
 Dipole moment (field-independent basis, Debye):
    X=              2.5649    Y=             -0.1235    Z=              1.0530  Tot=              2.7754
 Evaluate density.
 Using the total density.
 Monte-Carlo method of calculating molar volume:
 based on  0.001 e/bohr**3 density envelope.
 Number of points per bohr**3 =  100 CutOff= 1.00D-04
 Using the SCF density.
 There are      1829 points.  Will hold      1829 in memory.
 LenV=  1048277096 MDV=  1048576000.
 Box volume = 6123.683 fraction occupied=0.185
 Integrated density= 5.9841144400959507D+01 error=-6.1588555990404927D+00
 Molar volume = 1131.659 bohr**3/mol (100.988 cm**3/mol)
 Recommended a0 for SCRF calculation =  4.27 angstrom (  8.06 bohr)
   1 Symmetry operations used in ECPInt.
 ECPInt:  NShTT=    2926 NPrTT=   11774 LenC2=    2914 LenP2D=    9454.
 LDataN:  DoStor=T MaxTD1= 5 Len=  102
 Calling FoFJK, ICntrl=      2127 FMM=F ISym2X=0 I1Cent= 0 IOpClX= 0 NMat=1 NMatS=1 NMatT=0.

 GradGradGradGradGradGradGradGradGradGradGradGradGradGradGradGradGradGrad
 FormGI is forming the generalized inverse of G from B-inverse, IUseBI=4.
 Internal  Forces:  Max     0.000001721 RMS     0.000000271
 Step number   1 out of a maximum of  120
 All quantities printed in internal units (Hartrees-Bohrs-Radians)
 Mixed Optimization -- En-DIIS/RFO-DIIS
 Second derivative matrix not updated -- first step.
 ITU=  0
     Eigenvalues ---    0.00230   0.00230   0.00236   0.00339   0.00390
     Eigenvalues ---    0.01471   0.01705   0.03080   0.04423   0.04533
     Eigenvalues ---    0.04598   0.04680   0.04713   0.05154   0.05293
     Eigenvalues ---    0.05401   0.05507   0.05541   0.05713   0.05859
     Eigenvalues ---    0.09033   0.11853   0.11884   0.12701   0.14098
     Eigenvalues ---    0.14120   0.14173   0.14604   0.16000   0.16000
     Eigenvalues ---    0.16000   0.16000   0.16000   0.16000   0.16000
     Eigenvalues ---    0.16000   0.21932   0.22036   0.22058   0.28018
     Eigenvalues ---    0.28203   0.28514   0.29211   0.29572   0.32271
     Eigenvalues ---    0.32826   0.33072   0.33099   0.33124   0.33167
     Eigenvalues ---    0.33224   0.33254   0.33268   0.33302   0.33339
     Eigenvalues ---    0.33339   0.42963   0.45781   0.52798   0.53950
 Linear search not attempted -- first point.
 Iteration  1 RMS(Cart)=  0.00000557 RMS(Int)=  0.00000000
 Iteration  2 RMS(Cart)=  0.00000000 RMS(Int)=  0.00000000
 Variable       Old X    -DE/DX   Delta X   Delta X   Delta X     New X
                                 (Linear)    (Quad)   (Total)
    R1        2.88825   0.00000   0.00000   0.00000   0.00000   2.88826
    R2        2.08461   0.00000   0.00000   0.00000   0.00000   2.08461
    R3        2.08878  -0.00000   0.00000  -0.00000  -0.00000   2.08878
    R4        2.08525   0.00000   0.00000   0.00000   0.00000   2.08525
    R5        2.91697   0.00000   0.00000   0.00000   0.00000   2.91697
    R6        2.08608   0.00000   0.00000   0.00000   0.00000   2.08608
    R7        2.08925  -0.00000   0.00000  -0.00000  -0.00000   2.08925
    R8        2.89565  -0.00000   0.00000  -0.00000  -0.00000   2.89564
    R9        2.92099   0.00000   0.00000   0.00000   0.00000   2.92099
   R10        2.91028   0.00000   0.00000   0.00000   0.00000   2.91029
   R11        2.08661   0.00000   0.00000   0.00000   0.00000   2.08661
   R12        2.08583  -0.00000   0.00000  -0.00000  -0.00000   2.08582
   R13        2.08835   0.00000   0.00000   0.00000   0.00000   2.08835
   R14        2.64379  -0.00000   0.00000  -0.00000  -0.00000   2.64379
   R15        2.08760  -0.00000   0.00000  -0.00000  -0.00000   2.08760
   R16        2.10351   0.00000   0.00000   0.00000   0.00000   2.10351
   R17        1.83843  -0.00000   0.00000  -0.00000  -0.00000   1.83843
   R18        2.67715  -0.00000   0.00000  -0.00000  -0.00000   2.67715
   R19        2.08460  -0.00000   0.00000  -0.00000  -0.00000   2.08460
   R20        2.09358  -0.00000   0.00000  -0.00000  -0.00000   2.09358
   R21        1.82777   0.00000   0.00000   0.00000   0.00000   1.82778
    A1        1.92481   0.00000   0.00000   0.00000   0.00000   1.92481
    A2        1.96315   0.00000   0.00000  -0.00000  -0.00000   1.96315
    A3        1.95842   0.00000   0.00000  -0.00000  -0.00000   1.95842
    A4        1.86584  -0.00000   0.00000  -0.00000  -0.00000   1.86584
    A5        1.87380  -0.00000   0.00000  -0.00000  -0.00000   1.87380
    A6        1.87303  -0.00000   0.00000  -0.00000  -0.00000   1.87303
    A7        2.03639   0.00000   0.00000   0.00000   0.00000   2.03639
    A8        1.91603   0.00000   0.00000   0.00000   0.00000   1.91604
    A9        1.90219  -0.00000   0.00000  -0.00000  -0.00000   1.90219
   A10        1.88985  -0.00000   0.00000  -0.00000  -0.00000   1.88985
   A11        1.87759  -0.00000   0.00000  -0.00000  -0.00000   1.87759
   A12        1.83046   0.00000   0.00000   0.00000   0.00000   1.83046
   A13        1.94315  -0.00000   0.00000  -0.00000  -0.00000   1.94315
   A14        1.89602  -0.00000   0.00000  -0.00000  -0.00000   1.89602
   A15        1.94611   0.00000   0.00000   0.00000   0.00000   1.94611
   A16        1.89148   0.00000   0.00000  -0.00000  -0.00000   1.89148
   A17        1.88351  -0.00000   0.00000  -0.00000  -0.00000   1.88351
   A18        1.90250   0.00000   0.00000   0.00000   0.00000   1.90250
   A19        1.93323   0.00000   0.00000   0.00000   0.00000   1.93323
   A20        1.95348   0.00000   0.00000   0.00000   0.00000   1.95349
   A21        1.93968  -0.00000   0.00000  -0.00000  -0.00000   1.93968
   A22        1.88044   0.00000   0.00000   0.00000   0.00000   1.88044
   A23        1.87975  -0.00000   0.00000  -0.00000  -0.00000   1.87975
   A24        1.87413  -0.00000   0.00000  -0.00000  -0.00000   1.87413
   A25        1.99382   0.00000   0.00000   0.00000   0.00000   1.99382
   A26        1.90580  -0.00000   0.00000   0.00000   0.00000   1.90580
   A27        1.88867  -0.00000   0.00000  -0.00000  -0.00000   1.88867
   A28        1.86369  -0.00000   0.00000   0.00000   0.00000   1.86369
   A29        1.94182  -0.00000   0.00000  -0.00000  -0.00000   1.94182
   A30        1.86565  -0.00000   0.00000  -0.00000  -0.00000   1.86565
   A31        1.86760  -0.00000   0.00000  -0.00000  -0.00000   1.86760
   A32        1.98825   0.00000   0.00000   0.00000   0.00000   1.98825
   A33        1.90754  -0.00000   0.00000  -0.00000  -0.00000   1.90753
   A34        1.92797  -0.00000   0.00000   0.00000   0.00000   1.92797
   A35        1.84006  -0.00000   0.00000  -0.00000  -0.00000   1.84005
   A36        1.92883  -0.00000   0.00000  -0.00000  -0.00000   1.92883
   A37        1.86513   0.00000   0.00000   0.00000   0.00000   1.86513
   A38        1.90369  -0.00000   0.00000  -0.00000  -0.00000   1.90369
    D1       -3.08240   0.00000   0.00000   0.00000   0.00000  -3.08240
    D2        1.04314   0.00000   0.00000   0.00000   0.00000   1.04314
    D3       -0.95264  -0.00000   0.00000   0.00000   0.00000  -0.95264
    D4        1.11968   0.00000   0.00000   0.00000   0.00000   1.11969
    D5       -1.03796  -0.00000   0.00000   0.00000   0.00000  -1.03796
    D6       -3.03374  -0.00000   0.00000  -0.00000  -0.00000  -3.03374
    D7       -0.99434   0.00000   0.00000   0.00000   0.00000  -0.99434
    D8        3.13120   0.00000   0.00000   0.00000   0.00000   3.13120
    D9        1.13542  -0.00000   0.00000   0.00000   0.00000   1.13542
   D10        1.16901  -0.00000   0.00000  -0.00000  -0.00000   1.16901
   D11       -3.03264  -0.00000   0.00000  -0.00000  -0.00000  -3.03264
   D12       -0.93566  -0.00000   0.00000  -0.00000  -0.00000  -0.93567
   D13       -2.94315   0.00000   0.00000  -0.00000  -0.00000  -2.94315
   D14       -0.86161   0.00000   0.00000  -0.00000  -0.00000  -0.86161
   D15        1.23537   0.00000   0.00000   0.00000   0.00000   1.23537
   D16       -0.97356  -0.00000   0.00000  -0.00000  -0.00000  -0.97357
   D17        1.10797  -0.00000   0.00000  -0.00000  -0.00000   1.10797
   D18       -3.07824   0.00000   0.00000  -0.00000  -0.00000  -3.07824
   D19        0.98767  -0.00000   0.00000  -0.00001  -0.00001   0.98766
   D20       -1.11128  -0.00000   0.00000  -0.00001  -0.00001  -1.11129
   D21        3.07656  -0.00000   0.00000  -0.00001  -0.00001   3.07655
   D22       -1.09657   0.00000   0.00000  -0.00001  -0.00001  -1.09658
   D23        3.08767  -0.00000   0.00000  -0.00001  -0.00001   3.08766
   D24        0.99232   0.00000   0.00000  -0.00001  -0.00001   0.99231
   D25        3.12876   0.00000   0.00000  -0.00001  -0.00001   3.12875
   D26        1.02981  -0.00000   0.00000  -0.00001  -0.00001   1.02980
   D27       -1.06554  -0.00000   0.00000  -0.00001  -0.00001  -1.06554
   D28        0.99531   0.00000   0.00000   0.00001   0.00001   0.99532
   D29       -1.08987  -0.00000   0.00000   0.00001   0.00001  -1.08986
   D30       -3.11457   0.00000   0.00000   0.00001   0.00001  -3.11456
   D31        3.10893   0.00000   0.00000   0.00001   0.00001   3.10894
   D32        1.02375  -0.00000   0.00000   0.00001   0.00001   1.02376
   D33       -1.00094   0.00000   0.00000   0.00001   0.00001  -1.00094
   D34       -1.12854   0.00000   0.00000   0.00001   0.00001  -1.12854
   D35        3.06946  -0.00000   0.00000   0.00000   0.00000   3.06947
   D36        1.04477   0.00000   0.00000   0.00001   0.00001   1.04477
   D37       -1.02424  -0.00000   0.00000  -0.00000  -0.00000  -1.02424
   D38       -3.07708   0.00000   0.00000   0.00000   0.00000  -3.07708
   D39        1.15878  -0.00000   0.00000   0.00000   0.00000   1.15878
   D40        3.11967  -0.00000   0.00000   0.00000   0.00000   3.11967
   D41        1.06683   0.00000   0.00000   0.00000   0.00000   1.06684
   D42       -0.98050   0.00000   0.00000   0.00000   0.00000  -0.98050
   D43        1.06892  -0.00000   0.00000   0.00000   0.00000   1.06892
   D44       -0.98392   0.00000   0.00000   0.00000   0.00000  -0.98392
   D45       -3.03125   0.00000   0.00000   0.00000   0.00000  -3.03125
   D46        0.84756  -0.00000   0.00000  -0.00000  -0.00000   0.84755
   D47        2.95628   0.00000   0.00000  -0.00000  -0.00000   2.95628
   D48       -1.29716  -0.00000   0.00000  -0.00000  -0.00000  -1.29716
   D49        1.23220   0.00000   0.00000   0.00000   0.00000   1.23220
   D50       -2.95964  -0.00000   0.00000   0.00000   0.00000  -2.95964
   D51       -0.95036   0.00000   0.00000   0.00000   0.00000  -0.95036
         Item               Value     Threshold  Converged?
 Maximum Force            0.000002     0.000015     YES
 RMS     Force            0.000000     0.000010     YES
 Maximum Displacement     0.000018     0.000060     YES
 RMS     Displacement     0.000006     0.000040     YES
 Optimization completed.
    -- Stationary point found.
                           ----------------------------
                           !   Optimized Parameters   !
                           ! (Angstroms and Degrees)  !
 --------------------------                            --------------------------
 ! Name  Definition              Value          Derivative Info.                !
 --------------------------------------------------------------------------------
 ! R1    R(1,2)                  1.5284         -DE/DX =    0.0                 !
 ! R2    R(1,9)                  1.1031         -DE/DX =    0.0                 !
 ! R3    R(1,10)                 1.1053         -DE/DX =    0.0                 !
 ! R4    R(1,11)                 1.1035         -DE/DX =    0.0                 !
 ! R5    R(2,3)                  1.5436         -DE/DX =    0.0                 !
 ! R6    R(2,12)                 1.1039         -DE/DX =    0.0                 !
 ! R7    R(2,13)                 1.1056         -DE/DX =    0.0                 !
 ! R8    R(3,4)                  1.5323         -DE/DX =    0.0                 !
 ! R9    R(3,5)                  1.5457         -DE/DX =    0.0                 !
 ! R10   R(3,7)                  1.5401         -DE/DX =    0.0                 !
 ! R11   R(4,14)                 1.1042         -DE/DX =    0.0                 !
 ! R12   R(4,15)                 1.1038         -DE/DX =    0.0                 !
 ! R13   R(4,16)                 1.1051         -DE/DX =    0.0                 !
 ! R14   R(5,6)                  1.399          -DE/DX =    0.0                 !
 ! R15   R(5,17)                 1.1047         -DE/DX =    0.0                 !
 ! R16   R(5,18)                 1.1131         -DE/DX =    0.0                 !
 ! R17   R(6,19)                 0.9729         -DE/DX =    0.0                 !
 ! R18   R(7,8)                  1.4167         -DE/DX =    0.0                 !
 ! R19   R(7,20)                 1.1031         -DE/DX =    0.0                 !
 ! R20   R(7,21)                 1.1079         -DE/DX =    0.0                 !
 ! R21   R(8,22)                 0.9672         -DE/DX =    0.0                 !
 ! A1    A(2,1,9)              110.2836         -DE/DX =    0.0                 !
 ! A2    A(2,1,10)             112.4804         -DE/DX =    0.0                 !
 ! A3    A(2,1,11)             112.2093         -DE/DX =    0.0                 !
 ! A4    A(9,1,10)             106.9048         -DE/DX =    0.0                 !
 ! A5    A(9,1,11)             107.3609         -DE/DX =    0.0                 !
 ! A6    A(10,1,11)            107.3169         -DE/DX =    0.0                 !
 ! A7    A(1,2,3)              116.6764         -DE/DX =    0.0                 !
 ! A8    A(1,2,12)             109.7807         -DE/DX =    0.0                 !
 ! A9    A(1,2,13)             108.9877         -DE/DX =    0.0                 !
 ! A10   A(3,2,12)             108.2803         -DE/DX =    0.0                 !
 ! A11   A(3,2,13)             107.578          -DE/DX =    0.0                 !
 ! A12   A(12,2,13)            104.8779         -DE/DX =    0.0                 !
 ! A13   A(2,3,4)              111.3345         -DE/DX =    0.0                 !
 ! A14   A(2,3,5)              108.6339         -DE/DX =    0.0                 !
 ! A15   A(2,3,7)              111.504          -DE/DX =    0.0                 !
 ! A16   A(4,3,5)              108.3736         -DE/DX =    0.0                 !
 ! A17   A(4,3,7)              107.9174         -DE/DX =    0.0                 !
 ! A18   A(5,3,7)              109.0052         -DE/DX =    0.0                 !
 ! A19   A(3,4,14)             110.7659         -DE/DX =    0.0                 !
 ! A20   A(3,4,15)             111.9264         -DE/DX =    0.0                 !
 ! A21   A(3,4,16)             111.1353         -DE/DX =    0.0                 !
 ! A22   A(14,4,15)            107.7413         -DE/DX =    0.0                 !
 ! A23   A(14,4,16)            107.7019         -DE/DX =    0.0                 !
 ! A24   A(15,4,16)            107.3796         -DE/DX =    0.0                 !
 ! A25   A(3,5,6)              114.2374         -DE/DX =    0.0                 !
 ! A26   A(3,5,17)             109.1943         -DE/DX =    0.0                 !
 ! A27   A(3,5,18)             108.2128         -DE/DX =    0.0                 !
 ! A28   A(6,5,17)             106.7814         -DE/DX =    0.0                 !
 ! A29   A(6,5,18)             111.2579         -DE/DX =    0.0                 !
 ! A30   A(17,5,18)            106.8937         -DE/DX =    0.0                 !
 ! A31   A(5,6,19)             107.0056         -DE/DX =    0.0                 !
 ! A32   A(3,7,8)              113.9184         -DE/DX =    0.0                 !
 ! A33   A(3,7,20)             109.2937         -DE/DX =    0.0                 !
 ! A34   A(3,7,21)             110.4643         -DE/DX =    0.0                 !
 ! A35   A(8,7,20)             105.4274         -DE/DX =    0.0                 !
 ! A36   A(8,7,21)             110.5136         -DE/DX =    0.0                 !
 ! A37   A(20,7,21)            106.8639         -DE/DX =    0.0                 !
 ! A38   A(7,8,22)             109.0734         -DE/DX =    0.0                 !
 ! D1    D(9,1,2,3)           -176.6087         -DE/DX =    0.0                 !
 ! D2    D(9,1,2,12)            59.7676         -DE/DX =    0.0                 !
 ! D3    D(9,1,2,13)           -54.5824         -DE/DX =    0.0                 !
 ! D4    D(10,1,2,3)            64.1532         -DE/DX =    0.0                 !
 ! D5    D(10,1,2,12)          -59.4706         -DE/DX =    0.0                 !
 ! D6    D(10,1,2,13)         -173.8205         -DE/DX =    0.0                 !
 ! D7    D(11,1,2,3)           -56.9716         -DE/DX =    0.0                 !
 ! D8    D(11,1,2,12)          179.4047         -DE/DX =    0.0                 !
 ! D9    D(11,1,2,13)           65.0547         -DE/DX =    0.0                 !
 ! D10   D(1,2,3,4)             66.9793         -DE/DX =    0.0                 !
 ! D11   D(1,2,3,5)           -173.7574         -DE/DX =    0.0                 !
 ! D12   D(1,2,3,7)            -53.6095         -DE/DX =    0.0                 !
 ! D13   D(12,2,3,4)          -168.6298         -DE/DX =    0.0                 !
 ! D14   D(12,2,3,5)           -49.3666         -DE/DX =    0.0                 !
 ! D15   D(12,2,3,7)            70.7814         -DE/DX =    0.0                 !
 ! D16   D(13,2,3,4)           -55.7811         -DE/DX =    0.0                 !
 ! D17   D(13,2,3,5)            63.4822         -DE/DX =    0.0                 !
 ! D18   D(13,2,3,7)          -176.3699         -DE/DX =    0.0                 !
 ! D19   D(2,3,4,14)            56.5893         -DE/DX =    0.0                 !
 ! D20   D(2,3,4,15)           -63.6715         -DE/DX =    0.0                 !
 ! D21   D(2,3,4,16)           176.274          -DE/DX =    0.0                 !
 ! D22   D(5,3,4,14)           -62.829          -DE/DX =    0.0                 !
 ! D23   D(5,3,4,15)           176.9103         -DE/DX =    0.0                 !
 ! D24   D(5,3,4,16)            56.8557         -DE/DX =    0.0                 !
 ! D25   D(7,3,4,14)           179.2646         -DE/DX =    0.0                 !
 ! D26   D(7,3,4,15)            59.0039         -DE/DX =    0.0                 !
 ! D27   D(7,3,4,16)           -61.0507         -DE/DX =    0.0                 !
 ! D28   D(2,3,5,6)             57.0269         -DE/DX =    0.0                 !
 ! D29   D(2,3,5,17)           -62.445          -DE/DX =    0.0                 !
 ! D30   D(2,3,5,18)          -178.4516         -DE/DX =    0.0                 !
 ! D31   D(4,3,5,6)            178.1287         -DE/DX =    0.0                 !
 ! D32   D(4,3,5,17)            58.6568         -DE/DX =    0.0                 !
 ! D33   D(4,3,5,18)           -57.3498         -DE/DX =    0.0                 !
 ! D34   D(7,3,5,6)            -64.6608         -DE/DX =    0.0                 !
 ! D35   D(7,3,5,17)           175.8673         -DE/DX =    0.0                 !
 ! D36   D(7,3,5,18)            59.8607         -DE/DX =    0.0                 !
 ! D37   D(2,3,7,8)            -58.6846         -DE/DX =    0.0                 !
 ! D38   D(2,3,7,20)          -176.3035         -DE/DX =    0.0                 !
 ! D39   D(2,3,7,21)            66.3929         -DE/DX =    0.0                 !
 ! D40   D(4,3,7,8)            178.7439         -DE/DX =    0.0                 !
 ! D41   D(4,3,7,20)            61.125          -DE/DX =    0.0                 !
 ! D42   D(4,3,7,21)           -56.1785         -DE/DX =    0.0                 !
 ! D43   D(5,3,7,8)             61.2445         -DE/DX =    0.0                 !
 ! D44   D(5,3,7,20)           -56.3745         -DE/DX =    0.0                 !
 ! D45   D(5,3,7,21)          -173.678          -DE/DX =    0.0                 !
 ! D46   D(3,5,6,19)            48.5615         -DE/DX =    0.0                 !
 ! D47   D(17,5,6,19)          169.3824         -DE/DX =    0.0                 !
 ! D48   D(18,5,6,19)          -74.3219         -DE/DX =    0.0                 !
 ! D49   D(3,7,8,22)            70.5996         -DE/DX =    0.0                 !
 ! D50   D(20,7,8,22)         -169.5751         -DE/DX =    0.0                 !
 ! D51   D(21,7,8,22)          -54.4517         -DE/DX =    0.0                 !
 --------------------------------------------------------------------------------
 GradGradGradGradGradGradGradGradGradGradGradGradGradGradGradGradGradGrad

                    Distance matrix (angstroms):
                    1          2          3          4          5
     1  C    0.000000
     2  C    1.528399   0.000000
     3  C    2.614774   1.543596   0.000000
     4  C    3.185359   2.540018   1.532310   0.000000
     5  C    3.925019   2.509315   1.545719   2.496075   0.000000
     6  O    4.334186   2.926588   2.474278   3.771776   1.399036
     7  C    3.066662   2.548976   1.540055   2.484297   2.512260
     8  O    3.534627   2.998349   2.479497   3.776873   2.974028
     9  H    1.103127   2.172986   3.549972   4.136138   4.681506
    10  H    1.105337   2.202206   2.950970   3.681821   4.296563
    11  H    1.103468   2.197416   2.893394   2.896516   4.326670
    12  H    2.167162   1.103908   2.161080   3.472578   2.631854
    13  H    2.158219   1.105585   2.153089   2.717560   2.738814
    14  H    3.520690   2.770482   2.183338   1.104185   2.765440
    15  H    2.918326   2.844318   2.197593   1.103771   3.480395
    16  H    4.204731   3.507063   2.188696   1.105105   2.721703
    17  H    4.225507   2.754315   2.175416   2.710367   1.104709
    18  H    4.761223   3.470801   2.168831   2.687366   1.113128
    19  H    4.261928   3.064391   2.547567   3.964840   1.923505
    20  H    4.106819   3.497656   2.170553   2.718235   2.707893
    21  H    2.794863   2.856946   2.189110   2.696792   3.483855
    22  H    3.020673   2.731475   2.742028   4.092799   3.419832
                    6          7          8          9         10
     6  O    0.000000
     7  C    3.005053   0.000000
     8  O    2.769374   1.416686   0.000000
     9  H    4.923444   4.093195   4.357343   0.000000
    10  H    4.546826   2.817487   3.054713   1.774197   0.000000
    11  H    5.016222   3.392037   4.193642   1.777911   1.779190
    12  H    2.473434   2.861297   2.768178   2.507151   2.539333
    13  H    3.278752   3.484488   4.018431   2.462745   3.098187
    14  H    4.064632   3.462266   4.635731   4.273662   4.267352
    15  H    4.642528   2.738312   4.079963   3.888511   3.329449
    16  H    4.052497   2.743995   4.067682   5.199773   4.554721
    17  H    2.017458   3.471217   4.001736   4.833954   4.830193
    18  H    2.079809   2.725599   3.311620   5.622604   5.030794
    19  H    0.972855   2.545265   1.958093   4.917582   4.232950
    20  H    3.313544   1.103122   2.013785   5.158118   3.875743
    21  H    4.043755   1.107874   2.081920   3.855877   2.343011
    22  H    3.103665   1.959092   0.967217   3.691027   2.432082
                   11         12         13         14         15
    11  H    0.000000
    12  H    3.102125   0.000000
    13  H    2.559249   1.751475   0.000000
    14  H    3.179615   3.719268   2.484119   0.000000
    15  H    2.314962   3.875056   3.128881   1.783340   0.000000
    16  H    3.908541   4.317006   3.722419   1.783970   1.779964
    17  H    4.543238   2.961599   2.519751   2.515263   3.748554
    18  H    5.023616   3.674710   3.734656   3.075025   3.700461
    19  H    4.997838   2.543106   3.699973   4.484315   4.697542
    20  H    4.288755   3.818539   4.305097   3.738605   3.079788
    21  H    2.910800   3.348329   3.820315   3.722395   2.480836
    22  H    3.839336   2.351357   3.797270   4.865326   4.269045
                   16         17         18         19         20
    16  H    0.000000
    17  H    3.026697   0.000000
    18  H    2.437954   1.781606   0.000000
    19  H    4.207179   2.815749   2.403380   0.000000
    20  H    2.511887   3.706536   2.450022   2.861362   0.000000
    21  H    3.049226   4.326789   3.712141   3.578631   1.775763
    22  H    4.597301   4.319338   3.989020   2.380172   2.825576
                   21         22
    21  H    0.000000
    22  H    2.303896   0.000000
 Framework group  C1[X(C6H14O2)]
 Deg. of freedom    60
                         Standard orientation:                         
 ---------------------------------------------------------------------
 Center     Atomic      Atomic             Coordinates (Angstroms)
 Number     Number       Type             X           Y           Z
 ---------------------------------------------------------------------
      1          6           0        2.268184   -0.635005   -0.671838
      2          6           0        0.924867    0.014494   -1.002977
      3          6           0        0.076550    0.499870    0.191785
      4          6           0        0.748777    1.673044    0.912720
      5          6           0       -1.295744    0.975105   -0.337562
      6          8           0       -2.001204    0.004585   -1.057088
      7          6           0       -0.144800   -0.624429    1.220729
      8          8           0       -0.789641   -1.769168    0.690868
      9          1           0        2.810649   -0.885706   -1.599076
     10          1           0        2.153989   -1.575253   -0.102046
     11          1           0        2.918780    0.031018   -0.079572
     12          1           0        0.311943   -0.680139   -1.603329
     13          1           0        1.098699    0.883511   -1.663969
     14          1           0        0.941940    2.504279    0.212034
     15          1           0        1.713439    1.381812    1.363189
     16          1           0        0.108493    2.060779    1.725712
     17          1           0       -1.145358    1.831125   -1.019468
     18          1           0       -1.890792    1.349632    0.525399
     19          1           0       -1.987629   -0.809829   -0.525118
     20          1           0       -0.808001   -0.258982    2.022908
     21          1           0        0.813910   -0.905612    1.699473
     22          1           0       -0.180313   -2.228436    0.096477
 ---------------------------------------------------------------------
 Rotational constants (GHZ):           2.1938816           1.6656116           1.4589531
 1\1\GINC-C169\FOpt\RwB97XD\def2SVPP\C6H14O2\PETERCHAO1\06-Feb-2023\0\\
 #T wB97XD/def2svpp opt=tight freq int(grid=ultrafine) scf=(verytight,q
 c) Volume=tight\\Monomer\\0,1\C,2.268184,-0.635005,-0.671838\C,0.92486
 7,0.014494,-1.002977\C,0.07655,0.49987,0.191785\C,0.748777,1.673044,0.
 91272\C,-1.295744,0.975105,-0.337562\O,-2.001204,0.004585,-1.057088\C,
 -0.1448,-0.624429,1.220729\O,-0.789641,-1.769168,0.690868\H,2.810649,-
 0.885706,-1.599076\H,2.153989,-1.575253,-0.102046\H,2.91878,0.031018,-
 0.079572\H,0.311943,-0.680139,-1.603329\H,1.098699,0.883511,-1.663969\
 H,0.94194,2.504279,0.212034\H,1.713439,1.381812,1.363189\H,0.108493,2.
 060779,1.725712\H,-1.145358,1.831125,-1.019468\H,-1.890792,1.349632,0.
 525399\H,-1.987629,-0.809829,-0.525118\H,-0.808001,-0.258982,2.022908\
 H,0.81391,-0.905612,1.699473\H,-0.180313,-2.228436,0.096477\\Version=E
 S64L-G16RevB.01\State=1-A\HF=-387.0752449\RMSD=1.674e-11\RMSF=1.391e-0
 6\Dipole=1.0091072,-0.0485795,0.4142751\Quadrupole=-2.4468902,2.894072
 4,-0.4471823,-1.0989523,-2.3315322,1.5821028\PG=C01 [X(C6H14O2)]\\@


 ADVERTISING--  HE WHO HAS SOMETHING TO SELL AND GOES AND WHISPERS
                IN A WELL, IS NOT SO APT TO GET THE DOLLARS AS HE
                WHO CLIMBS A TREE AND HOLLERS.

                   -- FROM THE BACK OF A SUGAR PACKET
 File lengths (MBytes):  RWF=     10 Int=      0 D2E=      0 Chk=      3 Scr=      1
 Normal termination of Gaussian 16 at Mon Feb  6 10:23:13 2023.
 Link1:  Proceeding to internal job step number  2.
 ---------------------------------------------------------------------
 #T Geom=AllCheck Guess=TCheck SCRF=Check GenChk RwB97XD/def2SVPP Freq
 ---------------------------------------------------------------------
 Structure from the checkpoint file:  "15.chk"
 -------
 Monomer
 -------
 Charge =  0 Multiplicity = 1
 Redundant internal coordinates found in file.  (old form).
 C,0,2.268184,-0.635005,-0.671838
 C,0,0.924867,0.014494,-1.002977
 C,0,0.07655,0.49987,0.191785
 C,0,0.748777,1.673044,0.91272
 C,0,-1.295744,0.975105,-0.337562
 O,0,-2.001204,0.004585,-1.057088
 C,0,-0.1448,-0.624429,1.220729
 O,0,-0.789641,-1.769168,0.690868
 H,0,2.810649,-0.885706,-1.599076
 H,0,2.153989,-1.575253,-0.102046
 H,0,2.91878,0.031018,-0.079572
 H,0,0.311943,-0.680139,-1.603329
 H,0,1.098699,0.883511,-1.663969
 H,0,0.94194,2.504279,0.212034
 H,0,1.713439,1.381812,1.363189
 H,0,0.108493,2.060779,1.725712
 H,0,-1.145358,1.831125,-1.019468
 H,0,-1.890792,1.349632,0.525399
 H,0,-1.987629,-0.809829,-0.525118
 H,0,-0.808001,-0.258982,2.022908
 H,0,0.81391,-0.905612,1.699473
 H,0,-0.180313,-2.228436,0.096477
 Recover connectivity data from disk.

 GradGradGradGradGradGradGradGradGradGradGradGradGradGradGradGradGradGrad
 Initialization pass.
                           ----------------------------
                           !    Initial Parameters    !
                           ! (Angstroms and Degrees)  !
 --------------------------                            --------------------------
 ! Name  Definition              Value          Derivative Info.                !
 --------------------------------------------------------------------------------
 ! R1    R(1,2)                  1.5284         calculate D2E/DX2 analytically  !
 ! R2    R(1,9)                  1.1031         calculate D2E/DX2 analytically  !
 ! R3    R(1,10)                 1.1053         calculate D2E/DX2 analytically  !
 ! R4    R(1,11)                 1.1035         calculate D2E/DX2 analytically  !
 ! R5    R(2,3)                  1.5436         calculate D2E/DX2 analytically  !
 ! R6    R(2,12)                 1.1039         calculate D2E/DX2 analytically  !
 ! R7    R(2,13)                 1.1056         calculate D2E/DX2 analytically  !
 ! R8    R(3,4)                  1.5323         calculate D2E/DX2 analytically  !
 ! R9    R(3,5)                  1.5457         calculate D2E/DX2 analytically  !
 ! R10   R(3,7)                  1.5401         calculate D2E/DX2 analytically  !
 ! R11   R(4,14)                 1.1042         calculate D2E/DX2 analytically  !
 ! R12   R(4,15)                 1.1038         calculate D2E/DX2 analytically  !
 ! R13   R(4,16)                 1.1051         calculate D2E/DX2 analytically  !
 ! R14   R(5,6)                  1.399          calculate D2E/DX2 analytically  !
 ! R15   R(5,17)                 1.1047         calculate D2E/DX2 analytically  !
 ! R16   R(5,18)                 1.1131         calculate D2E/DX2 analytically  !
 ! R17   R(6,19)                 0.9729         calculate D2E/DX2 analytically  !
 ! R18   R(7,8)                  1.4167         calculate D2E/DX2 analytically  !
 ! R19   R(7,20)                 1.1031         calculate D2E/DX2 analytically  !
 ! R20   R(7,21)                 1.1079         calculate D2E/DX2 analytically  !
 ! R21   R(8,22)                 0.9672         calculate D2E/DX2 analytically  !
 ! A1    A(2,1,9)              110.2836         calculate D2E/DX2 analytically  !
 ! A2    A(2,1,10)             112.4804         calculate D2E/DX2 analytically  !
 ! A3    A(2,1,11)             112.2093         calculate D2E/DX2 analytically  !
 ! A4    A(9,1,10)             106.9048         calculate D2E/DX2 analytically  !
 ! A5    A(9,1,11)             107.3609         calculate D2E/DX2 analytically  !
 ! A6    A(10,1,11)            107.3169         calculate D2E/DX2 analytically  !
 ! A7    A(1,2,3)              116.6764         calculate D2E/DX2 analytically  !
 ! A8    A(1,2,12)             109.7807         calculate D2E/DX2 analytically  !
 ! A9    A(1,2,13)             108.9877         calculate D2E/DX2 analytically  !
 ! A10   A(3,2,12)             108.2803         calculate D2E/DX2 analytically  !
 ! A11   A(3,2,13)             107.578          calculate D2E/DX2 analytically  !
 ! A12   A(12,2,13)            104.8779         calculate D2E/DX2 analytically  !
 ! A13   A(2,3,4)              111.3345         calculate D2E/DX2 analytically  !
 ! A14   A(2,3,5)              108.6339         calculate D2E/DX2 analytically  !
 ! A15   A(2,3,7)              111.504          calculate D2E/DX2 analytically  !
 ! A16   A(4,3,5)              108.3736         calculate D2E/DX2 analytically  !
 ! A17   A(4,3,7)              107.9174         calculate D2E/DX2 analytically  !
 ! A18   A(5,3,7)              109.0052         calculate D2E/DX2 analytically  !
 ! A19   A(3,4,14)             110.7659         calculate D2E/DX2 analytically  !
 ! A20   A(3,4,15)             111.9264         calculate D2E/DX2 analytically  !
 ! A21   A(3,4,16)             111.1353         calculate D2E/DX2 analytically  !
 ! A22   A(14,4,15)            107.7413         calculate D2E/DX2 analytically  !
 ! A23   A(14,4,16)            107.7019         calculate D2E/DX2 analytically  !
 ! A24   A(15,4,16)            107.3796         calculate D2E/DX2 analytically  !
 ! A25   A(3,5,6)              114.2374         calculate D2E/DX2 analytically  !
 ! A26   A(3,5,17)             109.1943         calculate D2E/DX2 analytically  !
 ! A27   A(3,5,18)             108.2128         calculate D2E/DX2 analytically  !
 ! A28   A(6,5,17)             106.7814         calculate D2E/DX2 analytically  !
 ! A29   A(6,5,18)             111.2579         calculate D2E/DX2 analytically  !
 ! A30   A(17,5,18)            106.8937         calculate D2E/DX2 analytically  !
 ! A31   A(5,6,19)             107.0056         calculate D2E/DX2 analytically  !
 ! A32   A(3,7,8)              113.9184         calculate D2E/DX2 analytically  !
 ! A33   A(3,7,20)             109.2937         calculate D2E/DX2 analytically  !
 ! A34   A(3,7,21)             110.4643         calculate D2E/DX2 analytically  !
 ! A35   A(8,7,20)             105.4274         calculate D2E/DX2 analytically  !
 ! A36   A(8,7,21)             110.5136         calculate D2E/DX2 analytically  !
 ! A37   A(20,7,21)            106.8639         calculate D2E/DX2 analytically  !
 ! A38   A(7,8,22)             109.0734         calculate D2E/DX2 analytically  !
 ! D1    D(9,1,2,3)           -176.6087         calculate D2E/DX2 analytically  !
 ! D2    D(9,1,2,12)            59.7676         calculate D2E/DX2 analytically  !
 ! D3    D(9,1,2,13)           -54.5824         calculate D2E/DX2 analytically  !
 ! D4    D(10,1,2,3)            64.1532         calculate D2E/DX2 analytically  !
 ! D5    D(10,1,2,12)          -59.4706         calculate D2E/DX2 analytically  !
 ! D6    D(10,1,2,13)         -173.8205         calculate D2E/DX2 analytically  !
 ! D7    D(11,1,2,3)           -56.9716         calculate D2E/DX2 analytically  !
 ! D8    D(11,1,2,12)          179.4047         calculate D2E/DX2 analytically  !
 ! D9    D(11,1,2,13)           65.0547         calculate D2E/DX2 analytically  !
 ! D10   D(1,2,3,4)             66.9793         calculate D2E/DX2 analytically  !
 ! D11   D(1,2,3,5)           -173.7574         calculate D2E/DX2 analytically  !
 ! D12   D(1,2,3,7)            -53.6095         calculate D2E/DX2 analytically  !
 ! D13   D(12,2,3,4)          -168.6298         calculate D2E/DX2 analytically  !
 ! D14   D(12,2,3,5)           -49.3666         calculate D2E/DX2 analytically  !
 ! D15   D(12,2,3,7)            70.7814         calculate D2E/DX2 analytically  !
 ! D16   D(13,2,3,4)           -55.7811         calculate D2E/DX2 analytically  !
 ! D17   D(13,2,3,5)            63.4822         calculate D2E/DX2 analytically  !
 ! D18   D(13,2,3,7)          -176.3699         calculate D2E/DX2 analytically  !
 ! D19   D(2,3,4,14)            56.5893         calculate D2E/DX2 analytically  !
 ! D20   D(2,3,4,15)           -63.6715         calculate D2E/DX2 analytically  !
 ! D21   D(2,3,4,16)           176.274          calculate D2E/DX2 analytically  !
 ! D22   D(5,3,4,14)           -62.829          calculate D2E/DX2 analytically  !
 ! D23   D(5,3,4,15)           176.9103         calculate D2E/DX2 analytically  !
 ! D24   D(5,3,4,16)            56.8557         calculate D2E/DX2 analytically  !
 ! D25   D(7,3,4,14)           179.2646         calculate D2E/DX2 analytically  !
 ! D26   D(7,3,4,15)            59.0039         calculate D2E/DX2 analytically  !
 ! D27   D(7,3,4,16)           -61.0507         calculate D2E/DX2 analytically  !
 ! D28   D(2,3,5,6)             57.0269         calculate D2E/DX2 analytically  !
 ! D29   D(2,3,5,17)           -62.445          calculate D2E/DX2 analytically  !
 ! D30   D(2,3,5,18)          -178.4516         calculate D2E/DX2 analytically  !
 ! D31   D(4,3,5,6)            178.1287         calculate D2E/DX2 analytically  !
 ! D32   D(4,3,5,17)            58.6568         calculate D2E/DX2 analytically  !
 ! D33   D(4,3,5,18)           -57.3498         calculate D2E/DX2 analytically  !
 ! D34   D(7,3,5,6)            -64.6608         calculate D2E/DX2 analytically  !
 ! D35   D(7,3,5,17)           175.8673         calculate D2E/DX2 analytically  !
 ! D36   D(7,3,5,18)            59.8607         calculate D2E/DX2 analytically  !
 ! D37   D(2,3,7,8)            -58.6846         calculate D2E/DX2 analytically  !
 ! D38   D(2,3,7,20)          -176.3035         calculate D2E/DX2 analytically  !
 ! D39   D(2,3,7,21)            66.3929         calculate D2E/DX2 analytically  !
 ! D40   D(4,3,7,8)            178.7439         calculate D2E/DX2 analytically  !
 ! D41   D(4,3,7,20)            61.125          calculate D2E/DX2 analytically  !
 ! D42   D(4,3,7,21)           -56.1785         calculate D2E/DX2 analytically  !
 ! D43   D(5,3,7,8)             61.2445         calculate D2E/DX2 analytically  !
 ! D44   D(5,3,7,20)           -56.3745         calculate D2E/DX2 analytically  !
 ! D45   D(5,3,7,21)          -173.678          calculate D2E/DX2 analytically  !
 ! D46   D(3,5,6,19)            48.5615         calculate D2E/DX2 analytically  !
 ! D47   D(17,5,6,19)          169.3824         calculate D2E/DX2 analytically  !
 ! D48   D(18,5,6,19)          -74.3219         calculate D2E/DX2 analytically  !
 ! D49   D(3,7,8,22)            70.5996         calculate D2E/DX2 analytically  !
 ! D50   D(20,7,8,22)         -169.5751         calculate D2E/DX2 analytically  !
 ! D51   D(21,7,8,22)          -54.4517         calculate D2E/DX2 analytically  !
 --------------------------------------------------------------------------------
 Number of steps in this run=      2 maximum allowed number of steps=      2.
 GradGradGradGradGradGradGradGradGradGradGradGradGradGradGradGradGradGrad

                    Distance matrix (angstroms):
                    1          2          3          4          5
     1  C    0.000000
     2  C    1.528399   0.000000
     3  C    2.614774   1.543596   0.000000
     4  C    3.185359   2.540018   1.532310   0.000000
     5  C    3.925019   2.509315   1.545719   2.496075   0.000000
     6  O    4.334186   2.926588   2.474278   3.771776   1.399036
     7  C    3.066662   2.548976   1.540055   2.484297   2.512260
     8  O    3.534627   2.998349   2.479497   3.776873   2.974028
     9  H    1.103127   2.172986   3.549972   4.136138   4.681506
    10  H    1.105337   2.202206   2.950970   3.681821   4.296563
    11  H    1.103468   2.197416   2.893394   2.896516   4.326670
    12  H    2.167162   1.103908   2.161080   3.472578   2.631854
    13  H    2.158219   1.105585   2.153089   2.717560   2.738814
    14  H    3.520690   2.770482   2.183338   1.104185   2.765440
    15  H    2.918326   2.844318   2.197593   1.103771   3.480395
    16  H    4.204731   3.507063   2.188696   1.105105   2.721703
    17  H    4.225507   2.754315   2.175416   2.710367   1.104709
    18  H    4.761223   3.470801   2.168831   2.687366   1.113128
    19  H    4.261928   3.064391   2.547567   3.964840   1.923505
    20  H    4.106819   3.497656   2.170553   2.718235   2.707893
    21  H    2.794863   2.856946   2.189110   2.696792   3.483855
    22  H    3.020673   2.731475   2.742028   4.092799   3.419832
                    6          7          8          9         10
     6  O    0.000000
     7  C    3.005053   0.000000
     8  O    2.769374   1.416686   0.000000
     9  H    4.923444   4.093195   4.357343   0.000000
    10  H    4.546826   2.817487   3.054713   1.774197   0.000000
    11  H    5.016222   3.392037   4.193642   1.777911   1.779190
    12  H    2.473434   2.861297   2.768178   2.507151   2.539333
    13  H    3.278752   3.484488   4.018431   2.462745   3.098187
    14  H    4.064632   3.462266   4.635731   4.273662   4.267352
    15  H    4.642528   2.738312   4.079963   3.888511   3.329449
    16  H    4.052497   2.743995   4.067682   5.199773   4.554721
    17  H    2.017458   3.471217   4.001736   4.833954   4.830193
    18  H    2.079809   2.725599   3.311620   5.622604   5.030794
    19  H    0.972855   2.545265   1.958093   4.917582   4.232950
    20  H    3.313544   1.103122   2.013785   5.158118   3.875743
    21  H    4.043755   1.107874   2.081920   3.855877   2.343011
    22  H    3.103665   1.959092   0.967217   3.691027   2.432082
                   11         12         13         14         15
    11  H    0.000000
    12  H    3.102125   0.000000
    13  H    2.559249   1.751475   0.000000
    14  H    3.179615   3.719268   2.484119   0.000000
    15  H    2.314962   3.875056   3.128881   1.783340   0.000000
    16  H    3.908541   4.317006   3.722419   1.783970   1.779964
    17  H    4.543238   2.961599   2.519751   2.515263   3.748554
    18  H    5.023616   3.674710   3.734656   3.075025   3.700461
    19  H    4.997838   2.543106   3.699973   4.484315   4.697542
    20  H    4.288755   3.818539   4.305097   3.738605   3.079788
    21  H    2.910800   3.348329   3.820315   3.722395   2.480836
    22  H    3.839336   2.351357   3.797270   4.865326   4.269045
                   16         17         18         19         20
    16  H    0.000000
    17  H    3.026697   0.000000
    18  H    2.437954   1.781606   0.000000
    19  H    4.207179   2.815749   2.403380   0.000000
    20  H    2.511887   3.706536   2.450022   2.861362   0.000000
    21  H    3.049226   4.326789   3.712141   3.578631   1.775763
    22  H    4.597301   4.319338   3.989020   2.380172   2.825576
                   21         22
    21  H    0.000000
    22  H    2.303896   0.000000
 Framework group  C1[X(C6H14O2)]
 Deg. of freedom    60
                         Standard orientation:                         
 ---------------------------------------------------------------------
 Center     Atomic      Atomic             Coordinates (Angstroms)
 Number     Number       Type             X           Y           Z
 ---------------------------------------------------------------------
      1          6           0        2.268184   -0.635005   -0.671838
      2          6           0        0.924867    0.014494   -1.002977
      3          6           0        0.076550    0.499870    0.191785
      4          6           0        0.748777    1.673044    0.912720
      5          6           0       -1.295744    0.975105   -0.337562
      6          8           0       -2.001204    0.004585   -1.057088
      7          6           0       -0.144800   -0.624429    1.220729
      8          8           0       -0.789641   -1.769168    0.690868
      9          1           0        2.810649   -0.885706   -1.599076
     10          1           0        2.153989   -1.575253   -0.102046
     11          1           0        2.918780    0.031018   -0.079572
     12          1           0        0.311943   -0.680139   -1.603329
     13          1           0        1.098699    0.883511   -1.663969
     14          1           0        0.941940    2.504279    0.212034
     15          1           0        1.713439    1.381812    1.363189
     16          1           0        0.108493    2.060779    1.725712
     17          1           0       -1.145358    1.831125   -1.019468
     18          1           0       -1.890792    1.349632    0.525399
     19          1           0       -1.987629   -0.809829   -0.525118
     20          1           0       -0.808001   -0.258982    2.022908
     21          1           0        0.813910   -0.905612    1.699473
     22          1           0       -0.180313   -2.228436    0.096477
 ---------------------------------------------------------------------
 Rotational constants (GHZ):           2.1938816           1.6656116           1.4589531
   140 basis functions,   256 primitive gaussians,   148 cartesian basis functions
    33 alpha electrons       33 beta electrons
       nuclear repulsion energy       433.6493171639 Hartrees.
 NAtoms=   22 NActive=   22 NUniq=   22 SFac= 1.00D+00 NAtFMM=   60 NAOKFM=F Big=F
 Nuclear repulsion after empirical dispersion term =      433.6325100356 Hartrees.
   1 Symmetry operations used in ECPInt.
 ECPInt:  NShTT=    2926 NPrTT=   11774 LenC2=    2914 LenP2D=    9454.
 LDataN:  DoStor=T MaxTD1= 4 Len=   56
 Initial guess from the checkpoint file:  "15.chk"
 B after Tr=     0.000000   -0.000000    0.000000
         Rot=    1.000000    0.000000   -0.000000    0.000000 Ang=   0.00 deg.
 SCF Done:  E(RwB97XD) =  -387.075244855     a.u. after    1 cycles
            Convg  =    0.1419D-08                     1 Fock formations.
              S**2 =  0.0000                  -V/T =  2.0096
 DoSCS=F DFT=T ScalE2(SS,OS)=  1.000000  1.000000
 NROrb=    140 NOA=    33 NOB=    33 NVA=   107 NVB=   107

 **** Warning!!: The largest alpha MO coefficient is  0.12806101D+02

   1 Symmetry operations used in ECPInt.
 ECPInt:  NShTT=    2926 NPrTT=   11774 LenC2=    2914 LenP2D=    9454.
 LDataN:  DoStor=T MaxTD1= 5 Len=  102
 Symmetrizing basis deriv contribution to polar:
 IMax=3 JMax=2 DiffMx= 0.00D+00
 Calling FoFCou, ICntrl=  3107 FMM=F I1Cent=   0 AccDes= 0.00D+00.
 End of G2Drv F.D. properties file   721 does not exist.
 End of G2Drv F.D. properties file   722 does not exist.
 End of G2Drv F.D. properties file   788 does not exist.
          IDoAtm=1111111111111111111111
 End of Minotr F.D. properties file   721 does not exist.
 End of Minotr F.D. properties file   722 does not exist.
 End of Minotr F.D. properties file   788 does not exist.

 **********************************************************************

            Population analysis using the SCF Density.

 **********************************************************************

 Orbital symmetries:
       Occupied  (A) (A) (A) (A) (A) (A) (A) (A) (A) (A) (A) (A)
                 (A) (A) (A) (A) (A) (A) (A) (A) (A) (A) (A) (A)
                 (A) (A) (A) (A) (A) (A) (A) (A) (A)
       Virtual   (A) (A) (A) (A) (A) (A) (A) (A) (A) (A) (A) (A)
                 (A) (A) (A) (A) (A) (A) (A) (A) (A) (A) (A) (A)
                 (A) (A) (A) (A) (A) (A) (A) (A) (A) (A) (A) (A)
                 (A) (A) (A) (A) (A) (A) (A) (A) (A) (A) (A) (A)
                 (A) (A) (A) (A) (A) (A) (A) (A) (A) (A) (A) (A)
                 (A) (A) (A) (A) (A) (A) (A) (A) (A) (A) (A) (A)
                 (A) (A) (A) (A) (A) (A) (A) (A) (A) (A) (A) (A)
                 (A) (A) (A) (A) (A) (A) (A) (A) (A) (A) (A) (A)
                 (A) (A) (A) (A) (A) (A) (A) (A) (A) (A) (A)
 The electronic state is 1-A.
 Alpha  occ. eigenvalues --  -19.27206 -19.22858 -10.34549 -10.32804 -10.30831
 Alpha  occ. eigenvalues --  -10.29350 -10.29305 -10.29105  -1.13318  -1.09457
 Alpha  occ. eigenvalues --   -0.91854  -0.83774  -0.77495  -0.76120  -0.72199
 Alpha  occ. eigenvalues --   -0.64969  -0.62244  -0.57815  -0.56101  -0.53915
 Alpha  occ. eigenvalues --   -0.53302  -0.50672  -0.49719  -0.48356  -0.47652
 Alpha  occ. eigenvalues --   -0.46999  -0.44534  -0.43233  -0.42987  -0.40846
 Alpha  occ. eigenvalues --   -0.39356  -0.35638  -0.33589
 Alpha virt. eigenvalues --    0.11053   0.13391   0.16125   0.16716   0.18524
 Alpha virt. eigenvalues --    0.19059   0.20311   0.21292   0.22393   0.23037
 Alpha virt. eigenvalues --    0.23881   0.25074   0.25631   0.27558   0.28891
 Alpha virt. eigenvalues --    0.29522   0.30359   0.31283   0.32633   0.34715
 Alpha virt. eigenvalues --    0.35253   0.48795   0.50182   0.51996   0.55535
 Alpha virt. eigenvalues --    0.56382   0.57513   0.58928   0.63217   0.65307
 Alpha virt. eigenvalues --    0.66906   0.68532   0.70112   0.70610   0.72443
 Alpha virt. eigenvalues --    0.73230   0.75342   0.76851   0.77139   0.77899
 Alpha virt. eigenvalues --    0.78947   0.79359   0.79797   0.80330   0.82047
 Alpha virt. eigenvalues --    0.82379   0.83034   0.84129   0.84424   0.84691
 Alpha virt. eigenvalues --    0.85629   0.87767   0.97875   1.00461   1.04111
 Alpha virt. eigenvalues --    1.08608   1.13115   1.16035   1.19534   1.22051
 Alpha virt. eigenvalues --    1.24777   1.27021   1.30182   1.34415   1.42279
 Alpha virt. eigenvalues --    1.48522   1.53254   1.62266   1.64883   1.71849
 Alpha virt. eigenvalues --    1.74273   1.81590   1.86696   1.89103   1.91453
 Alpha virt. eigenvalues --    1.95237   1.97946   2.00450   2.06575   2.07710
 Alpha virt. eigenvalues --    2.09512   2.11919   2.14415   2.18674   2.20451
 Alpha virt. eigenvalues --    2.23333   2.26105   2.26516   2.29285   2.35265
 Alpha virt. eigenvalues --    2.36967   2.48015   2.57454   2.68204   2.68813
 Alpha virt. eigenvalues --    2.71677   2.75149   2.77978   2.80914   2.89586
 Alpha virt. eigenvalues --    2.97024   3.03876   3.07486   3.10265   3.13766
 Alpha virt. eigenvalues --    3.45364   3.50586
          Condensed to atoms (all electrons):
 Mulliken charges:
               1
     1  C   -0.319407
     2  C   -0.206201
     3  C   -0.317410
     4  C   -0.286678
     5  C    0.106184
     6  O   -0.503255
     7  C    0.040517
     8  O   -0.500962
     9  H    0.129547
    10  H    0.104459
    11  H    0.122744
    12  H    0.109988
    13  H    0.106421
    14  H    0.122999
    15  H    0.123725
    16  H    0.119249
    17  H    0.093590
    18  H    0.081003
    19  H    0.323064
    20  H    0.108942
    21  H    0.108475
    22  H    0.333003
 Sum of Mulliken charges =   0.00000
 Mulliken charges with hydrogens summed into heavy atoms:
               1
     1  C    0.037344
     2  C    0.010209
     3  C   -0.317410
     4  C    0.079295
     5  C    0.280778
     6  O   -0.180191
     7  C    0.257934
     8  O   -0.167959
 APT charges:
               1
     1  C    0.030879
     2  C    0.049007
     3  C   -0.041948
     4  C    0.017324
     5  C    0.503803
     6  O   -0.690619
     7  C    0.452511
     8  O   -0.645379
     9  H   -0.011191
    10  H   -0.025234
    11  H   -0.005184
    12  H   -0.003547
    13  H   -0.028408
    14  H   -0.003495
    15  H   -0.004053
    16  H   -0.006643
    17  H   -0.040772
    18  H   -0.092363
    19  H    0.353438
    20  H   -0.024649
    21  H   -0.056456
    22  H    0.272978
 Sum of APT charges =   0.00000
 APT charges with hydrogens summed into heavy atoms:
               1
     1  C   -0.010730
     2  C    0.017051
     3  C   -0.041948
     4  C    0.003134
     5  C    0.370668
     6  O   -0.337181
     7  C    0.371407
     8  O   -0.372401
 Electronic spatial extent (au):  <R**2>=           1057.9537
 Charge=              0.0000 electrons
 Dipole moment (field-independent basis, Debye):
    X=              2.5649    Y=             -0.1235    Z=              1.0530  Tot=              2.7754
  Exact polarizability:  71.498  -1.853  69.987  -1.297   2.030  67.453
 Approx polarizability:  72.814   0.389  74.700  -0.042   1.465  73.051
   1 Symmetry operations used in ECPInt.
 ECPInt:  NShTT=    2926 NPrTT=   11774 LenC2=    2914 LenP2D=    9454.
 LDataN:  DoStor=T MaxTD1= 6 Len=  172
 Calling FoFJK, ICntrl=    100127 FMM=F ISym2X=0 I1Cent= 0 IOpClX= 0 NMat=1 NMatS=1 NMatT=0.
 Full mass-weighted force constant matrix:
 Low frequencies ---   -8.5060   -3.0804   -0.0010   -0.0009    0.0003    6.1502
 Low frequencies ---   91.3165  146.4268  178.5870
 Diagonal vibrational polarizability:
       28.9609606      29.8426313      13.8580129
 Harmonic frequencies (cm**-1), IR intensities (KM/Mole), Raman scattering
 activities (A**4/AMU), depolarization ratios for plane and unpolarized
 incident light, reduced masses (AMU), force constants (mDyne/A),
 and normal coordinates:
                      1                      2                      3
                      A                      A                      A
 Frequencies --     91.3056               146.4242               178.5837
 Red. masses --      2.0637                 2.8226                 2.6905
 Frc consts  --      0.0101                 0.0357                 0.0506
[...]
 003244,0.00360692,-0.00054806,0.00095778,0.09826142,0.16788757,-0.0037
 1133,-0.00402253,-0.00372517,-0.07810208,-0.08987839,-0.12546727,-0.01
 346432,-0.01780014,-0.01374141,0.00402238,-0.00021162,-0.00343052,-0.0
 0182046,-0.00124207,-0.00064420,-0.00118453,0.00204525,0.00100091,-0.0
 0142967,-0.00223077,-0.00054359,0.00027204,0.00134603,0.00167462,0.000
 27094,0.00037227,0.00049059,0.00018834,-0.00020763,-0.00010699,-0.0011
 0742,0.00063684,0.00061007,0.08383068,0.09800438,0.13481826,0.00374424
 ,0.02624948,-0.01778253,-0.05500559,-0.03546104,0.02518064,-0.00390164
 ,-0.01342112,0.01036301,0.00036904,-0.00040972,-0.00094762,0.00027182,
 -0.00167216,0.00132509,-0.00037202,0.00078037,-0.00049985,-0.00204524,
 0.00180045,0.00211157,0.00006861,0.00014034,0.00037452,0.00124224,-0.0
 0014882,0.00028626,-0.00540533,0.00290608,-0.00171408,0.00116404,-0.00
 068125,-0.00005636,-0.00251915,-0.01319939,0.01110429,0.06208152,-0.00
 174693,-0.01082393,0.00690933,-0.03485911,-0.21122236,0.12235473,0.002
 19879,0.00689483,-0.00698579,0.00044416,0.00113489,-0.00117967,0.00017
 351,0.00043974,-0.00022812,-0.00053493,0.00027033,-0.00014810,0.001229
 72,-0.00088038,-0.00220450,-0.00004463,0.00028572,0.00060686,0.0000491
 1,-0.00005639,-0.00029311,0.00296009,0.00027011,0.00038553,0.00015477,
 0.00083360,-0.00007415,-0.00242085,-0.01503220,0.01230376,0.03211540,0
 .22644049,0.00109245,0.00546681,-0.00401892,0.02427466,0.12093712,-0.1
 3719495,0.00595763,0.02110830,-0.01875727,-0.00024663,0.00167719,0.000
 61453,-0.00118892,0.00083638,0.00045636,0.00013624,-0.00007571,-0.0000
 9489,0.00313194,-0.00445112,-0.00355884,-0.00007584,0.00023659,0.00109
 465,-0.00005405,-0.00052256,0.00071115,-0.00123846,0.00032037,0.000661
 48,0.00025661,0.00007930,-0.00021974,-0.00243393,-0.01417707,0.0111613
 6,-0.02961391,-0.13064120,0.14955172,-0.00009267,-0.00004323,0.0000521
 8,0.00040362,0.00104931,0.00032728,-0.00358687,-0.01040760,0.00996985,
 -0.05592996,-0.03324489,0.02924531,0.00022643,-0.00152051,0.00132592,0
 .00009862,0.00070643,-0.00016882,-0.00129880,-0.00052848,-0.00231721,0
 .00003803,-0.00139217,0.00022942,0.00003139,0.00001952,0.00003833,-0.0
 0007450,-0.00009063,-0.00006042,-0.00002320,0.00002965,-0.00009044,-0.
 00010601,0.00013931,0.00005901,0.00034973,0.00017689,-0.00013490,0.055
 16178,0.00022010,-0.00007047,-0.00028203,-0.00010305,0.00057804,0.0018
 1859,-0.00387305,-0.01948268,0.01661349,-0.03338776,-0.19629446,0.1289
 9104,0.00108954,-0.00000512,0.00103742,0.00013435,0.00057474,-0.000439
 85,-0.00159843,-0.00133048,-0.00467936,-0.00119661,-0.00244268,0.00067
 447,0.00005348,-0.00004368,-0.00003005,-0.00009718,0.00023881,0.000002
 59,-0.00002757,-0.00013029,0.00009658,-0.00001623,0.00053356,-0.000074
 75,0.00032533,0.00005597,-0.00119229,0.03924645,0.21176781,0.00000729,
 0.00010054,0.00000778,-0.00026203,-0.00096778,0.00136596,-0.00239896,-
 0.01278899,0.01021591,0.02998229,0.13033227,-0.15964238,-0.00009074,-0
 .00062113,0.00049748,0.00034050,0.00008922,0.00017757,-0.00093027,-0.0
 0130070,-0.00198138,-0.00069864,-0.00125122,0.00075187,0.00002711,0.00
 002968,0.00003618,-0.00005563,0.00000454,-0.00003836,0.00002643,0.0001
 2816,-0.00004537,-0.00009628,0.00012882,0.00020782,-0.00005640,0.00008
 888,-0.00026652,-0.03045758,-0.13778974,0.16819131,-0.00022460,0.00031
 780,0.00026185,-0.00020066,0.00012673,0.00048121,-0.01188216,0.0037912
 4,-0.00437647,-0.25254468,0.06452225,-0.09460597,0.00067010,-0.0033461
 2,-0.00050042,-0.00120051,-0.00027373,-0.00090510,-0.00039549,0.001150
 30,-0.00084532,0.00075109,-0.00010164,0.00056981,0.00018939,0.00003037
 ,0.00013993,0.00003663,-0.00002236,-0.00000408,-0.00002675,0.00103428,
 0.00101670,0.00002196,-0.00004633,-0.00004741,-0.00000744,-0.00006356,
 0.00002502,0.00730636,-0.00212106,0.00339302,0.27054840,0.00026384,-0.
 00035548,-0.00028642,0.00024149,0.00088134,0.00045593,-0.02377687,0.00
 880431,-0.00911576,0.06534060,-0.06846543,0.03072675,0.00007484,-0.004
 71271,-0.00120984,-0.00209845,0.00000608,-0.00118435,-0.00166536,0.000
 89002,-0.00098833,0.00068274,0.00040669,0.00031532,0.00004233,0.000076
 46,0.00011442,-0.00000939,-0.00010492,-0.00002937,0.00082416,-0.000720
 39,-0.00104454,-0.00010673,0.00006151,0.00023958,0.00011921,-0.0000716
 2,-0.00005546,0.02099580,-0.00533339,0.00705326,-0.06895367,0.07219924
 ,-0.00038471,-0.00063605,-0.00030527,-0.00061615,0.00067996,0.00023270
 ,-0.01325123,0.00530577,-0.00671049,-0.09431484,0.03046141,-0.09154870
 ,0.00095693,-0.00291974,-0.00098349,-0.00157394,-0.00044251,-0.0002605
 3,0.00083215,0.00103480,0.00025422,0.00028750,-0.00024221,-0.00008008,
 0.00022395,0.00023584,0.00020439,0.00011453,0.00017190,0.00004707,0.00
 123744,-0.00087984,-0.00053620,0.00009256,0.00001815,0.00012585,-0.000
 02447,-0.00001108,-0.00005931,-0.01815508,0.00383239,-0.00707437,0.103
 50671,-0.03015989,0.09416727,-0.00022051,-0.00013158,-0.00000002,-0.00
 147603,-0.00177520,-0.00115530,0.00935362,-0.00419059,-0.01097949,-0.1
 4023988,0.05360404,0.11476426,0.00052789,-0.00101315,-0.00168374,0.000
 34979,0.00050203,0.00026818,0.00039555,-0.00017517,-0.00023216,0.00005
 950,0.00026697,-0.00014786,0.00011796,0.00008818,0.00010040,0.00006485
 ,0.00009829,0.00001417,0.00040920,0.00000743,0.00008444,0.00026530,-0.
 00044415,-0.00063197,-0.00011702,-0.00002128,-0.00006738,-0.00258917,0
 .00153763,0.00146004,-0.01373984,0.00770167,0.02096641,0.14736159,-0.0
 0035765,0.00024453,-0.00014879,-0.00339416,-0.00356324,-0.00117364,0.0
 1592272,-0.00816822,-0.01749804,0.05289445,-0.07976744,-0.06551499,0.0
 0138875,0.00033184,0.00003805,-0.00019066,0.00015252,0.00062611,0.0011
 9323,-0.00009132,-0.00170714,-0.00020192,0.00053948,0.00067481,0.00007
 360,-0.00004554,0.00000807,0.00000612,-0.00006656,0.00001794,-0.000014
 49,0.00001074,0.00015316,0.00084613,-0.00043127,-0.00124858,-0.0000258
 6,0.00021279,-0.00011996,-0.01511372,0.01024995,0.01678705,0.00409958,
 -0.00338407,-0.00654307,-0.05585334,0.08374802,-0.00044601,0.00015468,
 0.00001336,-0.00283457,-0.00273637,-0.00095704,0.00874966,-0.00385869,
 -0.01157545,0.11393069,-0.06583082,-0.19042842,0.00167715,-0.00054616,
 -0.00063939,-0.00040083,0.00071411,0.00073622,0.00043410,0.00107354,0.
 00012262,-0.00045140,-0.00003360,0.00020826,0.00014206,0.00003303,0.00
 006390,0.00006424,-0.00004988,0.00003832,0.00017901,0.00013608,0.00008
 370,0.00079297,-0.00073648,-0.00070512,-0.00016227,0.00001020,0.000539
 04,0.01076000,-0.00842374,-0.01253239,-0.00836303,0.00503351,0.0116895
 6,-0.12310153,0.07506173,0.20265761,0.00006227,-0.00022953,-0.00000195
 ,0.00119460,0.00028741,-0.00100741,0.00310964,0.02190226,-0.01927383,0
 .00119504,0.00125358,0.00003636,-0.05498980,-0.02102170,0.02212958,-0.
 00295608,-0.02166398,0.00767306,-0.00613780,0.00034602,-0.00167237,0.0
 0099400,-0.00008561,0.00117700,0.00002966,-0.00003338,0.00001911,0.000
 10912,-0.00011564,-0.00001444,0.00005146,0.00001994,-0.00000522,-0.000
 13702,0.00007206,0.00014706,-0.00051895,-0.00018299,0.00043237,-0.0003
 8112,-0.00054111,0.00002009,0.00014071,-0.00000473,0.00031402,-0.00009
 018,-0.00014262,0.00000225,0.06111718,0.00009764,0.00029160,-0.0002219
 6,-0.00096636,0.00008044,0.00038431,-0.00098043,-0.00849990,0.00833372
 ,-0.00078460,0.00052297,-0.00080594,-0.02262448,-0.19380887,0.12224196
 ,-0.00874942,-0.03004866,0.00978638,0.00234428,0.00059051,-0.00024978,
 0.00044885,-0.00023328,0.00035097,0.00003419,-0.00001808,-0.00000863,-
 0.00016078,0.00015389,-0.00005529,-0.00003466,-0.00001641,0.00000856,-
 0.00014089,0.00001274,0.00010835,0.00072043,0.00009072,-0.00050134,0.0
 0008158,0.00060677,0.00009049,0.00017663,0.00010077,-0.00021139,0.0001
 7683,0.00001522,0.00000618,0.03337421,0.22184260,-0.00011882,-0.000143
 21,0.00008210,0.00076701,-0.00090964,0.00052661,0.00245887,0.00699649,
 -0.00676345,0.00034565,0.00058444,-0.00001046,0.02499855,0.13297957,-0
 .16340573,-0.00526285,-0.02185242,0.01550658,-0.00305917,-0.00011677,-
 0.00072190,0.00064293,0.00013324,0.00066699,-0.00003266,-0.00000252,0.
 00002153,0.00008925,-0.00011234,0.00001900,-0.00001907,0.00001862,-0.0
 0004052,-0.00012593,0.00000617,-0.00001177,-0.00013648,0.00002812,0.00
 053365,-0.00079071,-0.00047739,-0.00000890,-0.00000522,-0.00032829,0.0
 0016268,0.00004361,0.00012280,-0.00005290,-0.01888346,-0.13135586,0.16
 734840,-0.00033846,0.00050420,0.00183872,-0.00481019,0.00178579,-0.004
 01045,-0.01774413,0.00864223,0.02244360,0.00030491,0.00096685,0.001510
 55,-0.12845313,0.03957570,0.10505655,0.01308818,-0.01118733,-0.0213208
 7,0.00041119,-0.00127112,0.00178930,0.00043701,0.00022173,-0.00003375,
 -0.00060120,0.00031662,-0.00011329,-0.00003929,0.00015075,-0.00009156,
 -0.00001111,-0.00009410,-0.00006892,0.00020721,0.00005861,-0.00004179,
 0.00018790,-0.00016332,-0.00027214,-0.00000793,0.00001706,-0.00004602,
 0.00037826,-0.00012465,-0.00031143,-0.00039930,-0.00066724,-0.00110606
 ,-0.00089310,0.00155682,0.00216194,0.13741684,0.00018439,0.00020229,-0
 .00073392,0.00105577,-0.00037778,0.00170706,0.00984578,-0.00295846,-0.
 00873170,-0.00088496,0.00006024,-0.00002111,0.03937170,-0.07333362,-0.
 04608500,0.00441267,-0.01676543,-0.02910916,0.00038924,-0.00020563,-0.
 00212281,0.00026222,-0.00014886,0.00099971,0.00020599,-0.00010985,0.00
 004917,-0.00008718,0.00000243,0.00000050,0.00004996,0.00002879,0.00006
 568,-0.00049123,0.00014282,0.00009668,0.00020460,0.00020474,-0.0002683
 5,0.00005576,0.00004858,0.00013696,-0.00003070,-0.00000348,0.00024585,
 -0.00032116,0.00043025,0.00006217,-0.01325876,0.00931524,0.01746122,-0
 .04126386,0.08217755,-0.00048948,0.00009905,0.00069492,-0.00134377,0.0
 0038593,-0.00055442,-0.00679962,0.00406716,0.00529195,-0.00038394,0.00
 056099,0.00067542,0.10671413,-0.04864975,-0.18882746,-0.00234162,-0.02
 023345,-0.01564018,-0.00131096,0.00002522,0.00047739,0.00062785,-0.000
 02890,0.00090345,-0.00016903,0.00008227,0.00002164,0.00012782,-0.00007
 468,0.00000614,0.00014704,-0.00000207,0.00005698,-0.00032270,0.0003657
 5,0.00013247,-0.00021319,-0.00008624,0.00026233,-0.00001012,-0.0001306
 6,-0.00005008,0.00012695,0.00019956,0.00028705,0.00006557,0.00014059,0
 .00022893,0.01257172,-0.00547630,-0.01319367,-0.10600547,0.06722731,0.
 20989886,0.00007956,0.00023027,0.00011875,-0.00090268,0.00002218,-0.00
 023306,0.00063003,-0.00118540,0.00141994,0.00002190,0.00008107,-0.0004
 3029,-0.00099960,-0.02424709,0.01290663,-0.02028630,0.01171327,-0.0280
 7663,-0.00414394,-0.00437702,-0.00592092,0.00090088,-0.00050312,0.0061
 0436,0.00007880,-0.00000358,-0.00008244,-0.00017512,0.00008905,-0.0000
 5034,0.00017166,-0.00001355,0.00007585,-0.00087082,0.00002125,0.001068
 16,0.00056558,0.00036215,-0.00011934,0.00022650,0.00042061,0.00000963,
 0.00002968,0.00016708,0.00000399,0.00001105,0.00011935,0.00025385,-0.0
 0214635,-0.00434434,-0.00276535,0.00028704,0.00062557,-0.00082227,0.02
 785011,0.00004738,0.00019206,-0.00027396,0.00001886,-0.00022412,0.0006
 5831,-0.00002330,0.00248345,0.00025670,0.00115167,-0.00097410,0.000673
 17,-0.00604330,-0.03452357,0.01437728,-0.01130332,-0.33061613,0.180166
 02,-0.00027520,0.00745053,0.00079685,-0.00151122,-0.00805350,-0.002644
 33,0.00010249,-0.00009245,0.00002137,0.00017136,-0.00019581,0.00012923
 ,0.00002522,-0.00004718,0.00005278,-0.00053795,0.00049183,-0.00015151,
 -0.00017563,-0.00009916,-0.00000735,-0.00008025,-0.00012846,-0.0000675
 2,0.00045080,0.00038270,0.00023290,-0.00007836,-0.00003576,-0.00012232
 ,-0.00129954,-0.00094522,-0.00370765,0.00101613,0.00112120,0.00160385,
 0.01729279,0.36685121,-0.00003391,-0.00044406,-0.00008539,0.00018106,0
 .00061207,0.00024835,-0.00193396,-0.00062004,0.00108275,-0.00010223,0.
 00062385,-0.00062505,-0.00081646,-0.02249074,0.01298912,-0.01339694,0.
 22245309,-0.17724692,-0.00471270,-0.00485169,-0.00339806,0.00291091,0.
 00074325,-0.00304196,0.00001402,0.00008570,-0.00005223,-0.00014137,0.0
 0022943,-0.00003032,-0.00016712,0.00006927,-0.00007194,0.00089107,-0.0
 0037903,-0.00032979,0.00004080,-0.00012000,-0.00021713,0.00022403,0.00
 030315,0.00002925,-0.00016787,-0.00009250,-0.00012397,0.00005222,-0.00
 017237,-0.00003407,-0.00211321,-0.00321768,-0.00090352,-0.00010173,-0.
 00180506,-0.00100268,0.01656139,-0.19185915,0.17048434,0.00032035,0.00
 016065,0.00017149,0.00027115,-0.00092955,0.00010031,-0.00223400,0.0023
 8095,0.00222283,-0.00010568,0.00022241,0.00033473,0.00051145,0.0002476
 4,-0.00172825,0.00017966,0.00021038,0.00010743,-0.15942349,0.05791056,
 0.12309287,0.01305024,-0.01102024,-0.01579786,-0.00002528,-0.00013587,
 0.00014436,0.00011911,-0.00033371,-0.00004514,0.00001755,0.00000211,-0
 .00008132,-0.00000996,-0.00001235,0.00012916,-0.00004857,-0.00001021,0
 .00033772,0.00006802,-0.00011634,-0.00025928,-0.00003794,0.00009021,0.
 00012828,0.00009017,-0.00072549,-0.00004175,-0.00000476,-0.00010023,-0
 .00015974,0.00041697,0.00002441,-0.00003446,-0.00000727,-0.00007607,0.
 00008515,0.16083120,0.00037868,-0.00035550,-0.00003083,-0.00026868,-0.
 00414009,0.00277572,-0.01389354,0.00711231,0.01702825,-0.00028714,0.00
 113292,0.00093839,-0.00117349,0.00111676,0.00061291,0.00014855,0.00007
 265,-0.00022238,0.04921081,-0.07175685,-0.05486682,0.01486835,-0.02103
 908,-0.02686086,-0.00005424,0.00009293,-0.00006220,-0.00010860,0.00017
 877,-0.00014623,-0.00004177,0.00002303,-0.00002900,0.00012710,0.000094
 43,0.00004124,-0.00075594,0.00057477,0.00127722,0.00018964,0.00019412,
 -0.00012586,0.00003160,-0.00004874,-0.00008465,0.00000473,-0.00063651,
 -0.00016321,-0.00012700,0.00010665,-0.00024531,0.00050155,-0.00032793,
 -0.00024192,0.00039503,-0.00045787,0.00021927,-0.05177068,0.09288730,-
 0.00043011,0.00035164,0.00027547,-0.00035833,0.00446153,-0.00151190,0.
 01499669,-0.00630129,-0.01744391,-0.00038134,-0.00090564,0.00036936,0.
 00167297,-0.00200836,-0.00004965,-0.00062857,0.00051929,0.00030099,0.1
 1479456,-0.05873537,-0.18491877,0.00560172,-0.01109177,-0.01006098,0.0
 0007781,-0.00014112,0.00010326,0.00001282,-0.00019192,0.00010223,0.000
 12499,0.00003340,-0.00000227,-0.00002566,-0.00012195,0.00015442,0.0007
 5670,-0.00034557,-0.00117007,-0.00031405,0.00011032,0.00017198,-0.0000
 5660,0.00011711,-0.00001729,0.00008371,0.00049601,0.00061044,-0.000112
 65,0.00007913,0.00059278,-0.00110713,0.00081867,0.00021031,0.00057924,
 -0.00049877,-0.00040984,-0.12501159,0.06945415,0.20175343,-0.00068412,
 0.00079777,0.00123547,-0.00009625,0.00055717,-0.00011394,0.00376399,-0
 .00135152,0.00211296,0.00082513,-0.00012330,0.00045068,0.00039516,-0.0
 0065297,0.00031669,-0.00004899,0.00055717,-0.00026028,-0.23826144,0.06
 448113,-0.08806637,-0.01302317,-0.00814894,-0.01105852,0.00008815,-0.0
 0037381,0.00029676,-0.00072790,-0.00028282,0.00123356,0.00002268,0.000
 07790,-0.00012650,-0.00003739,0.00002252,0.00023149,0.00011746,-0.0000
 4287,-0.00015738,0.00024379,0.00014182,0.00008344,0.00027594,0.0002229
 1,0.00009469,-0.00010603,0.00002906,-0.00011257,0.00026827,0.00003584,
 -0.00010787,0.00028662,-0.00021534,0.00003162,0.00065497,-0.00074841,0
 .00086545,-0.01387846,0.00583495,-0.00821674,0.25944791,0.00010078,0.0
 0027134,-0.00023505,0.00032817,0.00005533,-0.00075989,0.02038319,-0.00
 604366,0.00828282,0.00145312,0.00077061,0.00075900,-0.00293965,-0.0046
 6713,0.00311633,0.00009541,0.00167905,-0.00025033,0.07009775,-0.072960
 08,0.03075128,-0.03663715,-0.00082626,-0.01970401,-0.00011219,0.000062
 09,-0.00014881,0.00021561,0.00029650,-0.00056356,-0.00017175,-0.000098
 85,0.00006698,-0.00001068,0.00000904,0.00008726,0.00000995,-0.00002066
 ,-0.00004830,-0.00020475,0.00021624,-0.00020842,-0.00084574,-0.0005949
 8,-0.00008009,0.00004273,0.00001542,-0.00002313,0.00148695,-0.00033297
 ,0.00091769,-0.00036189,0.00029816,-0.00004571,0.00061219,-0.00150757,
 0.00069751,0.00771350,-0.00123580,0.00503356,-0.06056667,0.08249118,0.
 00043603,0.00023779,-0.00064674,-0.00119617,-0.00008690,0.00060725,-0.
 02101441,0.00838864,-0.00844582,-0.00043289,-0.00127394,0.00033710,0.0
 0301802,0.00328748,-0.00238133,-0.00009296,-0.00055618,0.00003168,-0.0
 8445558,0.03048949,-0.09568212,-0.01544645,-0.00603805,-0.00642874,0.0
 0002146,-0.00027497,0.00032082,0.00102334,-0.00089524,-0.00101750,0.00
 012571,0.00002659,-0.00000358,0.00004889,0.00002020,0.00000558,0.00015
 820,-0.00000459,0.00023575,0.00024953,-0.00017122,-0.00007081,0.000495
 23,0.00031324,0.00054580,0.00015755,0.00007747,-0.00000732,-0.00130097
 ,0.00071893,-0.00025406,-0.00020763,0.00016375,0.00032089,0.00042528,-
 0.00032503,0.00010002,0.01917938,-0.00575692,0.01162062,0.10019532,-0.
 02876481,0.10052118,0.00003201,-0.00162603,0.00086011,0.00072318,-0.00
 052644,0.00053716,-0.00034164,-0.00077486,-0.00060604,-0.00008571,-0.0
 0005963,0.00033197,0.00028822,0.00071769,0.00067423,0.00015300,-0.0010
 7816,-0.00100654,0.01202530,-0.01429985,-0.01450225,-0.23535549,0.1483
 4667,0.20131354,0.00007346,0.00040174,-0.00020996,-0.00120372,0.000824
 62,-0.00078306,0.00012098,0.00050428,-0.00031157,0.00024795,-0.0003521
 7,0.00021742,-0.00022124,0.00022609,-0.00004179,-0.00006403,-0.0001079
 7,0.00000198,-0.00008844,-0.00002704,-0.00012732,-0.00002852,0.0001141
 7,0.00003402,-0.00001678,-0.00016112,-0.00004046,-0.00012429,-0.000134
 87,-0.00016607,-0.00197569,0.00187587,0.00186139,-0.00010049,-0.003209
 91,-0.00205843,0.00047370,-0.00068887,-0.00138686,0.22546825,-0.000488
 89,0.00026970,-0.00017870,-0.00114102,-0.00097350,0.00005148,0.0015286
 4,-0.00066914,-0.00059805,-0.00032325,0.00020136,-0.00019128,0.0002664
 2,-0.00095500,-0.00046547,-0.00094071,0.00087716,0.00028449,0.02358228
 ,-0.01921236,-0.02440281,0.10864617,-0.12746534,-0.13533042,0.00024087
 ,0.00009113,-0.00013282,-0.00065112,0.00017102,0.00011038,0.00025886,-
 0.00000638,0.00005691,0.00010177,-0.00003963,0.00178635,0.00057930,0.0
 0049800,0.00012142,-0.00006413,0.00019714,0.00015147,0.00007333,-0.000
 01392,-0.00000843,-0.00002656,0.00023918,0.00023918,-0.00003584,0.0001
 7325,0.00000305,-0.00018052,0.00019877,0.00021199,0.00252226,-0.001072
 07,0.00001574,-0.00373209,-0.00358829,-0.00113305,-0.00025157,0.002122
 99,0.00042427,-0.12996420,0.14895594,0.00047016,-0.00052057,-0.0000758
 6,0.00093441,0.00061663,0.00149627,-0.00050630,0.00117224,0.00181645,0
 .00043070,0.00029961,-0.00063651,0.00019274,0.00069247,0.00032026,0.00
 022431,-0.00029630,-0.00174824,0.01220922,-0.00831382,-0.01268088,0.17
 467735,-0.15153897,-0.18808967,0.00009538,0.00020595,-0.00014953,-0.00
 016403,0.00023268,0.00041038,-0.00026033,-0.00003720,-0.00006896,-0.00
 010839,0.00067294,-0.00167614,-0.00049392,-0.00036531,-0.00026439,0.00
 001845,0.00021104,0.00005745,-0.00013892,-0.00007393,-0.00001689,-0.00
 006110,-0.00007721,-0.00005986,-0.00013711,-0.00000479,-0.00009345,0.0
 0003757,-0.00015763,-0.00020024,-0.00102645,0.00068913,0.00263901,-0.0
 0287431,-0.00351097,-0.00068062,0.00107203,0.00111969,0.00029134,-0.18
 459148,0.15898431,0.19941008\\0.00000086,0.00000151,0.00000048,-0.0000
 0040,-0.00000015,0.00000010,-0.00000098,-0.00000092,-0.00000054,-0.000
 00192,0.00000172,-0.00000084,0.00000052,-0.00000084,0.00000140,-0.0000
 0067,-0.00000345,-0.00000079,0.00000102,0.00000101,-0.00000043,0.00000
 219,-0.00000062,0.00000141,0.00000042,0.00000126,0.00000011,0.00000157
 ,0.00000155,0.00000098,-0.00000012,0.00000236,-0.00000065,0.00000061,-
 0.00000133,0.00000064,-0.00000100,-0.00000045,-0.00000103,-0.00000227,
 0.00000068,-0.00000196,-0.00000060,0.00000231,-0.00000128,-0.00000124,
 0.00000098,-0.00000169,-0.00000187,-0.00000212,-0.00000121,-0.00000112
 ,-0.00000185,-0.00000052,0.00000065,-0.00000367,0.00000176,0.00000062,
 0.00000062,0.00000119,0.00000153,0.00000177,0.00000090,0.00000220,-0.0
 0000037,0.00000197\\\@


 Human beings, who are almost unique in having the
 ability to learn from the experience of others, are
 also remarkable for their apparent disinclination to do so.
                               -- Douglas Adams,
                                Last Chance to See
 File lengths (MBytes):  RWF=     58 Int=      0 D2E=      0 Chk=      3 Scr=      1
 Normal termination of Gaussian 16 at Mon Feb  6 10:25:34 2023.
real 192.60
user 750.58
sys 2.95
