 Entering Gaussian System, Link 0=g16
 Input=gaussian_test.inp
 Output=gaussian_test.log
 Initial command:
 /sw/restricted/lms/sw/Gaussian/g16_B01/g16/l1.exe "/scratch/user/peterchao1/peterchao1/6263495_1662996738000000578982175/Gau-71862.inp" -scrdir="/scratch/user/peterchao1/peterchao1/6263495_1662996738000000578982175/"
 Entering Link 1 = /sw/restricted/lms/sw/Gaussian/g16_B01/g16/l1.exe PID=     71996.
  
 Copyright (c) 1988-2017, Gaussian, Inc.  All Rights Reserved.
  
 This is part of the Gaussian(R) 16 program.  It is based on
 the Gaussian(R) 09 system (copyright 2009, Gaussian, Inc.),
 the Gaussian(R) 03 system (copyright 2003, Gaussian, Inc.),
 the Gaussian(R) 98 system (copyright 1998, Gaussian, Inc.),
 the Gaussian(R) 94 system (copyright 1995, Gaussian, Inc.),
 the Gaussian 92(TM) system (copyright 1992, Gaussian, Inc.),
 the Gaussian 90(TM) system (copyright 1990, Gaussian, Inc.),
 the Gaussian 88(TM) system (copyright 1988, Gaussian, Inc.),
 the Gaussian 86(TM) system (copyright 1986, Carnegie Mellon
 University), and the Gaussian 82(TM) system (copyright 1983,
 Carnegie Mellon University). Gaussian is a federally registered
 trademark of Gaussian, Inc.
  
 This software contains proprietary and confidential information,
 including trade secrets, belonging to Gaussian, Inc.
  
 This software is provided under written license and may be
 used, copied, transmitted, or stored only in accord with that
 written license.
  
 The following legend is applicable only to US Government
 contracts under FAR:
  
                    RESTRICTED RIGHTS LEGEND
  
 Use, reproduction and disclosure by the US Government is
 subject to restrictions as set forth in subparagraphs (a)
 and (c) of the Commercial Computer Software - Restricted
 Rights clause in FAR 52.227-19.
  
 Gaussian, Inc.
 340 Quinnipiac St., Bldg. 40, Wallingford CT 06492
  
  
 ---------------------------------------------------------------
 Warning -- This program may not be used in any manner that
 competes with the business of Gaussian, Inc. or will provide
 assistance to any competitor of Gaussian, Inc.  The licensee
 of this program is prohibited from giving any competitor of
 Gaussian, Inc. access to this program.  By using this program,
 the user acknowledges that Gaussian, Inc. is engaged in the
 business of creating and licensing software in the field of
 computational chemistry and represents and warrants to the
 licensee that it is not a competitor of Gaussian, Inc. and that
 it will not use this program in any manner prohibited above.
 ---------------------------------------------------------------
  

 Cite this work as:
 Gaussian 16, Revision B.01,
 M. J. Frisch, G. W. Trucks, H. B. Schlegel, G. E. Scuseria, 
 M. A. Robb, J. R. Cheeseman, G. Scalmani, V. Barone, 
 G. A. Petersson, H. Nakatsuji, X. Li, M. Caricato, A. V. Marenich, 
 J. Bloino, B. G. Janesko, R. Gomperts, B. Mennucci, H. P. Hratchian, 
 J. V. Ortiz, A. F. Izmaylov, J. L. Sonnenberg, D. Williams-Young, 
 F. Ding, F. Lipparini, F. Egidi, J. Goings, B. Peng, A. Petrone, 
 T. Henderson, D. Ranasinghe, V. G. Zakrzewski, J. Gao, N. Rega, 
 G. Zheng, W. Liang, M. Hada, M. Ehara, K. Toyota, R. Fukuda, 
 J. Hasegawa, M. Ishida, T. Nakajima, Y. Honda, O. Kitao, H. Nakai, 
 T. Vreven, K. Throssell, J. A. Montgomery, Jr., J. E. Peralta, 
 F. Ogliaro, M. J. Bearpark, J. J. Heyd, E. N. Brothers, K. N. Kudin, 
 V. N. Staroverov, T. A. Keith, R. Kobayashi, J. Normand, 
 K. Raghavachari, A. P. Rendell, J. C. Burant, S. S. Iyengar, 
 J. Tomasi, M. Cossi, J. M. Millam, M. Klene, C. Adamo, R. Cammi, 
 J. W. Ochterski, R. L. Martin, K. Morokuma, O. Farkas, 
 J. B. Foresman, and D. J. Fox, Gaussian, Inc., Wallingford CT, 2016.
 
 ******************************************
 Gaussian 16:  ES64L-G16RevB.01 20-Dec-2017
                12-Sep-2022 
 ******************************************
 %nprocshared=4
 Will use up to    4 processors via shared memory.
 %mem=8000mb
 ----------------------------------------------------------------------
 #T wB97XD/def2svpp opt=tight freq int(grid=ultrafine) scf=(verytight,q
 c) Volume=tight
 ----------------------------------------------------------------------
 -------
 Monomer
 -------
 Symbolic Z-matrix:
 Charge =  0 Multiplicity = 1
 N                     2.16636  -1.19619  -0.21712 
 C                     0.91271  -0.8467   -0.88363 
 C                    -0.01201  -0.00071   0.01055 
 C                     0.81853   0.94296   0.90488 
 O                     1.87813   1.54897   0.23023 
 C                    -0.92419   0.80526  -0.93019 
 O                    -2.11736   1.24933  -0.31816 
 C                    -0.87901  -0.89411   0.91908 
 O                    -1.9092   -1.55129   0.23761 
 H                     2.77328  -1.72126  -0.84546 
 H                     1.99987  -1.78806   0.59746 
 H                     0.33323  -1.72318  -1.23905 
 H                     1.18267  -0.25535  -1.77636 
 H                     1.17464   0.38145   1.79537 
 H                     0.17014   1.75028   1.29503 
 H                     2.48068   0.80759   0.01923 
 H                    -1.24965   0.16742  -1.768 
 H                    -0.34577   1.64888  -1.35476 
 H                    -1.90691   1.91769   0.34753 
 H                    -1.2792   -0.28196   1.75407 
 H                    -0.25221  -1.67773   1.38169 
 H                    -2.55402  -0.86875  -0.0086 
 

 GradGradGradGradGradGradGradGradGradGradGradGradGradGradGradGradGradGrad
 Initialization pass.
                           ----------------------------
                           !    Initial Parameters    !
                           ! (Angstroms and Degrees)  !
 --------------------------                            --------------------------
 ! Name  Definition              Value          Derivative Info.                !
 --------------------------------------------------------------------------------
 ! R1    R(1,2)                  1.4622         estimate D2E/DX2                !
 ! R2    R(1,10)                 1.0193         estimate D2E/DX2                !
 ! R3    R(1,11)                 1.0206         estimate D2E/DX2                !
 ! R4    R(2,3)                  1.5396         estimate D2E/DX2                !
 ! R5    R(2,12)                 1.1092         estimate D2E/DX2                !
 ! R6    R(2,13)                 1.1043         estimate D2E/DX2                !
 ! R7    R(3,4)                  1.5428         estimate D2E/DX2                !
 ! R8    R(3,6)                  1.5384         estimate D2E/DX2                !
 ! R9    R(3,8)                  1.5412         estimate D2E/DX2                !
 ! R10   R(4,5)                  1.3947         estimate D2E/DX2                !
 ! R11   R(4,14)                 1.1113         estimate D2E/DX2                !
 ! R12   R(4,15)                 1.1065         estimate D2E/DX2                !
 ! R13   R(5,16)                 0.9784         estimate D2E/DX2                !
 ! R14   R(6,7)                  1.4126         estimate D2E/DX2                !
 ! R15   R(6,17)                 1.1021         estimate D2E/DX2                !
 ! R16   R(6,18)                 1.1075         estimate D2E/DX2                !
 ! R17   R(7,19)                 0.9665         estimate D2E/DX2                !
 ! R18   R(8,9)                  1.3991         estimate D2E/DX2                !
 ! R19   R(8,20)                 1.11           estimate D2E/DX2                !
 ! R20   R(8,21)                 1.105          estimate D2E/DX2                !
 ! R21   R(9,22)                 0.9707         estimate D2E/DX2                !
 ! A1    A(2,1,10)             110.6497         estimate D2E/DX2                !
 ! A2    A(2,1,11)             111.2583         estimate D2E/DX2                !
 ! A3    A(10,1,11)            106.8831         estimate D2E/DX2                !
 ! A4    A(1,2,3)              112.4299         estimate D2E/DX2                !
 ! A5    A(1,2,12)             113.8982         estimate D2E/DX2                !
 ! A6    A(1,2,13)             106.6713         estimate D2E/DX2                !
 ! A7    A(3,2,12)             107.8495         estimate D2E/DX2                !
 ! A8    A(3,2,13)             108.7898         estimate D2E/DX2                !
 ! A9    A(12,2,13)            106.9662         estimate D2E/DX2                !
 ! A10   A(2,3,4)              110.4536         estimate D2E/DX2                !
 ! A11   A(2,3,6)              106.7894         estimate D2E/DX2                !
 ! A12   A(2,3,8)              111.2066         estimate D2E/DX2                !
 ! A13   A(4,3,6)              110.6852         estimate D2E/DX2                !
 ! A14   A(4,3,8)              108.4026         estimate D2E/DX2                !
 ! A15   A(6,3,8)              109.3062         estimate D2E/DX2                !
 ! A16   A(3,4,5)              113.2262         estimate D2E/DX2                !
 ! A17   A(3,4,14)             109.1438         estimate D2E/DX2                !
 ! A18   A(3,4,15)             109.5859         estimate D2E/DX2                !
 ! A19   A(5,4,14)             111.3275         estimate D2E/DX2                !
 ! A20   A(5,4,15)             107.3808         estimate D2E/DX2                !
 ! A21   A(14,4,15)            105.8953         estimate D2E/DX2                !
 ! A22   A(4,5,16)             104.0614         estimate D2E/DX2                !
 ! A23   A(3,6,7)              113.615          estimate D2E/DX2                !
 ! A24   A(3,6,17)             109.6792         estimate D2E/DX2                !
 ! A25   A(3,6,18)             108.8946         estimate D2E/DX2                !
 ! A26   A(7,6,17)             105.1806         estimate D2E/DX2                !
 ! A27   A(7,6,18)             111.5786         estimate D2E/DX2                !
 ! A28   A(17,6,18)            107.6773         estimate D2E/DX2                !
 ! A29   A(6,7,19)             109.3834         estimate D2E/DX2                !
 ! A30   A(3,8,9)              113.5385         estimate D2E/DX2                !
 ! A31   A(3,8,20)             109.0618         estimate D2E/DX2                !
 ! A32   A(3,8,21)             109.8031         estimate D2E/DX2                !
 ! A33   A(9,8,20)             111.0977         estimate D2E/DX2                !
 ! A34   A(9,8,21)             106.7668         estimate D2E/DX2                !
 ! A35   A(20,8,21)            106.3014         estimate D2E/DX2                !
 ! A36   A(8,9,22)             106.4024         estimate D2E/DX2                !
 ! D1    D(10,1,2,3)          -177.603          estimate D2E/DX2                !
 ! D2    D(10,1,2,12)           59.3311         estimate D2E/DX2                !
 ! D3    D(10,1,2,13)          -58.4355         estimate D2E/DX2                !
 ! D4    D(11,1,2,3)            63.7353         estimate D2E/DX2                !
 ! D5    D(11,1,2,12)          -59.3307         estimate D2E/DX2                !
 ! D6    D(11,1,2,13)         -177.0972         estimate D2E/DX2                !
 ! D7    D(1,2,3,4)             34.5957         estimate D2E/DX2                !
 ! D8    D(1,2,3,6)            155.0144         estimate D2E/DX2                !
 ! D9    D(1,2,3,8)            -85.81           estimate D2E/DX2                !
 ! D10   D(12,2,3,4)           160.9911         estimate D2E/DX2                !
 ! D11   D(12,2,3,6)           -78.5902         estimate D2E/DX2                !
 ! D12   D(12,2,3,8)            40.5855         estimate D2E/DX2                !
 ! D13   D(13,2,3,4)           -83.3265         estimate D2E/DX2                !
 ! D14   D(13,2,3,6)            37.0922         estimate D2E/DX2                !
 ! D15   D(13,2,3,8)           156.2678         estimate D2E/DX2                !
 ! D16   D(2,3,4,5)             42.3518         estimate D2E/DX2                !
 ! D17   D(2,3,4,14)           -82.2532         estimate D2E/DX2                !
 ! D18   D(2,3,4,15)           162.2011         estimate D2E/DX2                !
 ! D19   D(6,3,4,5)            -75.7055         estimate D2E/DX2                !
 ! D20   D(6,3,4,14)           159.6896         estimate D2E/DX2                !
 ! D21   D(6,3,4,15)            44.1438         estimate D2E/DX2                !
 ! D22   D(8,3,4,5)            164.4224         estimate D2E/DX2                !
 ! D23   D(8,3,4,14)            39.8175         estimate D2E/DX2                !
 ! D24   D(8,3,4,15)           -75.7283         estimate D2E/DX2                !
 ! D25   D(2,3,6,7)            158.4689         estimate D2E/DX2                !
 ! D26   D(2,3,6,17)            41.0891         estimate D2E/DX2                !
 ! D27   D(2,3,6,18)           -76.5091         estimate D2E/DX2                !
 ! D28   D(4,3,6,7)            -81.2609         estimate D2E/DX2                !
 ! D29   D(4,3,6,17)           161.3594         estimate D2E/DX2                !
 ! D30   D(4,3,6,18)            43.7612         estimate D2E/DX2                !
 ! D31   D(8,3,6,7)             38.068          estimate D2E/DX2                !
 ! D32   D(8,3,6,17)           -79.3118         estimate D2E/DX2                !
 ! D33   D(8,3,6,18)           163.09           estimate D2E/DX2                !
 ! D34   D(2,3,8,9)            -73.4685         estimate D2E/DX2                !
 ! D35   D(2,3,8,20)           162.0649         estimate D2E/DX2                !
 ! D36   D(2,3,8,21)            45.9572         estimate D2E/DX2                !
 ! D37   D(4,3,8,9)            164.9221         estimate D2E/DX2                !
 ! D38   D(4,3,8,20)            40.4556         estimate D2E/DX2                !
 ! D39   D(4,3,8,21)           -75.6522         estimate D2E/DX2                !
 ! D40   D(6,3,8,9)             44.1914         estimate D2E/DX2                !
 ! D41   D(6,3,8,20)           -80.2752         estimate D2E/DX2                !
 ! D42   D(6,3,8,21)           163.6171         estimate D2E/DX2                !
 ! D43   D(3,4,5,16)           -66.6866         estimate D2E/DX2                !
 ! D44   D(14,4,5,16)           56.7251         estimate D2E/DX2                !
 ! D45   D(15,4,5,16)          172.2114         estimate D2E/DX2                !
 ! D46   D(3,6,7,19)            68.202          estimate D2E/DX2                !
 ! D47   D(17,6,7,19)         -171.8346         estimate D2E/DX2                !
 ! D48   D(18,6,7,19)          -55.3692         estimate D2E/DX2                !
 ! D49   D(3,8,9,22)           -70.3188         estimate D2E/DX2                !
 ! D50   D(20,8,9,22)           53.0407         estimate D2E/DX2                !
 ! D51   D(21,8,9,22)          168.5373         estimate D2E/DX2                !
 --------------------------------------------------------------------------------
 Number of steps in this run=    118 maximum allowed number of steps=    132.
 GradGradGradGradGradGradGradGradGradGradGradGradGradGradGradGradGradGrad

                    Distance matrix (angstroms):
                    1          2          3          4          5
     1  N    0.000000
     2  C    1.462196   0.000000
     3  C    2.495244   1.539590   0.000000
     4  C    2.766129   2.531900   1.542768   0.000000
     5  O    2.796261   2.812818   2.454054   1.394690   0.000000
     6  C    3.750428   2.470892   1.538397   2.534466   3.122924
     7  O    4.933658   3.727518   2.470462   3.195172   4.044060
     8  C    3.264418   2.542093   1.541191   2.501328   3.747658
     9  O    4.116193   3.117176   2.460732   3.755936   4.894440
    10  H    1.019256   2.056224   3.383913   3.739365   3.557080
    11  H    1.020571   2.064388   2.754398   2.991415   3.359386
    12  H    2.163894   1.109205   2.155822   3.455467   3.905438
    13  H    2.069792   1.104330   2.164521   2.959327   2.786688
    14  H    2.742728   2.958716   2.177097   1.111342   2.075498
    15  H    3.866926   3.470192   2.179227   1.106519   2.022757
    16  H    2.042001   2.451605   2.620482   1.888245   0.978388
    17  H    3.991710   2.546827   2.173310   3.467435   3.960373
    18  H    3.962251   2.834371   2.167174   2.638160   2.732742
    19  H    5.158154   4.136162   2.717443   2.947667   3.804762
    20  H    4.073480   3.475747   2.173645   2.573330   3.955142
    21  H    2.938967   2.679420   2.179471   2.870863   4.034329
    22  H    4.736311   3.575521   2.686204   3.935839   5.054340
                    6          7          8          9         10
     6  C    0.000000
     7  O    1.412600   0.000000
     8  C    2.511910   2.767421   0.000000
     9  O    2.808441   2.862816   1.399141   0.000000
    10  H    4.479035   5.746375   4.139687   4.809115   0.000000
    11  H    4.196323   5.197661   3.031586   3.932731   1.638491
    12  H    2.840679   3.960961   2.610441   2.690457   2.471596
    13  H    2.505944   3.909044   3.453105   3.910911   2.354886
    14  H    3.466032   4.007177   2.571453   3.958807   3.735115
    15  H    2.653716   2.843582   2.869639   4.042544   4.838351
    16  H    3.534765   4.631518   3.872081   4.988295   2.688564
    17  H    1.102124   2.006362   2.912840   2.722404   4.538959
    18  H    1.107488   2.091100   3.452751   3.901421   4.620145
    19  H    1.958528   0.966510   3.047863   3.470727   6.047264
    20  H    2.917760   2.709520   1.109989   2.075506   5.025114
    21  H    3.458549   3.864706   1.104961   2.017549   3.757087
    22  H    2.511570   2.184669   1.914917   0.970709   5.459603
                   11         12         13         14         15
    11  H    0.000000
    12  H    2.480860   0.000000
    13  H    2.941431   1.778979   0.000000
    14  H    2.612049   3.787499   3.628066   0.000000
    15  H    4.044056   4.302678   3.805416   1.770045   0.000000
    16  H    2.702393   3.549593   2.457401   2.245449   2.802667
    17  H    4.469750   2.521833   2.468803   4.315157   3.728719
    18  H    4.596277   3.441687   2.477903   3.720396   2.701442
    19  H    5.390546   4.559756   4.333423   3.735263   2.289081
    20  H    3.789246   3.692665   4.304120   2.542271   2.537977
    21  H    2.387269   2.685715   3.749041   2.539145   3.455019
    22  H    4.685119   3.252729   4.179008   4.326683   3.997474
                   16         17         18         19         20
    16  H    0.000000
    17  H    4.185614   0.000000
    18  H    3.253378   1.783952   0.000000
    19  H    4.537740   2.823281   2.325339   0.000000
    20  H    4.281767   3.550743   3.776805   2.685300   0.000000
    21  H    3.937234   3.784178   4.308509   4.090791   1.772441
    22  H    5.306517   2.422920   3.609292   2.882681   2.253102
                   21         22
    21  H    0.000000
    22  H    2.808143   0.000000
 Framework group  C1[X(C5H13NO3)]
 Deg. of freedom    60
                         Standard orientation:                         
 ---------------------------------------------------------------------
 Center     Atomic      Atomic             Coordinates (Angstroms)
 Number     Number       Type             X           Y           Z
 ---------------------------------------------------------------------
      1          7           0       -2.166356    1.196186   -0.217115
      2          6           0       -0.912706    0.846699   -0.883626
      3          6           0        0.012005    0.000714    0.010553
      4          6           0       -0.818528   -0.942961    0.904883
      5          8           0       -1.878128   -1.548971    0.230227
      6          6           0        0.924188   -0.805257   -0.930191
      7          8           0        2.117358   -1.249333   -0.318160
      8          6           0        0.879006    0.894107    0.919083
      9          8           0        1.909201    1.551292    0.237613
     10          1           0       -2.773282    1.721260   -0.845463
     11          1           0       -1.999868    1.788063    0.597458
     12          1           0       -0.333226    1.723176   -1.239050
     13          1           0       -1.182673    0.255353   -1.776359
     14          1           0       -1.174635   -0.381450    1.795374
     15          1           0       -0.170139   -1.750281    1.295025
     16          1           0       -2.480684   -0.807587    0.019231
     17          1           0        1.249646   -0.167424   -1.768000
     18          1           0        0.345770   -1.648884   -1.354757
     19          1           0        1.906908   -1.917693    0.347533
     20          1           0        1.279203    0.281963    1.754067
     21          1           0        0.252212    1.677731    1.381687
     22          1           0        2.554020    0.868750   -0.008599
 ---------------------------------------------------------------------
 Rotational constants (GHZ):           2.0543504           1.2982106           0.9986357
   152 basis functions,   277 primitive gaussians,   161 cartesian basis functions
    37 alpha electrons       37 beta electrons
       nuclear repulsion energy       530.0596511453 Hartrees.
 NAtoms=   22 NActive=   22 NUniq=   22 SFac= 1.00D+00 NAtFMM=   60 NAOKFM=F Big=F
 Nuclear repulsion after empirical dispersion term =      530.0429588317 Hartrees.
   1 Symmetry operations used in ECPInt.
 ECPInt:  NShTT=    3240 NPrTT=   13036 LenC2=    3209 LenP2D=   10228.
 LDataN:  DoStor=T MaxTD1= 4 Len=   56
 ExpMin= 1.22D-01 ExpMax= 2.27D+03 ExpMxC= 3.41D+02 IAcc=3 IRadAn=         5 AccDes= 0.00D+00
 Harris functional with IExCor= 4639 and IRadAn=       5 diagonalized for initial guess.
 HarFok:  IExCor= 4639 AccDes= 0.00D+00 IRadAn=         5 IDoV= 1 UseB2=F ITyADJ=14
 ICtDFT=  3500011 ScaDFX=  1.000000  1.000000  1.000000  1.000000
 FoFCou: FMM=F IPFlag=           0 FMFlag=      100000 FMFlg1=           0
         NFxFlg=           0 DoJE=T BraDBF=F KetDBF=T FulRan=T
         wScrn=  0.000000 ICntrl=       500 IOpCl=  0 I1Cent=   200000004 NGrid=           0
         NMat0=    1 NMatS0=      1 NMatT0=    0 NMatD0=    1 NMtDS0=    0 NMtDT0=    0
 Petite list used in FoFCou.
     Minimum is close to point  3 DX=  1.84D-02 DF= -5.08D-05 DXR=  2.97D-02 DFR=  8.77D-04 which will be used.
     Accept linear search using points  2 and  3.
     Accept linear search using points  1 and  2.
     Accept linear search using points  2 and  3.
     Accept linear search using points  1 and  2.
     Minimum is close to point  2 DX= -1.86D-05 DF=  0.00D+00 DXR=  1.86D-05 DFR=  0.00D+00 which will be used.
 SCF Done:  E(RwB97XD) =  -478.216314488     a.u. after    8 cycles
            Convg  =    0.3186D-09                    35 Fock formations.
              S**2 =  0.0000                  -V/T =  2.0085

 **********************************************************************

            Population analysis using the SCF Density.

 **********************************************************************

 Orbital symmetries:
       Occupied  (A) (A) (A) (A) (A) (A) (A) (A) (A) (A) (A) (A)
                 (A) (A) (A) (A) (A) (A) (A) (A) (A) (A) (A) (A)
                 (A) (A) (A) (A) (A) (A) (A) (A) (A) (A) (A) (A)
                 (A)
       Virtual   (A) (A) (A) (A) (A) (A) (A) (A) (A) (A) (A) (A)
                 (A) (A) (A) (A) (A) (A) (A) (A) (A) (A) (A) (A)
                 (A) (A) (A) (A) (A) (A) (A) (A) (A) (A) (A) (A)
                 (A) (A) (A) (A) (A) (A) (A) (A) (A) (A) (A) (A)
                 (A) (A) (A) (A) (A) (A) (A) (A) (A) (A) (A) (A)
                 (A) (A) (A) (A) (A) (A) (A) (A) (A) (A) (A) (A)
                 (A) (A) (A) (A) (A) (A) (A) (A) (A) (A) (A) (A)
                 (A) (A) (A) (A) (A) (A) (A) (A) (A) (A) (A) (A)
                 (A) (A) (A) (A) (A) (A) (A) (A) (A) (A) (A) (A)
                 (A) (A) (A) (A) (A) (A) (A)
 The electronic state is 1-A.
 Alpha  occ. eigenvalues --  -19.26614 -19.24284 -19.23148 -14.44191 -10.33999
 Alpha  occ. eigenvalues --  -10.33796 -10.33565 -10.32426 -10.30302  -1.12990
 Alpha  occ. eigenvalues --   -1.10585  -1.10215  -0.99285  -0.89122  -0.78333
 Alpha  occ. eigenvalues --   -0.75575  -0.74476  -0.65378  -0.62681  -0.61072
 Alpha  occ. eigenvalues --   -0.59871  -0.56932  -0.56158  -0.54110  -0.53144
 Alpha  occ. eigenvalues --   -0.51293  -0.49725  -0.47925  -0.46396  -0.44259
 Alpha  occ. eigenvalues --   -0.42425  -0.42189  -0.40471  -0.37224  -0.34949
 Alpha  occ. eigenvalues --   -0.34047  -0.33244
 Alpha virt. eigenvalues --    0.10921   0.12729   0.15489   0.17090   0.18565
 Alpha virt. eigenvalues --    0.18992   0.19731   0.20358   0.21197   0.24053
 Alpha virt. eigenvalues --    0.24605   0.24972   0.26205   0.27346   0.28326
 Alpha virt. eigenvalues --    0.29165   0.32003   0.32433   0.36374   0.37721
 Alpha virt. eigenvalues --    0.44201   0.52504   0.54642   0.55339   0.57839
 Alpha virt. eigenvalues --    0.59462   0.60913   0.62205   0.62456   0.66274
 Alpha virt. eigenvalues --    0.67534   0.68576   0.70592   0.72476   0.73610
 Alpha virt. eigenvalues --    0.74018   0.75292   0.75702   0.76384   0.77594
 Alpha virt. eigenvalues --    0.78142   0.79625   0.81143   0.81479   0.82287
 Alpha virt. eigenvalues --    0.83260   0.84491   0.86549   0.92013   0.93336
 Alpha virt. eigenvalues --    0.94947   0.97925   1.04180   1.05999   1.08313
 Alpha virt. eigenvalues --    1.09167   1.12843   1.16368   1.19078   1.20390
 Alpha virt. eigenvalues --    1.24291   1.27205   1.30067   1.31317   1.40753
 Alpha virt. eigenvalues --    1.42202   1.45905   1.48447   1.59056   1.61135
 Alpha virt. eigenvalues --    1.68954   1.75692   1.76556   1.82308   1.84040
 Alpha virt. eigenvalues --    1.90031   1.90264   1.96908   1.98702   2.01243
 Alpha virt. eigenvalues --    2.03349   2.07348   2.12477   2.13922   2.17112
 Alpha virt. eigenvalues --    2.22018   2.25432   2.26926   2.28835   2.30112
 Alpha virt. eigenvalues --    2.38057   2.42743   2.49586   2.56835   2.60199
 Alpha virt. eigenvalues --    2.65908   2.69233   2.73514   2.74086   2.74970
 Alpha virt. eigenvalues --    2.78439   2.82168   2.90413   2.95901   2.97269
 Alpha virt. eigenvalues --    3.01584   3.06614   3.08642   3.09450   3.11140
 Alpha virt. eigenvalues --    3.11706   3.13317   3.46085   3.48982   3.50860
          Condensed to atoms (all electrons):
 Mulliken charges:
               1
     1  N   -0.542447
     2  C   -0.073256
     3  C   -0.343481
     4  C    0.077416
     5  O   -0.498139
     6  C    0.019670
     7  O   -0.498466
     8  C    0.075712
     9  O   -0.494848
    10  H    0.238042
    11  H    0.233773
    12  H    0.119892
    13  H    0.113492
    14  H    0.085565
    15  H    0.075078
    16  H    0.331515
    17  H    0.118211
    18  H    0.124548
    19  H    0.325749
    20  H    0.087161
    21  H    0.090467
    22  H    0.334346
 Sum of Mulliken charges =   0.00000
 Mulliken charges with hydrogens summed into heavy atoms:
               1
     1  N   -0.070632
     2  C    0.160128
     3  C   -0.343481
     4  C    0.238059
     5  O   -0.166624
     6  C    0.262429
     7  O   -0.172716
     8  C    0.253340
     9  O   -0.160502
 Electronic spatial extent (au):  <R**2>=           1283.7254
 Charge=              0.0000 electrons
 Dipole moment (field-independent basis, Debye):
    X=             -1.0719    Y=              0.9976    Z=              0.2396  Tot=              1.4838
 Evaluate density.
 Using the total density.
 Monte-Carlo method of calculating molar volume:
 based on  0.001 e/bohr**3 density envelope.
 Number of points per bohr**3 =  100 CutOff= 1.00D-04
 Using the SCF density.
 There are      1716 points.  Will hold      1716 in memory.
 LenV=  1048268191 MDV=  1048576000.
 Box volume = 5055.227 fraction occupied=0.221
 Integrated density= 5.1712592127896514D+01 error=-2.2287407872103486D+01
 Molar volume = 1116.510 bohr**3/mol ( 99.636 cm**3/mol)
 Recommended a0 for SCRF calculation =  4.25 angstrom (  8.03 bohr)
   1 Symmetry operations used in ECPInt.
 ECPInt:  NShTT=    3240 NPrTT=   13036 LenC2=    3209 LenP2D=   10228.
 LDataN:  DoStor=T MaxTD1= 5 Len=  102
 Calling FoFJK, ICntrl=      2127 FMM=F ISym2X=0 I1Cent= 0 IOpClX= 0 NMat=1 NMatS=1 NMatT=0.

 GradGradGradGradGradGradGradGradGradGradGradGradGradGradGradGradGradGrad
 FormGI is forming the generalized inverse of G from B-inverse, IUseBI=4.
 Internal  Forces:  Max     0.000000833 RMS     0.000000192
 Step number   1 out of a maximum of  118
 All quantities printed in internal units (Hartrees-Bohrs-Radians)
 Mixed Optimization -- En-DIIS/RFO-DIIS
 Second derivative matrix not updated -- first step.
 ITU=  0
     Eigenvalues ---    0.00230   0.00230   0.00242   0.00258   0.00869
     Eigenvalues ---    0.01525   0.01703   0.01762   0.04100   0.04161
     Eigenvalues ---    0.04533   0.04628   0.04649   0.04655   0.04741
     Eigenvalues ---    0.04944   0.05520   0.05784   0.05797   0.05814
     Eigenvalues ---    0.09316   0.11795   0.11809   0.11841   0.12840
     Eigenvalues ---    0.14016   0.14059   0.14079   0.14089   0.14758
     Eigenvalues ---    0.16000   0.16000   0.16000   0.16000   0.16000
     Eigenvalues ---    0.21941   0.21997   0.22014   0.22065   0.28275
     Eigenvalues ---    0.28414   0.28555   0.28661   0.32458   0.32601
     Eigenvalues ---    0.32684   0.32867   0.32971   0.33139   0.33208
     Eigenvalues ---    0.33448   0.36691   0.43594   0.44247   0.44457
     Eigenvalues ---    0.45763   0.46512   0.51699   0.53232   0.54096
 Linear search not attempted -- first point.
 Iteration  1 RMS(Cart)=  0.00001620 RMS(Int)=  0.00000000
 Iteration  2 RMS(Cart)=  0.00000000 RMS(Int)=  0.00000000
 Variable       Old X    -DE/DX   Delta X   Delta X   Delta X     New X
                                 (Linear)    (Quad)   (Total)
    R1        2.76315   0.00000   0.00000   0.00000   0.00000   2.76315
    R2        1.92611   0.00000   0.00000   0.00000   0.00000   1.92612
    R3        1.92860  -0.00000   0.00000  -0.00000  -0.00000   1.92860
    R4        2.90940   0.00000   0.00000   0.00000   0.00000   2.90941
    R5        2.09609  -0.00000   0.00000  -0.00000  -0.00000   2.09609
    R6        2.08688  -0.00000   0.00000  -0.00000  -0.00000   2.08688
    R7        2.91541  -0.00000   0.00000  -0.00000  -0.00000   2.91541
    R8        2.90715  -0.00000   0.00000  -0.00000  -0.00000   2.90715
    R9        2.91243   0.00000   0.00000   0.00000   0.00000   2.91243
   R10        2.63558  -0.00000   0.00000  -0.00000  -0.00000   2.63558
   R11        2.10013  -0.00000   0.00000  -0.00000  -0.00000   2.10013
   R12        2.09102  -0.00000   0.00000  -0.00000  -0.00000   2.09102
   R13        1.84889   0.00000   0.00000   0.00000   0.00000   1.84889
   R14        2.66943  -0.00000   0.00000  -0.00000  -0.00000   2.66943
   R15        2.08271  -0.00000   0.00000  -0.00000  -0.00000   2.08271
   R16        2.09285   0.00000   0.00000   0.00000   0.00000   2.09285
   R17        1.82644   0.00000   0.00000   0.00000   0.00000   1.82644
   R18        2.64399   0.00000   0.00000   0.00000   0.00000   2.64399
   R19        2.09758   0.00000   0.00000   0.00000   0.00000   2.09758
   R20        2.08807  -0.00000   0.00000  -0.00000  -0.00000   2.08807
   R21        1.83437   0.00000   0.00000   0.00000   0.00000   1.83437
    A1        1.93120  -0.00000   0.00000  -0.00000  -0.00000   1.93120
    A2        1.94182   0.00000   0.00000   0.00000   0.00000   1.94182
    A3        1.86546  -0.00000   0.00000  -0.00000  -0.00000   1.86546
    A4        1.96227   0.00000   0.00000   0.00000   0.00000   1.96227
    A5        1.98790  -0.00000   0.00000  -0.00000  -0.00000   1.98790
    A6        1.86177  -0.00000   0.00000   0.00000   0.00000   1.86177
    A7        1.88233  -0.00000   0.00000  -0.00000  -0.00000   1.88233
    A8        1.89874   0.00000   0.00000   0.00000   0.00000   1.89874
    A9        1.86691   0.00000   0.00000  -0.00000  -0.00000   1.86691
   A10        1.92778  -0.00000   0.00000   0.00000   0.00000   1.92778
   A11        1.86383   0.00000   0.00000   0.00000   0.00000   1.86383
   A12        1.94092   0.00000   0.00000   0.00000   0.00000   1.94092
   A13        1.93182   0.00000   0.00000   0.00000   0.00000   1.93182
   A14        1.89198  -0.00000   0.00000  -0.00000  -0.00000   1.89198
   A15        1.90775  -0.00000   0.00000  -0.00000  -0.00000   1.90775
   A16        1.97617  -0.00000   0.00000  -0.00000  -0.00000   1.97617
   A17        1.90492   0.00000   0.00000  -0.00000  -0.00000   1.90492
   A18        1.91264   0.00000   0.00000   0.00000   0.00000   1.91264
   A19        1.94303   0.00000   0.00000  -0.00000  -0.00000   1.94303
   A20        1.87415   0.00000   0.00000   0.00000   0.00000   1.87415
   A21        1.84822  -0.00000   0.00000   0.00000   0.00000   1.84822
   A22        1.81621  -0.00000   0.00000  -0.00000  -0.00000   1.81621
   A23        1.98296  -0.00000   0.00000  -0.00000  -0.00000   1.98296
   A24        1.91426   0.00000   0.00000  -0.00000  -0.00000   1.91426
   A25        1.90057   0.00000   0.00000   0.00000   0.00000   1.90057
   A26        1.83575  -0.00000   0.00000  -0.00000  -0.00000   1.83575
   A27        1.94741   0.00000   0.00000   0.00000   0.00000   1.94741
   A28        1.87932   0.00000   0.00000   0.00000   0.00000   1.87932
   A29        1.90910   0.00000   0.00000   0.00000   0.00000   1.90910
   A30        1.98162  -0.00000   0.00000  -0.00000  -0.00000   1.98162
   A31        1.90349  -0.00000   0.00000  -0.00000  -0.00000   1.90349
   A32        1.91643  -0.00000   0.00000  -0.00000  -0.00000   1.91642
   A33        1.93902   0.00000   0.00000   0.00000   0.00000   1.93902
   A34        1.86343   0.00000   0.00000   0.00000   0.00000   1.86343
   A35        1.85531   0.00000   0.00000  -0.00000  -0.00000   1.85531
   A36        1.85707   0.00000   0.00000   0.00000   0.00000   1.85708
    D1       -3.09976  -0.00000   0.00000  -0.00000  -0.00000  -3.09976
    D2        1.03552  -0.00000   0.00000  -0.00000  -0.00000   1.03552
    D3       -1.01989   0.00000   0.00000   0.00000   0.00000  -1.01989
    D4        1.11239  -0.00000   0.00000  -0.00000  -0.00000   1.11239
    D5       -1.03552  -0.00000   0.00000  -0.00000  -0.00000  -1.03552
    D6       -3.09093   0.00000   0.00000   0.00000   0.00000  -3.09093
    D7        0.60381   0.00000   0.00000   0.00003   0.00003   0.60383
    D8        2.70551   0.00000   0.00000   0.00003   0.00003   2.70554
    D9       -1.49767   0.00000   0.00000   0.00003   0.00003  -1.49764
   D10        2.80983   0.00000   0.00000   0.00002   0.00002   2.80985
   D11       -1.37166   0.00000   0.00000   0.00002   0.00002  -1.37163
   D12        0.70835   0.00000   0.00000   0.00002   0.00002   0.70837
   D13       -1.45432  -0.00000   0.00000   0.00002   0.00002  -1.45430
   D14        0.64738   0.00000   0.00000   0.00002   0.00002   0.64740
   D15        2.72739   0.00000   0.00000   0.00002   0.00002   2.72741
   D16        0.73918  -0.00000   0.00000  -0.00001  -0.00001   0.73917
   D17       -1.43559   0.00000   0.00000  -0.00000  -0.00000  -1.43559
   D18        2.83094   0.00000   0.00000  -0.00001  -0.00001   2.83094
   D19       -1.32131  -0.00000   0.00000  -0.00001  -0.00001  -1.32132
   D20        2.78711   0.00000   0.00000  -0.00001  -0.00001   2.78710
   D21        0.77045   0.00000   0.00000  -0.00001  -0.00001   0.77045
   D22        2.86971  -0.00000   0.00000  -0.00001  -0.00001   2.86970
   D23        0.69495   0.00000   0.00000  -0.00000  -0.00000   0.69494
   D24       -1.32171   0.00000   0.00000  -0.00001  -0.00001  -1.32171
   D25        2.76580  -0.00000   0.00000  -0.00002  -0.00002   2.76578
   D26        0.71714   0.00000   0.00000  -0.00002  -0.00002   0.71712
   D27       -1.33534  -0.00000   0.00000  -0.00002  -0.00002  -1.33535
   D28       -1.41827  -0.00000   0.00000  -0.00002  -0.00002  -1.41829
   D29        2.81625   0.00000   0.00000  -0.00002  -0.00002   2.81624
   D30        0.76378  -0.00000   0.00000  -0.00002  -0.00002   0.76376
   D31        0.66441  -0.00000   0.00000  -0.00002  -0.00002   0.66439
   D32       -1.38425  -0.00000   0.00000  -0.00002  -0.00002  -1.38427
   D33        2.84646  -0.00000   0.00000  -0.00002  -0.00002   2.84644
   D34       -1.28227  -0.00000   0.00000   0.00001   0.00001  -1.28226
   D35        2.82857  -0.00000   0.00000   0.00001   0.00001   2.82857
   D36        0.80210   0.00000   0.00000   0.00001   0.00001   0.80211
   D37        2.87843  -0.00000   0.00000   0.00001   0.00001   2.87844
   D38        0.70608  -0.00000   0.00000   0.00001   0.00001   0.70609
   D39       -1.32038   0.00000   0.00000   0.00001   0.00001  -1.32037
   D40        0.77129  -0.00000   0.00000   0.00001   0.00001   0.77129
   D41       -1.40107  -0.00000   0.00000   0.00001   0.00001  -1.40106
   D42        2.85566   0.00000   0.00000   0.00001   0.00001   2.85567
   D43       -1.16390   0.00000   0.00000   0.00001   0.00001  -1.16389
   D44        0.99004  -0.00000   0.00000   0.00000   0.00000   0.99004
   D45        3.00566   0.00000   0.00000   0.00001   0.00001   3.00566
   D46        1.19035   0.00000   0.00000  -0.00000  -0.00000   1.19035
   D47       -2.99908  -0.00000   0.00000  -0.00000  -0.00000  -2.99908
   D48       -0.96637  -0.00000   0.00000  -0.00000  -0.00000  -0.96638
   D49       -1.22729   0.00000   0.00000   0.00000   0.00000  -1.22729
   D50        0.92574  -0.00000   0.00000   0.00000   0.00000   0.92574
   D51        2.94153   0.00000   0.00000   0.00000   0.00000   2.94153
         Item               Value     Threshold  Converged?
 Maximum Force            0.000001     0.000015     YES
 RMS     Force            0.000000     0.000010     YES
 Maximum Displacement     0.000054     0.000060     YES
 RMS     Displacement     0.000016     0.000040     YES
 Optimization completed.
    -- Stationary point found.
                           ----------------------------
                           !   Optimized Parameters   !
                           ! (Angstroms and Degrees)  !
 --------------------------                            --------------------------
 ! Name  Definition              Value          Derivative Info.                !
 --------------------------------------------------------------------------------
 ! R1    R(1,2)                  1.4622         -DE/DX =    0.0                 !
 ! R2    R(1,10)                 1.0193         -DE/DX =    0.0                 !
 ! R3    R(1,11)                 1.0206         -DE/DX =    0.0                 !
 ! R4    R(2,3)                  1.5396         -DE/DX =    0.0                 !
 ! R5    R(2,12)                 1.1092         -DE/DX =    0.0                 !
 ! R6    R(2,13)                 1.1043         -DE/DX =    0.0                 !
 ! R7    R(3,4)                  1.5428         -DE/DX =    0.0                 !
 ! R8    R(3,6)                  1.5384         -DE/DX =    0.0                 !
 ! R9    R(3,8)                  1.5412         -DE/DX =    0.0                 !
 ! R10   R(4,5)                  1.3947         -DE/DX =    0.0                 !
 ! R11   R(4,14)                 1.1113         -DE/DX =    0.0                 !
 ! R12   R(4,15)                 1.1065         -DE/DX =    0.0                 !
 ! R13   R(5,16)                 0.9784         -DE/DX =    0.0                 !
 ! R14   R(6,7)                  1.4126         -DE/DX =    0.0                 !
 ! R15   R(6,17)                 1.1021         -DE/DX =    0.0                 !
 ! R16   R(6,18)                 1.1075         -DE/DX =    0.0                 !
 ! R17   R(7,19)                 0.9665         -DE/DX =    0.0                 !
 ! R18   R(8,9)                  1.3991         -DE/DX =    0.0                 !
 ! R19   R(8,20)                 1.11           -DE/DX =    0.0                 !
 ! R20   R(8,21)                 1.105          -DE/DX =    0.0                 !
 ! R21   R(9,22)                 0.9707         -DE/DX =    0.0                 !
 ! A1    A(2,1,10)             110.6497         -DE/DX =    0.0                 !
 ! A2    A(2,1,11)             111.2583         -DE/DX =    0.0                 !
 ! A3    A(10,1,11)            106.8831         -DE/DX =    0.0                 !
 ! A4    A(1,2,3)              112.4299         -DE/DX =    0.0                 !
 ! A5    A(1,2,12)             113.8982         -DE/DX =    0.0                 !
 ! A6    A(1,2,13)             106.6713         -DE/DX =    0.0                 !
 ! A7    A(3,2,12)             107.8495         -DE/DX =    0.0                 !
 ! A8    A(3,2,13)             108.7898         -DE/DX =    0.0                 !
 ! A9    A(12,2,13)            106.9662         -DE/DX =    0.0                 !
 ! A10   A(2,3,4)              110.4536         -DE/DX =    0.0                 !
 ! A11   A(2,3,6)              106.7894         -DE/DX =    0.0                 !
 ! A12   A(2,3,8)              111.2066         -DE/DX =    0.0                 !
 ! A13   A(4,3,6)              110.6852         -DE/DX =    0.0                 !
 ! A14   A(4,3,8)              108.4026         -DE/DX =    0.0                 !
 ! A15   A(6,3,8)              109.3062         -DE/DX =    0.0                 !
 ! A16   A(3,4,5)              113.2262         -DE/DX =    0.0                 !
 ! A17   A(3,4,14)             109.1438         -DE/DX =    0.0                 !
 ! A18   A(3,4,15)             109.5859         -DE/DX =    0.0                 !
 ! A19   A(5,4,14)             111.3275         -DE/DX =    0.0                 !
 ! A20   A(5,4,15)             107.3808         -DE/DX =    0.0                 !
 ! A21   A(14,4,15)            105.8953         -DE/DX =    0.0                 !
 ! A22   A(4,5,16)             104.0614         -DE/DX =    0.0                 !
 ! A23   A(3,6,7)              113.615          -DE/DX =    0.0                 !
 ! A24   A(3,6,17)             109.6792         -DE/DX =    0.0                 !
 ! A25   A(3,6,18)             108.8946         -DE/DX =    0.0                 !
 ! A26   A(7,6,17)             105.1806         -DE/DX =    0.0                 !
 ! A27   A(7,6,18)             111.5786         -DE/DX =    0.0                 !
 ! A28   A(17,6,18)            107.6773         -DE/DX =    0.0                 !
 ! A29   A(6,7,19)             109.3834         -DE/DX =    0.0                 !
 ! A30   A(3,8,9)              113.5385         -DE/DX =    0.0                 !
 ! A31   A(3,8,20)             109.0618         -DE/DX =    0.0                 !
 ! A32   A(3,8,21)             109.8031         -DE/DX =    0.0                 !
 ! A33   A(9,8,20)             111.0977         -DE/DX =    0.0                 !
 ! A34   A(9,8,21)             106.7668         -DE/DX =    0.0                 !
 ! A35   A(20,8,21)            106.3014         -DE/DX =    0.0                 !
 ! A36   A(8,9,22)             106.4024         -DE/DX =    0.0                 !
 ! D1    D(10,1,2,3)          -177.603          -DE/DX =    0.0                 !
 ! D2    D(10,1,2,12)           59.3311         -DE/DX =    0.0                 !
 ! D3    D(10,1,2,13)          -58.4355         -DE/DX =    0.0                 !
 ! D4    D(11,1,2,3)            63.7353         -DE/DX =    0.0                 !
 ! D5    D(11,1,2,12)          -59.3307         -DE/DX =    0.0                 !
 ! D6    D(11,1,2,13)         -177.0972         -DE/DX =    0.0                 !
 ! D7    D(1,2,3,4)             34.5957         -DE/DX =    0.0                 !
 ! D8    D(1,2,3,6)            155.0144         -DE/DX =    0.0                 !
 ! D9    D(1,2,3,8)            -85.81           -DE/DX =    0.0                 !
 ! D10   D(12,2,3,4)           160.9911         -DE/DX =    0.0                 !
 ! D11   D(12,2,3,6)           -78.5902         -DE/DX =    0.0                 !
 ! D12   D(12,2,3,8)            40.5855         -DE/DX =    0.0                 !
 ! D13   D(13,2,3,4)           -83.3265         -DE/DX =    0.0                 !
 ! D14   D(13,2,3,6)            37.0922         -DE/DX =    0.0                 !
 ! D15   D(13,2,3,8)           156.2678         -DE/DX =    0.0                 !
 ! D16   D(2,3,4,5)             42.3518         -DE/DX =    0.0                 !
 ! D17   D(2,3,4,14)           -82.2532         -DE/DX =    0.0                 !
 ! D18   D(2,3,4,15)           162.2011         -DE/DX =    0.0                 !
 ! D19   D(6,3,4,5)            -75.7055         -DE/DX =    0.0                 !
 ! D20   D(6,3,4,14)           159.6896         -DE/DX =    0.0                 !
 ! D21   D(6,3,4,15)            44.1438         -DE/DX =    0.0                 !
 ! D22   D(8,3,4,5)            164.4224         -DE/DX =    0.0                 !
 ! D23   D(8,3,4,14)            39.8175         -DE/DX =    0.0                 !
 ! D24   D(8,3,4,15)           -75.7283         -DE/DX =    0.0                 !
 ! D25   D(2,3,6,7)            158.4689         -DE/DX =    0.0                 !
 ! D26   D(2,3,6,17)            41.0891         -DE/DX =    0.0                 !
 ! D27   D(2,3,6,18)           -76.5091         -DE/DX =    0.0                 !
 ! D28   D(4,3,6,7)            -81.2609         -DE/DX =    0.0                 !
 ! D29   D(4,3,6,17)           161.3594         -DE/DX =    0.0                 !
 ! D30   D(4,3,6,18)            43.7612         -DE/DX =    0.0                 !
 ! D31   D(8,3,6,7)             38.068          -DE/DX =    0.0                 !
 ! D32   D(8,3,6,17)           -79.3118         -DE/DX =    0.0                 !
 ! D33   D(8,3,6,18)           163.09           -DE/DX =    0.0                 !
 ! D34   D(2,3,8,9)            -73.4685         -DE/DX =    0.0                 !
 ! D35   D(2,3,8,20)           162.0649         -DE/DX =    0.0                 !
 ! D36   D(2,3,8,21)            45.9572         -DE/DX =    0.0                 !
 ! D37   D(4,3,8,9)            164.9221         -DE/DX =    0.0                 !
 ! D38   D(4,3,8,20)            40.4556         -DE/DX =    0.0                 !
 ! D39   D(4,3,8,21)           -75.6522         -DE/DX =    0.0                 !
 ! D40   D(6,3,8,9)             44.1914         -DE/DX =    0.0                 !
 ! D41   D(6,3,8,20)           -80.2752         -DE/DX =    0.0                 !
 ! D42   D(6,3,8,21)           163.6171         -DE/DX =    0.0                 !
 ! D43   D(3,4,5,16)           -66.6866         -DE/DX =    0.0                 !
 ! D44   D(14,4,5,16)           56.7251         -DE/DX =    0.0                 !
 ! D45   D(15,4,5,16)          172.2114         -DE/DX =    0.0                 !
 ! D46   D(3,6,7,19)            68.202          -DE/DX =    0.0                 !
 ! D47   D(17,6,7,19)         -171.8346         -DE/DX =    0.0                 !
 ! D48   D(18,6,7,19)          -55.3692         -DE/DX =    0.0                 !
 ! D49   D(3,8,9,22)           -70.3188         -DE/DX =    0.0                 !
 ! D50   D(20,8,9,22)           53.0407         -DE/DX =    0.0                 !
 ! D51   D(21,8,9,22)          168.5373         -DE/DX =    0.0                 !
 --------------------------------------------------------------------------------
 GradGradGradGradGradGradGradGradGradGradGradGradGradGradGradGradGradGrad

                    Distance matrix (angstroms):
                    1          2          3          4          5
     1  N    0.000000
     2  C    1.462196   0.000000
     3  C    2.495244   1.539590   0.000000
     4  C    2.766129   2.531900   1.542768   0.000000
     5  O    2.796261   2.812818   2.454054   1.394690   0.000000
     6  C    3.750428   2.470892   1.538397   2.534466   3.122924
     7  O    4.933658   3.727518   2.470462   3.195172   4.044060
     8  C    3.264418   2.542093   1.541191   2.501328   3.747658
     9  O    4.116193   3.117176   2.460732   3.755936   4.894440
    10  H    1.019256   2.056224   3.383913   3.739365   3.557080
    11  H    1.020571   2.064388   2.754398   2.991415   3.359386
    12  H    2.163894   1.109205   2.155822   3.455467   3.905438
    13  H    2.069792   1.104330   2.164521   2.959327   2.786688
    14  H    2.742728   2.958716   2.177097   1.111342   2.075498
    15  H    3.866926   3.470192   2.179227   1.106519   2.022757
    16  H    2.042001   2.451605   2.620482   1.888245   0.978388
    17  H    3.991710   2.546827   2.173310   3.467435   3.960373
    18  H    3.962251   2.834371   2.167174   2.638160   2.732742
    19  H    5.158154   4.136162   2.717443   2.947667   3.804762
    20  H    4.073480   3.475747   2.173645   2.573330   3.955142
    21  H    2.938967   2.679420   2.179471   2.870863   4.034329
    22  H    4.736311   3.575521   2.686204   3.935839   5.054340
                    6          7          8          9         10
     6  C    0.000000
     7  O    1.412600   0.000000
     8  C    2.511910   2.767421   0.000000
     9  O    2.808441   2.862816   1.399141   0.000000
    10  H    4.479035   5.746375   4.139687   4.809115   0.000000
    11  H    4.196323   5.197661   3.031586   3.932731   1.638491
    12  H    2.840679   3.960961   2.610441   2.690457   2.471596
    13  H    2.505944   3.909044   3.453105   3.910911   2.354886
    14  H    3.466032   4.007177   2.571453   3.958807   3.735115
    15  H    2.653716   2.843582   2.869639   4.042544   4.838351
    16  H    3.534765   4.631518   3.872081   4.988295   2.688564
    17  H    1.102124   2.006362   2.912840   2.722404   4.538959
    18  H    1.107488   2.091100   3.452751   3.901421   4.620145
    19  H    1.958528   0.966510   3.047863   3.470727   6.047264
    20  H    2.917760   2.709520   1.109989   2.075506   5.025114
    21  H    3.458549   3.864706   1.104961   2.017549   3.757087
    22  H    2.511570   2.184669   1.914917   0.970709   5.459603
                   11         12         13         14         15
    11  H    0.000000
    12  H    2.480860   0.000000
    13  H    2.941431   1.778979   0.000000
    14  H    2.612049   3.787499   3.628066   0.000000
    15  H    4.044056   4.302678   3.805416   1.770045   0.000000
    16  H    2.702393   3.549593   2.457401   2.245449   2.802667
    17  H    4.469750   2.521833   2.468803   4.315157   3.728719
    18  H    4.596277   3.441687   2.477903   3.720396   2.701442
    19  H    5.390546   4.559756   4.333423   3.735263   2.289081
    20  H    3.789246   3.692665   4.304120   2.542271   2.537977
    21  H    2.387269   2.685715   3.749041   2.539145   3.455019
    22  H    4.685119   3.252729   4.179008   4.326683   3.997474
                   16         17         18         19         20
    16  H    0.000000
    17  H    4.185614   0.000000
    18  H    3.253378   1.783952   0.000000
    19  H    4.537740   2.823281   2.325339   0.000000
    20  H    4.281767   3.550743   3.776805   2.685300   0.000000
    21  H    3.937234   3.784178   4.308509   4.090791   1.772441
    22  H    5.306517   2.422920   3.609292   2.882681   2.253102
                   21         22
    21  H    0.000000
    22  H    2.808143   0.000000
 Framework group  C1[X(C5H13NO3)]
 Deg. of freedom    60
                         Standard orientation:                         
 ---------------------------------------------------------------------
 Center     Atomic      Atomic             Coordinates (Angstroms)
 Number     Number       Type             X           Y           Z
 ---------------------------------------------------------------------
      1          7           0       -2.166356    1.196186   -0.217115
      2          6           0       -0.912706    0.846699   -0.883626
      3          6           0        0.012005    0.000714    0.010553
      4          6           0       -0.818528   -0.942961    0.904883
      5          8           0       -1.878128   -1.548971    0.230227
      6          6           0        0.924188   -0.805257   -0.930191
      7          8           0        2.117358   -1.249333   -0.318160
      8          6           0        0.879006    0.894107    0.919083
      9          8           0        1.909201    1.551292    0.237613
     10          1           0       -2.773282    1.721260   -0.845463
     11          1           0       -1.999868    1.788063    0.597458
     12          1           0       -0.333226    1.723176   -1.239050
     13          1           0       -1.182673    0.255353   -1.776359
     14          1           0       -1.174635   -0.381450    1.795374
     15          1           0       -0.170139   -1.750281    1.295025
     16          1           0       -2.480684   -0.807587    0.019231
     17          1           0        1.249646   -0.167424   -1.768000
     18          1           0        0.345770   -1.648884   -1.354757
     19          1           0        1.906908   -1.917693    0.347533
     20          1           0        1.279203    0.281963    1.754067
     21          1           0        0.252212    1.677731    1.381687
     22          1           0        2.554020    0.868750   -0.008599
 ---------------------------------------------------------------------
 Rotational constants (GHZ):           2.0543504           1.2982106           0.9986357
 1\1\GINC-C001\FOpt\RwB97XD\def2SVPP\C5H13N1O3\PETERCHAO1\12-Sep-2022\0
 \\#T wB97XD/def2svpp opt=tight freq int(grid=ultrafine) scf=(verytight
 ,qc) Volume=tight\\Monomer\\0,1\N,2.166356,-1.196186,-0.217115\C,0.912
 706,-0.846699,-0.883626\C,-0.012005,-0.000714,0.010553\C,0.818528,0.94
 2961,0.904883\O,1.878128,1.548971,0.230227\C,-0.924188,0.805257,-0.930
 191\O,-2.117358,1.249333,-0.31816\C,-0.879006,-0.894107,0.919083\O,-1.
 909201,-1.551292,0.237613\H,2.773282,-1.72126,-0.845463\H,1.999868,-1.
 788063,0.597458\H,0.333226,-1.723176,-1.23905\H,1.182673,-0.255353,-1.
 776359\H,1.174635,0.38145,1.795374\H,0.170139,1.750281,1.295025\H,2.48
 0684,0.807587,0.019231\H,-1.249646,0.167424,-1.768\H,-0.34577,1.648884
 ,-1.354757\H,-1.906908,1.917693,0.347533\H,-1.279203,-0.281963,1.75406
 7\H,-0.252212,-1.677731,1.381687\H,-2.55402,-0.86875,-0.008599\\Versio
 n=ES64L-G16RevB.01\State=1-A\HF=-478.2163145\RMSD=3.454e-12\RMSF=2.191
 e-06\Dipole=0.421708,-0.3924897,0.0942584\Quadrupole=-1.5348346,-1.176
 6934,2.7115281,-8.6059604,-2.3363838,1.4507591\PG=C01 [X(C5H13N1O3)]\\
 @


 WE HAVE SEEN THAT MAN ON THE AVERAGE DOES NOT LIVE ABOVE
 TWO-AND-TWENTY YEARS.  DURING THESE TWO AND TWENTY
 YEARS HE IS LIABLE TO TWO AND TWENTY THOUSAND EVILS,
 MANY OF WHICH ARE INCURABLE.  YET EVEN IN THIS DREADFUL STATE
 MEN STILL STRUT AND POSE ON THE STAGE OF LIFE.
 THEY MAKE LOVE AT THE RISK OF DESTRUCTION,
 INTRIGUE, CARRY ON WAR, AND FORM PROJECTS, JUST AS IF THEY
 WERE TO LIVE IN LUXURY AND HAPPINESS FOR A THOUSAND
 AGES.

                                              -- VOLTAIRE
 File lengths (MBytes):  RWF=     11 Int=      0 D2E=      0 Chk=      3 Scr=      1
 Normal termination of Gaussian 16 at Mon Sep 12 10:33:19 2022.
 Link1:  Proceeding to internal job step number  2.
 ---------------------------------------------------------------------
 #T Geom=AllCheck Guess=TCheck SCRF=Check GenChk RwB97XD/def2SVPP Freq
 ---------------------------------------------------------------------
 Structure from the checkpoint file:  "/scratch/user/peterchao1/peterchao1/6263495_1662996738000000578982175/Gau-71996.chk"
 -------
 Monomer
 -------
 Charge =  0 Multiplicity = 1
 Redundant internal coordinates found in file.  (old form).
 N,0,2.166356,-1.196186,-0.217115
 C,0,0.912706,-0.846699,-0.883626
 C,0,-0.012005,-0.000714,0.010553
 C,0,0.818528,0.942961,0.904883
 O,0,1.878128,1.548971,0.230227
 C,0,-0.924188,0.805257,-0.930191
 O,0,-2.117358,1.249333,-0.31816
 C,0,-0.879006,-0.894107,0.919083
 O,0,-1.909201,-1.551292,0.237613
 H,0,2.773282,-1.72126,-0.845463
 H,0,1.999868,-1.788063,0.597458
 H,0,0.333226,-1.723176,-1.23905
 H,0,1.182673,-0.255353,-1.776359
 H,0,1.174635,0.38145,1.795374
 H,0,0.170139,1.750281,1.295025
 H,0,2.480684,0.807587,0.019231
 H,0,-1.249646,0.167424,-1.768
 H,0,-0.34577,1.648884,-1.354757
 H,0,-1.906908,1.917693,0.347533
 H,0,-1.279203,-0.281963,1.754067
 H,0,-0.252212,-1.677731,1.381687
 H,0,-2.55402,-0.86875,-0.008599
 Recover connectivity data from disk.

 GradGradGradGradGradGradGradGradGradGradGradGradGradGradGradGradGradGrad
 Initialization pass.
                           ----------------------------
                           !    Initial Parameters    !
                           ! (Angstroms and Degrees)  !
 --------------------------                            --------------------------
 ! Name  Definition              Value          Derivative Info.                !
 --------------------------------------------------------------------------------
 ! R1    R(1,2)                  1.4622         calculate D2E/DX2 analytically  !
 ! R2    R(1,10)                 1.0193         calculate D2E/DX2 analytically  !
 ! R3    R(1,11)                 1.0206         calculate D2E/DX2 analytically  !
 ! R4    R(2,3)                  1.5396         calculate D2E/DX2 analytically  !
 ! R5    R(2,12)                 1.1092         calculate D2E/DX2 analytically  !
 ! R6    R(2,13)                 1.1043         calculate D2E/DX2 analytically  !
 ! R7    R(3,4)                  1.5428         calculate D2E/DX2 analytically  !
 ! R8    R(3,6)                  1.5384         calculate D2E/DX2 analytically  !
 ! R9    R(3,8)                  1.5412         calculate D2E/DX2 analytically  !
 ! R10   R(4,5)                  1.3947         calculate D2E/DX2 analytically  !
 ! R11   R(4,14)                 1.1113         calculate D2E/DX2 analytically  !
 ! R12   R(4,15)                 1.1065         calculate D2E/DX2 analytically  !
 ! R13   R(5,16)                 0.9784         calculate D2E/DX2 analytically  !
 ! R14   R(6,7)                  1.4126         calculate D2E/DX2 analytically  !
 ! R15   R(6,17)                 1.1021         calculate D2E/DX2 analytically  !
 ! R16   R(6,18)                 1.1075         calculate D2E/DX2 analytically  !
 ! R17   R(7,19)                 0.9665         calculate D2E/DX2 analytically  !
 ! R18   R(8,9)                  1.3991         calculate D2E/DX2 analytically  !
 ! R19   R(8,20)                 1.11           calculate D2E/DX2 analytically  !
 ! R20   R(8,21)                 1.105          calculate D2E/DX2 analytically  !
 ! R21   R(9,22)                 0.9707         calculate D2E/DX2 analytically  !
 ! A1    A(2,1,10)             110.6497         calculate D2E/DX2 analytically  !
 ! A2    A(2,1,11)             111.2583         calculate D2E/DX2 analytically  !
 ! A3    A(10,1,11)            106.8831         calculate D2E/DX2 analytically  !
 ! A4    A(1,2,3)              112.4299         calculate D2E/DX2 analytically  !
 ! A5    A(1,2,12)             113.8982         calculate D2E/DX2 analytically  !
 ! A6    A(1,2,13)             106.6713         calculate D2E/DX2 analytically  !
 ! A7    A(3,2,12)             107.8495         calculate D2E/DX2 analytically  !
 ! A8    A(3,2,13)             108.7898         calculate D2E/DX2 analytically  !
 ! A9    A(12,2,13)            106.9662         calculate D2E/DX2 analytically  !
 ! A10   A(2,3,4)              110.4536         calculate D2E/DX2 analytically  !
 ! A11   A(2,3,6)              106.7894         calculate D2E/DX2 analytically  !
 ! A12   A(2,3,8)              111.2066         calculate D2E/DX2 analytically  !
 ! A13   A(4,3,6)              110.6852         calculate D2E/DX2 analytically  !
 ! A14   A(4,3,8)              108.4026         calculate D2E/DX2 analytically  !
 ! A15   A(6,3,8)              109.3062         calculate D2E/DX2 analytically  !
 ! A16   A(3,4,5)              113.2262         calculate D2E/DX2 analytically  !
 ! A17   A(3,4,14)             109.1438         calculate D2E/DX2 analytically  !
 ! A18   A(3,4,15)             109.5859         calculate D2E/DX2 analytically  !
 ! A19   A(5,4,14)             111.3275         calculate D2E/DX2 analytically  !
 ! A20   A(5,4,15)             107.3808         calculate D2E/DX2 analytically  !
 ! A21   A(14,4,15)            105.8953         calculate D2E/DX2 analytically  !
 ! A22   A(4,5,16)             104.0614         calculate D2E/DX2 analytically  !
 ! A23   A(3,6,7)              113.615          calculate D2E/DX2 analytically  !
 ! A24   A(3,6,17)             109.6792         calculate D2E/DX2 analytically  !
 ! A25   A(3,6,18)             108.8946         calculate D2E/DX2 analytically  !
 ! A26   A(7,6,17)             105.1806         calculate D2E/DX2 analytically  !
 ! A27   A(7,6,18)             111.5786         calculate D2E/DX2 analytically  !
 ! A28   A(17,6,18)            107.6773         calculate D2E/DX2 analytically  !
 ! A29   A(6,7,19)             109.3834         calculate D2E/DX2 analytically  !
 ! A30   A(3,8,9)              113.5385         calculate D2E/DX2 analytically  !
 ! A31   A(3,8,20)             109.0618         calculate D2E/DX2 analytically  !
 ! A32   A(3,8,21)             109.8031         calculate D2E/DX2 analytically  !
 ! A33   A(9,8,20)             111.0977         calculate D2E/DX2 analytically  !
 ! A34   A(9,8,21)             106.7668         calculate D2E/DX2 analytically  !
 ! A35   A(20,8,21)            106.3014         calculate D2E/DX2 analytically  !
 ! A36   A(8,9,22)             106.4024         calculate D2E/DX2 analytically  !
 ! D1    D(10,1,2,3)          -177.603          calculate D2E/DX2 analytically  !
 ! D2    D(10,1,2,12)           59.3311         calculate D2E/DX2 analytically  !
 ! D3    D(10,1,2,13)          -58.4355         calculate D2E/DX2 analytically  !
 ! D4    D(11,1,2,3)            63.7353         calculate D2E/DX2 analytically  !
 ! D5    D(11,1,2,12)          -59.3307         calculate D2E/DX2 analytically  !
 ! D6    D(11,1,2,13)         -177.0972         calculate D2E/DX2 analytically  !
 ! D7    D(1,2,3,4)             34.5957         calculate D2E/DX2 analytically  !
 ! D8    D(1,2,3,6)            155.0144         calculate D2E/DX2 analytically  !
 ! D9    D(1,2,3,8)            -85.81           calculate D2E/DX2 analytically  !
 ! D10   D(12,2,3,4)           160.9911         calculate D2E/DX2 analytically  !
 ! D11   D(12,2,3,6)           -78.5902         calculate D2E/DX2 analytically  !
 ! D12   D(12,2,3,8)            40.5855         calculate D2E/DX2 analytically  !
 ! D13   D(13,2,3,4)           -83.3265         calculate D2E/DX2 analytically  !
 ! D14   D(13,2,3,6)            37.0922         calculate D2E/DX2 analytically  !
 ! D15   D(13,2,3,8)           156.2678         calculate D2E/DX2 analytically  !
 ! D16   D(2,3,4,5)             42.3518         calculate D2E/DX2 analytically  !
 ! D17   D(2,3,4,14)           -82.2532         calculate D2E/DX2 analytically  !
 ! D18   D(2,3,4,15)           162.2011         calculate D2E/DX2 analytically  !
 ! D19   D(6,3,4,5)            -75.7055         calculate D2E/DX2 analytically  !
 ! D20   D(6,3,4,14)           159.6896         calculate D2E/DX2 analytically  !
 ! D21   D(6,3,4,15)            44.1438         calculate D2E/DX2 analytically  !
 ! D22   D(8,3,4,5)            164.4224         calculate D2E/DX2 analytically  !
 ! D23   D(8,3,4,14)            39.8175         calculate D2E/DX2 analytically  !
 ! D24   D(8,3,4,15)           -75.7283         calculate D2E/DX2 analytically  !
 ! D25   D(2,3,6,7)            158.4689         calculate D2E/DX2 analytically  !
 ! D26   D(2,3,6,17)            41.0891         calculate D2E/DX2 analytically  !
 ! D27   D(2,3,6,18)           -76.5091         calculate D2E/DX2 analytically  !
 ! D28   D(4,3,6,7)            -81.2609         calculate D2E/DX2 analytically  !
 ! D29   D(4,3,6,17)           161.3594         calculate D2E/DX2 analytically  !
 ! D30   D(4,3,6,18)            43.7612         calculate D2E/DX2 analytically  !
 ! D31   D(8,3,6,7)             38.068          calculate D2E/DX2 analytically  !
 ! D32   D(8,3,6,17)           -79.3118         calculate D2E/DX2 analytically  !
 ! D33   D(8,3,6,18)           163.09           calculate D2E/DX2 analytically  !
 ! D34   D(2,3,8,9)            -73.4685         calculate D2E/DX2 analytically  !
 ! D35   D(2,3,8,20)           162.0649         calculate D2E/DX2 analytically  !
 ! D36   D(2,3,8,21)            45.9572         calculate D2E/DX2 analytically  !
 ! D37   D(4,3,8,9)            164.9221         calculate D2E/DX2 analytically  !
 ! D38   D(4,3,8,20)            40.4556         calculate D2E/DX2 analytically  !
 ! D39   D(4,3,8,21)           -75.6522         calculate D2E/DX2 analytically  !
 ! D40   D(6,3,8,9)             44.1914         calculate D2E/DX2 analytically  !
 ! D41   D(6,3,8,20)           -80.2752         calculate D2E/DX2 analytically  !
 ! D42   D(6,3,8,21)           163.6171         calculate D2E/DX2 analytically  !
 ! D43   D(3,4,5,16)           -66.6866         calculate D2E/DX2 analytically  !
 ! D44   D(14,4,5,16)           56.7251         calculate D2E/DX2 analytically  !
 ! D45   D(15,4,5,16)          172.2114         calculate D2E/DX2 analytically  !
 ! D46   D(3,6,7,19)            68.202          calculate D2E/DX2 analytically  !
 ! D47   D(17,6,7,19)         -171.8346         calculate D2E/DX2 analytically  !
 ! D48   D(18,6,7,19)          -55.3692         calculate D2E/DX2 analytically  !
 ! D49   D(3,8,9,22)           -70.3188         calculate D2E/DX2 analytically  !
 ! D50   D(20,8,9,22)           53.0407         calculate D2E/DX2 analytically  !
 ! D51   D(21,8,9,22)          168.5373         calculate D2E/DX2 analytically  !
 --------------------------------------------------------------------------------
 Number of steps in this run=      2 maximum allowed number of steps=      2.
 GradGradGradGradGradGradGradGradGradGradGradGradGradGradGradGradGradGrad

                    Distance matrix (angstroms):
                    1          2          3          4          5
     1  N    0.000000
     2  C    1.462196   0.000000
     3  C    2.495244   1.539590   0.000000
     4  C    2.766129   2.531900   1.542768   0.000000
     5  O    2.796261   2.812818   2.454054   1.394690   0.000000
     6  C    3.750428   2.470892   1.538397   2.534466   3.122924
     7  O    4.933658   3.727518   2.470462   3.195172   4.044060
     8  C    3.264418   2.542093   1.541191   2.501328   3.747658
     9  O    4.116193   3.117176   2.460732   3.755936   4.894440
    10  H    1.019256   2.056224   3.383913   3.739365   3.557080
    11  H    1.020571   2.064388   2.754398   2.991415   3.359386
    12  H    2.163894   1.109205   2.155822   3.455467   3.905438
    13  H    2.069792   1.104330   2.164521   2.959327   2.786688
    14  H    2.742728   2.958716   2.177097   1.111342   2.075498
    15  H    3.866926   3.470192   2.179227   1.106519   2.022757
    16  H    2.042001   2.451605   2.620482   1.888245   0.978388
    17  H    3.991710   2.546827   2.173310   3.467435   3.960373
    18  H    3.962251   2.834371   2.167174   2.638160   2.732742
    19  H    5.158154   4.136162   2.717443   2.947667   3.804762
    20  H    4.073480   3.475747   2.173645   2.573330   3.955142
    21  H    2.938967   2.679420   2.179471   2.870863   4.034329
    22  H    4.736311   3.575521   2.686204   3.935839   5.054340
                    6          7          8          9         10
     6  C    0.000000
     7  O    1.412600   0.000000
     8  C    2.511910   2.767421   0.000000
     9  O    2.808441   2.862816   1.399141   0.000000
    10  H    4.479035   5.746375   4.139687   4.809115   0.000000
    11  H    4.196323   5.197661   3.031586   3.932731   1.638491
    12  H    2.840679   3.960961   2.610441   2.690457   2.471596
    13  H    2.505944   3.909044   3.453105   3.910911   2.354886
    14  H    3.466032   4.007177   2.571453   3.958807   3.735115
    15  H    2.653716   2.843582   2.869639   4.042544   4.838351
    16  H    3.534765   4.631518   3.872081   4.988295   2.688564
    17  H    1.102124   2.006362   2.912840   2.722404   4.538959
    18  H    1.107488   2.091100   3.452751   3.901421   4.620145
    19  H    1.958528   0.966510   3.047863   3.470727   6.047264
    20  H    2.917760   2.709520   1.109989   2.075506   5.025114
    21  H    3.458549   3.864706   1.104961   2.017549   3.757087
    22  H    2.511570   2.184669   1.914917   0.970709   5.459603
                   11         12         13         14         15
    11  H    0.000000
    12  H    2.480860   0.000000
    13  H    2.941431   1.778979   0.000000
    14  H    2.612049   3.787499   3.628066   0.000000
    15  H    4.044056   4.302678   3.805416   1.770045   0.000000
    16  H    2.702393   3.549593   2.457401   2.245449   2.802667
    17  H    4.469750   2.521833   2.468803   4.315157   3.728719
    18  H    4.596277   3.441687   2.477903   3.720396   2.701442
    19  H    5.390546   4.559756   4.333423   3.735263   2.289081
    20  H    3.789246   3.692665   4.304120   2.542271   2.537977
    21  H    2.387269   2.685715   3.749041   2.539145   3.455019
    22  H    4.685119   3.252729   4.179008   4.326683   3.997474
                   16         17         18         19         20
    16  H    0.000000
    17  H    4.185614   0.000000
    18  H    3.253378   1.783952   0.000000
    19  H    4.537740   2.823281   2.325339   0.000000
    20  H    4.281767   3.550743   3.776805   2.685300   0.000000
    21  H    3.937234   3.784178   4.308509   4.090791   1.772441
    22  H    5.306517   2.422920   3.609292   2.882681   2.253102
                   21         22
    21  H    0.000000
    22  H    2.808143   0.000000
 Framework group  C1[X(C5H13NO3)]
 Deg. of freedom    60
                         Standard orientation:                         
 ---------------------------------------------------------------------
 Center     Atomic      Atomic             Coordinates (Angstroms)
 Number     Number       Type             X           Y           Z
 ---------------------------------------------------------------------
      1          7           0       -2.166356    1.196186   -0.217115
      2          6           0       -0.912706    0.846699   -0.883626
      3          6           0        0.012005    0.000714    0.010553
      4          6           0       -0.818528   -0.942961    0.904883
      5          8           0       -1.878128   -1.548971    0.230227
      6          6           0        0.924188   -0.805257   -0.930191
      7          8           0        2.117358   -1.249333   -0.318160
      8          6           0        0.879006    0.894107    0.919083
      9          8           0        1.909201    1.551292    0.237613
     10          1           0       -2.773282    1.721260   -0.845463
     11          1           0       -1.999868    1.788063    0.597458
     12          1           0       -0.333226    1.723176   -1.239050
     13          1           0       -1.182673    0.255353   -1.776359
     14          1           0       -1.174635   -0.381450    1.795374
     15          1           0       -0.170139   -1.750281    1.295025
     16          1           0       -2.480684   -0.807587    0.019231
     17          1           0        1.249646   -0.167424   -1.768000
     18          1           0        0.345770   -1.648884   -1.354757
     19          1           0        1.906908   -1.917693    0.347533
     20          1           0        1.279203    0.281963    1.754067
     21          1           0        0.252212    1.677731    1.381687
     22          1           0        2.554020    0.868750   -0.008599
 ---------------------------------------------------------------------
 Rotational constants (GHZ):           2.0543504           1.2982106           0.9986357
   152 basis functions,   277 primitive gaussians,   161 cartesian basis functions
    37 alpha electrons       37 beta electrons
       nuclear repulsion energy       530.0596511453 Hartrees.
 NAtoms=   22 NActive=   22 NUniq=   22 SFac= 1.00D+00 NAtFMM=   60 NAOKFM=F Big=F
 Nuclear repulsion after empirical dispersion term =      530.0429588317 Hartrees.
   1 Symmetry operations used in ECPInt.
 ECPInt:  NShTT=    3240 NPrTT=   13036 LenC2=    3209 LenP2D=   10228.
 LDataN:  DoStor=T MaxTD1= 4 Len=   56
 Initial guess from the checkpoint file:  "/scratch/user/peterchao1/peterchao1/6263495_1662996738000000578982175/Gau-71996.chk"
 B after Tr=     0.000000    0.000000    0.000000
         Rot=    1.000000    0.000000   -0.000000    0.000000 Ang=   0.00 deg.
 SCF Done:  E(RwB97XD) =  -478.216314489     a.u. after    1 cycles
            Convg  =    0.3325D-09                     1 Fock formations.
              S**2 =  0.0000                  -V/T =  2.0085
 DoSCS=F DFT=T ScalE2(SS,OS)=  1.000000  1.000000
 NROrb=    152 NOA=    37 NOB=    37 NVA=   115 NVB=   115
   1 Symmetry operations used in ECPInt.
 ECPInt:  NShTT=    3240 NPrTT=   13036 LenC2=    3209 LenP2D=   10228.
 LDataN:  DoStor=T MaxTD1= 5 Len=  102
 Symmetrizing basis deriv contribution to polar:
 IMax=3 JMax=2 DiffMx= 0.00D+00
 Calling FoFCou, ICntrl=  3107 FMM=F I1Cent=   0 AccDes= 0.00D+00.
 End of G2Drv F.D. properties file   721 does not exist.
 End of G2Drv F.D. properties file   722 does not exist.
 End of G2Drv F.D. properties file   788 does not exist.
          IDoAtm=1111111111111111111111
 End of Minotr F.D. properties file   721 does not exist.
 End of Minotr F.D. properties file   722 does not exist.
 End of Minotr F.D. properties file   788 does not exist.

 **********************************************************************

            Population analysis using the SCF Density.

 **********************************************************************

 Orbital symmetries:
       Occupied  (A) (A) (A) (A) (A) (A) (A) (A) (A) (A) (A) (A)
                 (A) (A) (A) (A) (A) (A) (A) (A) (A) (A) (A) (A)
                 (A) (A) (A) (A) (A) (A) (A) (A) (A) (A) (A) (A)
                 (A)
       Virtual   (A) (A) (A) (A) (A) (A) (A) (A) (A) (A) (A) (A)
                 (A) (A) (A) (A) (A) (A) (A) (A) (A) (A) (A) (A)
                 (A) (A) (A) (A) (A) (A) (A) (A) (A) (A) (A) (A)
                 (A) (A) (A) (A) (A) (A) (A) (A) (A) (A) (A) (A)
                 (A) (A) (A) (A) (A) (A) (A) (A) (A) (A) (A) (A)
                 (A) (A) (A) (A) (A) (A) (A) (A) (A) (A) (A) (A)
                 (A) (A) (A) (A) (A) (A) (A) (A) (A) (A) (A) (A)
                 (A) (A) (A) (A) (A) (A) (A) (A) (A) (A) (A) (A)
                 (A) (A) (A) (A) (A) (A) (A) (A) (A) (A) (A) (A)
                 (A) (A) (A) (A) (A) (A) (A)
 The electronic state is 1-A.
 Alpha  occ. eigenvalues --  -19.26614 -19.24284 -19.23148 -14.44191 -10.33999
 Alpha  occ. eigenvalues --  -10.33796 -10.33565 -10.32426 -10.30302  -1.12990
 Alpha  occ. eigenvalues --   -1.10585  -1.10215  -0.99285  -0.89122  -0.78333
 Alpha  occ. eigenvalues --   -0.75575  -0.74476  -0.65378  -0.62681  -0.61072
 Alpha  occ. eigenvalues --   -0.59871  -0.56932  -0.56158  -0.54110  -0.53144
 Alpha  occ. eigenvalues --   -0.51293  -0.49725  -0.47925  -0.46396  -0.44259
 Alpha  occ. eigenvalues --   -0.42425  -0.42189  -0.40471  -0.37224  -0.34949
 Alpha  occ. eigenvalues --   -0.34047  -0.33244
 Alpha virt. eigenvalues --    0.10921   0.12729   0.15489   0.17090   0.18565
 Alpha virt. eigenvalues --    0.18992   0.19731   0.20358   0.21197   0.24053
 Alpha virt. eigenvalues --    0.24605   0.24972   0.26205   0.27346   0.28326
 Alpha virt. eigenvalues --    0.29165   0.32003   0.32433   0.36374   0.37721
 Alpha virt. eigenvalues --    0.44201   0.52504   0.54642   0.55339   0.57839
 Alpha virt. eigenvalues --    0.59462   0.60913   0.62205   0.62456   0.66274
 Alpha virt. eigenvalues --    0.67534   0.68576   0.70592   0.72476   0.73610
 Alpha virt. eigenvalues --    0.74018   0.75292   0.75702   0.76384   0.77594
 Alpha virt. eigenvalues --    0.78142   0.79625   0.81143   0.81479   0.82287
 Alpha virt. eigenvalues --    0.83260   0.84491   0.86549   0.92013   0.93336
 Alpha virt. eigenvalues --    0.94947   0.97925   1.04180   1.05999   1.08313
 Alpha virt. eigenvalues --    1.09167   1.12843   1.16368   1.19078   1.20390
 Alpha virt. eigenvalues --    1.24291   1.27205   1.30067   1.31317   1.40753
 Alpha virt. eigenvalues --    1.42202   1.45905   1.48447   1.59056   1.61135
 Alpha virt. eigenvalues --    1.68954   1.75692   1.76556   1.82308   1.84040
 Alpha virt. eigenvalues --    1.90031   1.90264   1.96908   1.98702   2.01243
 Alpha virt. eigenvalues --    2.03349   2.07348   2.12477   2.13922   2.17112
 Alpha virt. eigenvalues --    2.22018   2.25432   2.26926   2.28835   2.30112
 Alpha virt. eigenvalues --    2.38057   2.42743   2.49586   2.56835   2.60199
 Alpha virt. eigenvalues --    2.65908   2.69233   2.73514   2.74086   2.74970
 Alpha virt. eigenvalues --    2.78439   2.82168   2.90413   2.95901   2.97269
 Alpha virt. eigenvalues --    3.01584   3.06614   3.08642   3.09450   3.11140
 Alpha virt. eigenvalues --    3.11706   3.13317   3.46085   3.48982   3.50860
          Condensed to atoms (all electrons):
 Mulliken charges:
               1
     1  N   -0.542447
     2  C   -0.073256
     3  C   -0.343481
     4  C    0.077416
     5  O   -0.498139
     6  C    0.019670
     7  O   -0.498466
     8  C    0.075712
     9  O   -0.494848
    10  H    0.238042
    11  H    0.233773
    12  H    0.119892
    13  H    0.113492
    14  H    0.085565
    15  H    0.075078
    16  H    0.331515
    17  H    0.118211
    18  H    0.124548
    19  H    0.325749
    20  H    0.087161
    21  H    0.090467
    22  H    0.334346
 Sum of Mulliken charges =  -0.00000
 Mulliken charges with hydrogens summed into heavy atoms:
               1
     1  N   -0.070632
     2  C    0.160128
     3  C   -0.343481
     4  C    0.238059
     5  O   -0.166624
     6  C    0.262429
     7  O   -0.172716
     8  C    0.253340
     9  O   -0.160502
 APT charges:
               1
     1  N   -0.496357
     2  C    0.294330
     3  C   -0.130593
     4  C    0.491618
     5  O   -0.696248
     6  C    0.453570
     7  O   -0.641543
     8  C    0.489018
     9  O   -0.653809
    10  H    0.150419
    11  H    0.147851
    12  H   -0.045272
    13  H   -0.026261
    14  H   -0.077887
    15  H   -0.052873
    16  H    0.364476
    17  H   -0.019842
    18  H   -0.029326
    19  H    0.273732
    20  H   -0.072979
    21  H   -0.042140
    22  H    0.320114
 Sum of APT charges =  -0.00000
 APT charges with hydrogens summed into heavy atoms:
               1
     1  N   -0.198087
     2  C    0.222797
     3  C   -0.130593
     4  C    0.360858
     5  O   -0.331772
     6  C    0.404402
     7  O   -0.367811
     8  C    0.373900
     9  O   -0.333695
 Electronic spatial extent (au):  <R**2>=           1283.7254
 Charge=              0.0000 electrons
 Dipole moment (field-independent basis, Debye):
    X=             -1.0719    Y=              0.9976    Z=              0.2396  Tot=              1.4838
  Exact polarizability:  70.993  -3.067  66.513   0.918  -1.310  64.922
 Approx polarizability:  74.110  -1.893  72.148   0.785  -1.138  70.496
   1 Symmetry operations used in ECPInt.
 ECPInt:  NShTT=    3240 NPrTT=   13036 LenC2=    3209 LenP2D=   10228.
 LDataN:  DoStor=T MaxTD1= 6 Len=  172
 Calling FoFJK, ICntrl=    100127 FMM=F ISym2X=0 I1Cent= 0 IOpClX= 0 NMat=1 NMatS=1 NMatT=0.
 Full mass-weighted force constant matrix:
 Low frequencies ---  -12.9862  -11.9087   -3.2888   -0.0007   -0.0005   -0.0001
 Low frequencies ---  102.9599  134.7464  162.4998
 Diagonal vibrational polarizability:
       53.7070284      34.1182605      30.5854674
 Harmonic frequencies (cm**-1), IR intensities (KM/Mole), Raman scattering
 activities (A**4/AMU), depolarization ratios for plane and unpolarized
 incident light, reduced masses (AMU), force constants (mDyne/A),
 and normal coordinates:
                      1                      2                      3
[...]
 77123,0.00027030,0.00033116,-0.00217901,-0.00053412,0.00004677,0.00024
 437,0.00090616,0.00167639,-0.00087774,0.00101555,0.00011518,-0.0003813
 3,0.00126762,-0.00063349,0.10659810,0.22911548,-0.01542909,-0.01060759
 ,-0.00581852,-0.03490289,-0.05621853,-0.07430417,-0.00757381,-0.019204
 29,-0.00809352,0.00365371,-0.00192105,-0.00174323,0.00025182,0.0003204
 1,0.00137939,-0.00004030,0.00094954,-0.00077671,0.00027312,-0.00004544
 ,0.00011566,-0.00156390,-0.00160566,-0.00043528,-0.00000212,0.00092004
 ,0.00035969,0.00103894,0.00063454,0.00017989,-0.00023241,-0.00120602,0
 .00040678,0.04395810,0.06632022,0.07964862,0.00286052,0.01905661,-0.03
 275376,-0.06748921,-0.04174236,0.05992567,-0.00654978,-0.01011684,0.01
 452653,-0.00067926,-0.00042158,-0.00033141,0.00031274,-0.00020445,-0.0
 0057893,-0.00127549,-0.00004241,0.00255416,0.00064137,0.00004110,-0.00
 094520,-0.00136719,0.00350862,0.00263899,-0.00007298,0.00006892,-0.000
 37478,0.00116620,0.00019299,0.00015085,-0.00536180,0.00274202,-0.00329
 009,-0.00257300,-0.00695017,0.01228052,0.08195524,0.00169957,-0.003122
 68,0.00802209,-0.03829458,-0.12772553,0.11343595,0.00508051,0.01060852
 ,-0.01508662,0.00059619,0.00073531,0.00015343,-0.00063023,-0.00043967,
 -0.00042533,0.00223690,0.00105983,-0.00078937,-0.00065501,0.00012335,0
 .00021878,0.00096239,-0.00281389,-0.00214679,0.00002406,0.00036449,0.0
 0062907,0.00010271,-0.00028021,0.00049647,0.00175643,0.00018066,-0.000
 11559,-0.00657082,-0.01241640,0.02078060,0.03398652,0.13413055,0.00026
 494,0.00858131,-0.01531532,0.05210496,0.11154967,-0.21460318,0.0066969
 5,0.00931125,-0.01449641,0.00202888,0.00130633,-0.00078244,-0.00067633
 ,-0.00012785,0.00221056,-0.00116421,0.00117452,0.00006468,-0.00049561,
 -0.00013577,0.00043738,0.00033946,-0.00382145,-0.00201575,0.00034063,0
 .00033116,0.00075803,0.00004408,0.00015141,0.00052122,-0.00321678,0.00
 098133,0.00012168,-0.00210279,-0.00562859,0.00958681,-0.05380981,-0.12
 394573,0.23463941,-0.00006043,0.00079944,0.00060850,-0.00080681,0.0003
 5340,0.00025719,-0.00588781,0.00818753,-0.01269211,-0.08557551,0.04884
 467,-0.07227390,0.00387939,-0.02204982,0.03206954,-0.00102798,-0.00348
 721,-0.00254727,-0.00000651,-0.00021356,-0.00006217,-0.00049155,0.0002
 4220,-0.00200495,0.00041821,-0.00003791,0.00085581,0.00013399,-0.00003
 837,0.00016267,0.00009634,0.00007921,0.00019034,0.00005790,-0.00004182
 ,-0.00011717,-0.00006903,-0.00008243,-0.00008096,0.09305442,0.00090439
 ,-0.00031881,-0.00076577,-0.00037759,0.00068300,0.00038701,-0.00837340
 ,0.01020190,-0.01544795,0.04589227,-0.11140935,0.09196832,-0.00662035,
 -0.00814450,0.01884398,-0.00076544,-0.00338396,-0.00226568,-0.00021300
 ,0.00056225,0.00051170,-0.00100843,0.00078545,-0.00082736,0.00040183,0
 .00017589,0.00000738,-0.00009649,0.00002351,-0.00004456,0.00045249,-0.
 00027624,-0.00030746,-0.00001944,0.00002357,0.00010674,-0.00000210,-0.
 00002212,-0.00014554,-0.03956350,0.12242390,0.00012015,-0.00026191,0.0
 0127013,-0.00131815,0.00109330,0.00020744,-0.01113083,0.01021765,-0.01
 518317,-0.06985202,0.09001911,-0.19718366,0.00935278,0.01369009,-0.016
 93253,-0.00003506,-0.00436863,-0.00213355,-0.00066171,0.00048622,0.000
 77667,0.00086080,0.00143839,-0.00036389,0.00019548,-0.00047651,0.00058
 727,0.00035377,0.00021356,0.00045117,-0.00000518,-0.00145978,-0.000524
 41,0.00022545,-0.00016682,0.00008233,0.00008395,0.00006860,0.00031516,
 0.06983867,-0.10740403,0.21832862,0.00046139,0.00099892,0.00019907,-0.
 00264918,-0.00229101,-0.00184063,0.01076612,-0.01276215,-0.00581163,-0
 .12795392,0.10576314,0.04412910,-0.02704716,0.01728203,0.01553918,-0.0
 0015852,0.00058663,-0.00024582,-0.00002390,-0.00079435,-0.00065207,0.0
 0099033,0.00026102,-0.00010868,-0.00000570,0.00023387,-0.00014418,0.00
 002602,-0.00010418,0.00007687,-0.00001216,-0.00016645,0.00001494,0.000
 63399,-0.00048871,-0.00056609,-0.00001320,0.00004300,-0.00011286,-0.00
 523155,0.00976632,0.00331611,0.15322441,0.00008041,0.00057540,-0.00044
 488,-0.00267548,-0.00163429,-0.00088284,0.01070689,-0.01229088,-0.0056
 0345,0.11504762,-0.19912424,-0.06386498,-0.01367787,0.01637842,0.00693
 820,0.00241296,-0.00044530,0.00009700,-0.00056780,0.00112029,0.0018296
 1,0.00113516,-0.00035697,-0.00179225,-0.00077075,0.00034622,0.00050011
 ,-0.00018728,-0.00014122,-0.00009052,-0.00001404,0.00045509,0.00011132
 ,0.00063738,-0.00055045,-0.00074468,-0.00000267,-0.00006673,-0.0001868
 5,0.00816816,-0.01029359,-0.00563816,-0.11458692,0.20563997,-0.0004803
 9,0.00023297,0.00108959,-0.00350856,-0.00218621,-0.00152597,0.00989932
 ,-0.01705620,-0.00808438,0.04465091,-0.05837771,-0.07703069,0.01788380
 ,-0.01161908,-0.00755262,0.00180192,-0.00120693,0.00035136,-0.00035314
 ,0.00063758,0.00068715,0.00010033,0.00100549,-0.00088967,-0.00036345,-
 0.00008717,0.00007708,0.00012103,0.00002365,0.00017564,-0.00006870,-0.
 00047215,-0.00022223,0.00078151,-0.00074221,-0.00090963,0.00006735,0.0
 0009121,0.00004350,-0.01407235,0.01828677,0.00986544,-0.05732136,0.068
 12131,0.08512769,-0.00555312,0.00080234,0.00047938,-0.00106806,-0.0049
 1275,-0.00148004,-0.00014720,0.00173587,-0.00083424,-0.03358008,0.0245
 0732,0.01574238,-0.18546427,0.16605172,0.06569290,-0.00076315,0.000499
 66,0.00003943,0.00057712,-0.00027592,-0.00020102,-0.00013541,-0.000588
 76,0.00118148,0.00093836,0.00066113,-0.00011584,0.00104727,0.00211876,
 0.00031773,-0.00026859,0.00000267,-0.00016567,-0.00087794,0.00069723,-
 0.00043752,-0.00017664,-0.00040786,-0.00108773,0.00220325,0.00066942,-
 0.00059646,-0.00258033,-0.00349146,0.00207329,0.22621986,0.00147252,0.
 00297150,0.00014336,-0.00846649,0.00048458,-0.00472251,-0.00205730,-0.
 00029393,0.00214240,-0.01014149,0.01647857,0.00318158,0.20709538,-0.28
 321094,-0.06950115,0.00002964,0.00025429,-0.00049014,0.00040043,-0.000
 69943,-0.00013033,-0.00015948,0.00011659,-0.00062263,-0.00011267,-0.00
 070626,-0.00024980,0.00147625,0.00085225,0.00001390,0.00085175,0.00144
 331,0.00150736,0.00206261,-0.00028600,0.00079334,0.00033098,-0.0004322
 8,0.00048167,-0.00150041,-0.00131536,0.00266528,-0.00405799,-0.0003093
 8,0.00253925,-0.18816878,0.26500092,0.00074224,-0.00102346,-0.00735581
 ,-0.00217538,-0.00269462,0.00083341,-0.00096685,0.00135853,0.00122576,
 0.02376386,-0.01513702,-0.00769391,0.05615082,-0.04518477,-0.03952150,
 -0.00043463,-0.00019972,-0.00048378,0.00025038,-0.00016632,-0.00016808
 ,0.00014134,-0.00047867,-0.00011637,-0.00004844,-0.00006219,-0.0001753
 9,-0.00086966,-0.00158055,-0.00030416,0.00123103,0.00271466,0.00133408
 ,-0.00018565,0.00046427,-0.00049391,-0.00077394,-0.00037140,-0.0015981
 4,-0.00009428,-0.00191186,0.00040982,0.00352793,0.00209268,-0.00151970
 ,-0.08034277,0.06194755,0.05541795,0.00043155,0.00026955,0.00075339,-0
 .00085785,-0.00049534,-0.00201872,-0.00638940,-0.00976685,-0.01309234,
 -0.00119579,0.00332534,-0.00279253,-0.00016430,0.00012551,0.00033054,-
 0.07774195,-0.05876516,-0.07190726,0.00261024,0.02647168,0.03151538,-0
 .00078482,-0.00066661,0.00024722,0.00024651,-0.00026371,0.00113203,-0.
 00005127,0.00004760,-0.00001615,0.00010647,-0.00016651,-0.00003616,0.0
 0002613,0.00065143,0.00004576,-0.00079298,-0.00033116,0.00010879,-0.00
 096332,-0.00066024,-0.00078016,0.00025216,0.00014759,0.00032180,0.0001
 6971,-0.00026634,-0.00018692,0.09228634,-0.00049371,-0.00004018,-0.000
 01271,0.00142076,0.00133393,0.00082059,0.00650284,0.01055266,0.0131521
 9,0.00095711,-0.00269353,0.00221481,0.00001343,0.00033607,-0.00058323,
 -0.05067651,-0.14134409,-0.11588210,0.00268496,-0.00793284,-0.01150685
 ,0.00037646,0.00066909,-0.00022907,-0.00069746,-0.00059173,0.00079772,
 -0.00001576,0.00006355,-0.00004513,0.00005191,0.00005737,0.00007530,0.
 00005763,-0.00050841,0.00016536,-0.00038801,0.00011441,-0.00017682,0.0
 0050569,0.00051893,0.00074419,-0.00014147,0.00011003,0.00016792,-0.000
 02875,-0.00000170,-0.00002832,0.04526304,0.15049834,0.00045204,0.00019
 172,0.00036263,0.00111273,-0.00098041,0.00040033,-0.00856381,-0.011565
 60,-0.01493443,-0.00043215,0.00411034,-0.00221926,-0.00046700,-0.00031
 414,0.00084083,-0.06233407,-0.11327511,-0.19851934,0.00221790,-0.01317
 108,-0.01359223,-0.00222853,-0.00164858,-0.00074422,0.00105506,-0.0001
 5997,0.00243142,0.00001836,0.00002321,0.00002637,0.00006128,-0.0001986
 8,-0.00004341,-0.00042356,0.00069387,0.00029030,-0.00010159,0.00016336
 ,0.00036885,-0.00072248,-0.00077495,-0.00074445,0.00024146,0.00005578,
 0.00018029,0.00013394,-0.00022804,-0.00008205,0.06279352,0.12895925,0.
 21680724,-0.00015630,-0.00036767,-0.00000782,0.00150881,-0.00001677,-0
 .00083695,0.00991808,0.01453738,-0.00740336,0.00068922,0.00008625,-0.0
 0070769,-0.00006581,-0.00023516,-0.00005278,-0.11050674,-0.09765030,0.
 04598937,-0.02715747,-0.01599239,0.01863496,-0.00352494,0.00207681,-0.
 00209092,0.00059571,-0.00053379,0.00044455,-0.00002016,-0.00002739,0.0
 0000187,0.00006146,-0.00000353,0.00002428,-0.00013484,0.00000261,-0.00
 019664,0.00006238,0.00000539,0.00044738,0.00003727,-0.00006491,0.00033
 760,-0.00003396,-0.00025804,0.00001314,-0.00022657,0.00042223,0.000136
 18,-0.00267052,-0.00711505,0.00311909,0.13041841,0.00053412,0.00030713
 ,-0.00040579,-0.00075346,-0.00023417,0.00131675,-0.00854497,-0.0114131
 5,0.00599618,-0.00182398,-0.00042445,-0.00033558,0.00037194,0.00079714
 ,-0.00147680,-0.10208219,-0.21509043,0.07130416,0.01278775,0.01661569,
 -0.00699940,0.00243725,-0.00128501,0.00075270,0.00016146,0.00032018,0.
 00052200,0.00004394,-0.00008517,0.00005964,-0.00019550,0.00009161,-0.0
 0004673,0.00001181,0.00034317,0.00008065,0.00064159,-0.00056880,-0.000
 63728,-0.00012177,0.00011978,-0.00002193,0.00024065,0.00024857,0.00038
 105,0.00004599,-0.00019580,0.00006916,-0.00724731,-0.01160009,0.007472
 35,0.10401875,0.22087823,-0.00015455,-0.00006028,0.00023843,-0.0000284
 4,-0.00084468,-0.00091998,0.00765469,0.01978285,-0.00910711,0.00207321
 ,0.00152612,-0.00027095,-0.00002042,-0.00104626,0.00059606,0.04271853,
 0.06791189,-0.08594474,0.01679996,0.00752425,-0.00754909,-0.00394826,0
 .00166498,-0.00202411,0.00007459,-0.00040488,0.00149406,-0.00010969,0.
 00002707,-0.00002540,0.00011025,-0.00005100,-0.00002646,0.00016450,-0.
 00009736,0.00024309,-0.00005933,-0.00020754,0.00040775,0.00028812,-0.0
 0026082,0.00033879,0.00007784,-0.00037051,-0.00026926,-0.00012608,0.00
 037397,0.00038432,-0.01175960,-0.01817460,0.01138984,-0.05551789,-0.07
 891006,0.09192835,0.00005767,-0.00020285,-0.00022383,-0.00033081,-0.00
 022303,0.00007245,0.00023141,0.00118864,0.00051802,-0.00196506,0.00177
 966,0.00151571,0.00107457,-0.00040385,-0.00050499,0.00550426,0.0294345
 1,0.02976966,-0.07258751,-0.09942221,-0.08998293,0.00036108,0.00009148
 ,-0.00050121,-0.00034157,-0.00060371,0.00019846,-0.00003582,-0.0000477
 4,-0.00000903,-0.00005667,0.00011714,0.00001958,0.00010282,-0.00023121
 ,-0.00013178,0.00009906,0.00003200,-0.00007755,0.00062774,-0.00063819,
 -0.00016900,-0.00049224,-0.00133533,-0.00165344,-0.00009798,0.00034339
 ,0.00004865,-0.00456074,0.00210795,0.00269613,0.00069306,-0.00060444,0
 .00071234,0.07144101,-0.00038488,0.00011010,0.00018324,0.00013770,-0.0
 0017558,-0.00033355,-0.00098084,-0.00013082,-0.00041508,0.00102771,0.0
 0043895,0.00023271,-0.00082667,-0.00033676,0.00035808,-0.00469783,-0.0
 0963487,-0.00945567,-0.06384559,-0.24364517,-0.23728877,-0.00048346,-0
 .00148645,-0.00159791,0.00064956,-0.00028030,0.00101800,-0.00000566,0.
 00009074,-0.00002330,0.00010331,-0.00008019,-0.00001310,-0.00006404,0.
 00010535,0.00005024,-0.00011647,0.00003207,0.00019495,-0.00003302,-0.0
 0013429,-0.00010052,0.00044277,0.00062435,0.00026387,0.00005930,0.0000
 2322,0.00005314,0.00243656,0.00111364,0.00016256,-0.00059011,0.0018144
 7,0.00142313,0.06734682,0.25077317,-0.00016976,0.00010609,0.00002426,-
 0.00016935,0.00011717,-0.00034629,-0.00074772,0.00087455,0.00145091,-0
 .00082742,0.00061784,0.00169849,0.00048570,0.00001446,-0.00080654,-0.0
 0575601,-0.01482083,-0.01563592,-0.05429301,-0.23126793,-0.23509823,0.
 00031284,0.00067888,0.00151091,-0.00050243,0.00107241,-0.00101159,-0.0
 0005222,0.00000509,-0.00001520,-0.00002087,0.00006356,0.00002696,0.000
 01191,0.00004621,-0.00008272,0.00006399,-0.00011348,-0.00011559,0.0002
 1562,-0.00007149,-0.00013469,-0.00031288,-0.00071762,-0.00024854,0.000
 02570,0.00012734,0.00000035,0.00480929,-0.00064508,-0.00095579,-0.0013
 6935,0.00048986,0.00044486,0.05854868,0.24483600,0.24957019,0.00008072
 ,-0.00035303,0.00009802,-0.00112611,-0.00334869,0.00284837,-0.00676835
 ,0.00936496,0.01239710,-0.00057506,0.00048284,0.00199770,0.00051456,-0
 .00020120,-0.00087829,-0.00123785,0.00068218,-0.00021869,0.00047638,0.
 00052557,-0.00135673,-0.09342591,0.05873011,0.07514679,0.00503780,-0.0
 2374847,-0.02965043,0.00003144,0.00000696,-0.00005868,0.00039786,0.000
 07246,-0.00005968,-0.00000410,-0.00014515,-0.00031181,-0.00101590,0.00
 055105,0.00073378,-0.00056958,0.00029450,-0.00030889,0.00005367,-0.000
 68053,-0.00007455,0.00010019,0.00042664,0.00016812,-0.00003238,-0.0000
 9133,0.00010266,0.00007672,-0.00003028,0.00011704,0.00013315,-0.000089
 65,-0.00001765,0.10075135,0.00015498,0.00021519,-0.00005337,-0.0011056
 4,-0.00263566,0.00207287,-0.00787261,0.01023292,0.01325804,-0.00115088
 ,0.00086595,0.00066570,0.00036258,0.00018464,0.00004091,-0.00037635,0.
 00063568,-0.00036102,0.00064391,-0.00064244,0.00113477,0.05478562,-0.1
 2357014,-0.09574430,-0.00523569,-0.01061454,-0.01885597,-0.00008121,0.
 00000978,-0.00005042,-0.00041018,-0.00004301,-0.00008059,-0.00005893,0
 .00013075,0.00026406,-0.00061370,0.00045560,0.00068275,0.00032313,0.00
 009379,-0.00018641,-0.00005251,-0.00036799,0.00013503,-0.00002112,-0.0
 0000887,0.00003196,0.00002695,-0.00007211,0.00020293,-0.00005801,0.000
 02791,-0.00007430,0.00031511,-0.00011304,0.00014705,-0.04964572,0.1361
 1974,0.00029301,0.00005132,0.00020951,0.00050142,0.00380389,-0.0020750
 4,0.01110175,-0.01096594,-0.01408007,-0.00079076,-0.00149872,-0.000167
 26,-0.00026756,0.00051639,0.00048259,0.00232684,-0.00161348,-0.0005211
 1,-0.00113395,-0.00000400,0.00274408,0.07240443,-0.09358281,-0.1814164
 2,-0.00698517,-0.01503579,-0.01625007,0.00001337,-0.00011304,0.0001040
 3,0.00017808,-0.00004587,-0.00002172,-0.00031888,0.00004822,0.00028728
 ,0.00081673,-0.00069600,-0.00064409,0.00022581,0.00022308,0.00029257,0
 .00009785,0.00083625,0.00036066,-0.00021913,-0.00031794,-0.00014238,-0
 .00006240,0.00001579,0.00026060,-0.00024185,0.00017944,0.00007757,-0.0
 0009459,0.00124144,-0.00077547,-0.07384661,0.11158313,0.19966159,-0.00
 036147,-0.00047740,0.00047483,0.00038678,0.00010800,0.00005085,0.01065
 940,-0.01342142,0.00813245,0.00108307,0.00030457,0.00022743,-0.0000628
 0,0.00021819,0.00008609,-0.00322783,-0.00232437,0.00206682,0.00052362,
 0.00068880,-0.00093144,-0.12506421,0.10222083,-0.05351892,-0.02578911,
 0.01527057,-0.01639545,0.00012743,0.00009608,-0.00009162,-0.00084585,0
 .00012247,0.00028720,-0.00000197,0.00029043,-0.00005406,0.00023432,-0.
 00009014,-0.00021373,0.00004131,0.00002705,-0.00009463,-0.00009024,-0.
 00011530,0.00014597,-0.00009886,-0.00000385,-0.00004966,-0.00000153,0.
 00007074,0.00011704,0.00068613,-0.00049343,0.00069751,-0.00000342,-0.0
 0018089,0.00011959,-0.00535722,0.00968408,-0.00452767,0.14941388,-0.00
 010365,0.00035714,-0.00037270,0.00122095,0.00019372,-0.00063967,0.0101
 3467,-0.01113399,0.00612859,0.00102972,-0.00028656,0.00176244,-0.00069
 681,0.00038291,-0.00054877,-0.00244343,-0.00156875,0.00067255,-0.00015
 933,0.00007488,0.00078898,0.11153241,-0.19466109,0.07740233,-0.0150308
 8,0.01620468,-0.00927706,-0.00012311,0.00015300,-0.00022581,-0.0008230
 8,0.00054857,0.00015557,-0.00020431,0.00025227,0.00031906,0.00015093,0
 .00002735,-0.00009855,-0.00061947,-0.00031860,-0.00078572,-0.00015136,
 0.00034628,0.00008580,0.00006555,-0.00026938,0.00013054,-0.00002931,-0
 .00000394,0.00015526,0.00059190,-0.00048191,0.00069966,-0.00006850,0.0
 0052373,-0.00016053,0.00833230,-0.01054307,0.00728031,-0.10879133,0.20
 038945,0.00012158,-0.00036468,0.00000558,-0.00129742,0.00091732,0.0007
 0899,-0.00980483,0.01692737,-0.00953817,-0.00007558,-0.00105568,-0.000
 86910,0.00043847,0.00001859,0.00011983,0.00395331,0.00192287,-0.001705
 81,-0.00003414,-0.00041099,0.00163479,-0.05381274,0.07091776,-0.090366
 54,-0.01777230,0.01045430,-0.00857576,0.00005685,-0.00013052,0.0001206
 4,0.00117242,-0.00009715,0.00019540,-0.00005019,-0.00034548,-0.0003308
 0,-0.00029089,-0.00018118,0.00019578,0.00010506,-0.00006371,0.00040984
 ,-0.00017128,-0.00010936,0.00024547,-0.00010360,0.00030419,0.00003341,
 -0.00007558,-0.00008464,0.00007562,-0.00080120,0.00067547,-0.00086989,
 0.00005624,0.00032259,-0.00035303,0.01294749,-0.01663908,0.01119602,0.
 06736721,-0.08091962,0.09955911,0.00041718,-0.00008101,0.00000207,-0.0
 0038189,0.00033522,0.00011285,-0.00049527,0.00167341,0.00038106,-0.000
 11603,-0.00059942,-0.00095083,0.00088690,0.00046900,0.00016872,-0.0012
 5369,-0.00332463,0.00125696,-0.00148639,0.00267699,0.00032342,-0.02918
 816,0.02370145,-0.01340904,-0.22358826,0.18530417,-0.08739637,-0.00000
 533,-0.00009756,0.00003843,-0.00001468,-0.00000921,0.00001565,-0.00017
 686,0.00002162,0.00005764,0.00010463,-0.00001449,-0.00007150,0.0001402
 2,-0.00000517,0.00026734,-0.00011601,0.00002730,0.00003556,-0.00021757
 ,0.00002298,-0.00003237,0.00007771,-0.00036446,0.00115198,-0.00024994,
 0.00060207,0.00023568,0.00014598,0.00009537,-0.00035467,0.00245864,0.0
 0038619,0.00052926,-0.00225143,-0.00381388,-0.00192888,0.25531024,0.00
 013595,-0.00029736,-0.00007948,0.00012789,0.00001442,0.00036791,-0.001
 43956,-0.00037288,-0.00145642,-0.00017101,-0.00002182,0.00031856,0.000
 06582,-0.00043428,0.00013835,-0.00701130,0.00153884,0.00443736,0.00286
 342,0.00095533,-0.00123836,-0.01667638,0.01384246,-0.00678676,0.230741
 60,-0.27204578,0.08294094,0.00007672,-0.00004822,0.00004938,0.00014971
 ,-0.00004303,-0.00002712,0.00026932,-0.00012471,-0.00015155,-0.0001195
 2,0.00005616,0.00015808,0.00028587,0.00000486,0.00023403,-0.00002125,-
 0.00026357,-0.00022423,-0.00002156,0.00010410,-0.00002360,-0.00010670,
 -0.00057941,0.00012595,0.00117180,-0.00018490,-0.00043163,0.00102434,0
 .00036767,-0.00139953,-0.00113553,-0.00036107,-0.00190567,-0.00320366,
 -0.00018669,-0.00205837,-0.20700595,0.25807990,-0.00011413,0.00007979,
 -0.00012217,0.00041589,0.00022972,-0.00050611,0.00099342,-0.00130142,0
 .00109274,-0.00019114,0.00050001,-0.00019347,0.00008548,0.00004991,-0.
 00016982,0.00152127,0.00219327,0.00186569,0.00093269,0.00145178,-0.004
 13226,-0.02206687,0.01504047,-0.00891918,-0.07731281,0.05693912,-0.043
 25402,-0.00000920,0.00000088,0.00001657,-0.00003691,-0.00001724,-0.000
 01745,-0.00019667,-0.00001046,0.00040864,0.00020100,0.00001947,-0.0000
 9990,-0.00014968,-0.00004381,-0.00013490,0.00006713,-0.00013616,0.0000
 4881,0.00002385,0.00004136,0.00001608,0.00067008,0.00025543,-0.0015991
 5,0.00007802,-0.00046584,-0.00053613,-0.00080757,-0.00111207,0.0008526
 7,0.00022492,0.00182628,0.00041712,-0.00389580,-0.00255266,-0.00189136
 ,0.09956703,-0.07298782,0.05685760\\0.00000161,0.00000456,-0.00000083,
 0.00000187,0.00000140,0.00000055,0.00000009,-0.00000092,-0.00000025,-0
 .00000165,0.00000085,0.00000018,-0.00000301,0.00000343,0.00000037,-0.0
 0000161,-0.00000155,-0.00000015,-0.00000224,-0.00000346,0.00000060,0.0
 0000130,-0.00000166,-0.00000061,0.00000295,-0.00000392,-0.00000040,0.0
 0000310,0.00000527,-0.00000001,0.00000306,0.00000312,0.00000026,0.0000
 0312,0.00000058,-0.00000031,0.00000042,0.00000251,0.00000005,-0.000000
 98,0.00000156,0.00000039,-0.00000351,0.00000014,0.00000042,-0.00000167
 ,0.00000463,0.00000055,-0.00000026,-0.00000219,-0.00000017,-0.00000331
 ,-0.00000084,0.00000042,-0.00000391,-0.00000430,-0.00000032,0.00000016
 ,-0.00000302,-0.00000020,0.00000276,-0.00000122,-0.00000036,0.00000170
 ,-0.00000496,-0.00000017\\\@


 A warm smile is the universal language of kindness.
                             -- William Arthur Ward
 File lengths (MBytes):  RWF=     68 Int=      0 D2E=      0 Chk=      3 Scr=      1
 Normal termination of Gaussian 16 at Mon Sep 12 10:35:55 2022.
real 217.08
user 831.56
sys 3.99
