 Entering Gaussian System, Link 0=g16
 Input=gaussian_test.inp
 Output=gaussian_test.log
 Initial command:
 /sw/restricted/lms/sw/Gaussian/g16_B01/g16/l1.exe "/scratch/user/peterchao1/peterchao1/8625361_1689034688000000867519606/Gau-132712.inp" -scrdir="/scratch/user/peterchao1/peterchao1/8625361_1689034688000000867519606/"
 Entering Link 1 = /sw/restricted/lms/sw/Gaussian/g16_B01/g16/l1.exe PID=    132716.
  
 Copyright (c) 1988-2017, Gaussian, Inc.  All Rights Reserved.
  
 This is part of the Gaussian(R) 16 program.  It is based on
 the Gaussian(R) 09 system (copyright 2009, Gaussian, Inc.),
 the Gaussian(R) 03 system (copyright 2003, Gaussian, Inc.),
 the Gaussian(R) 98 system (copyright 1998, Gaussian, Inc.),
 the Gaussian(R) 94 system (copyright 1995, Gaussian, Inc.),
 the Gaussian 92(TM) system (copyright 1992, Gaussian, Inc.),
 the Gaussian 90(TM) system (copyright 1990, Gaussian, Inc.),
 the Gaussian 88(TM) system (copyright 1988, Gaussian, Inc.),
 the Gaussian 86(TM) system (copyright 1986, Carnegie Mellon
 University), and the Gaussian 82(TM) system (copyright 1983,
 Carnegie Mellon University). Gaussian is a federally registered
 trademark of Gaussian, Inc.
  
 This software contains proprietary and confidential information,
 including trade secrets, belonging to Gaussian, Inc.
  
 This software is provided under written license and may be
 used, copied, transmitted, or stored only in accord with that
 written license.
  
 The following legend is applicable only to US Government
 contracts under FAR:
  
                    RESTRICTED RIGHTS LEGEND
  
 Use, reproduction and disclosure by the US Government is
 subject to restrictions as set forth in subparagraphs (a)
 and (c) of the Commercial Computer Software - Restricted
 Rights clause in FAR 52.227-19.
  
 Gaussian, Inc.
 340 Quinnipiac St., Bldg. 40, Wallingford CT 06492
  
  
 ---------------------------------------------------------------
 Warning -- This program may not be used in any manner that
 competes with the business of Gaussian, Inc. or will provide
 assistance to any competitor of Gaussian, Inc.  The licensee
 of this program is prohibited from giving any competitor of
 Gaussian, Inc. access to this program.  By using this program,
 the user acknowledges that Gaussian, Inc. is engaged in the
 business of creating and licensing software in the field of
 computational chemistry and represents and warrants to the
 licensee that it is not a competitor of Gaussian, Inc. and that
 it will not use this program in any manner prohibited above.
 ---------------------------------------------------------------
  

 Cite this work as:
 Gaussian 16, Revision B.01,
 M. J. Frisch, G. W. Trucks, H. B. Schlegel, G. E. Scuseria, 
 M. A. Robb, J. R. Cheeseman, G. Scalmani, V. Barone, 
 G. A. Petersson, H. Nakatsuji, X. Li, M. Caricato, A. V. Marenich, 
 J. Bloino, B. G. Janesko, R. Gomperts, B. Mennucci, H. P. Hratchian, 
 J. V. Ortiz, A. F. Izmaylov, J. L. Sonnenberg, D. Williams-Young, 
 F. Ding, F. Lipparini, F. Egidi, J. Goings, B. Peng, A. Petrone, 
 T. Henderson, D. Ranasinghe, V. G. Zakrzewski, J. Gao, N. Rega, 
 G. Zheng, W. Liang, M. Hada, M. Ehara, K. Toyota, R. Fukuda, 
 J. Hasegawa, M. Ishida, T. Nakajima, Y. Honda, O. Kitao, H. Nakai, 
 T. Vreven, K. Throssell, J. A. Montgomery, Jr., J. E. Peralta, 
 F. Ogliaro, M. J. Bearpark, J. J. Heyd, E. N. Brothers, K. N. Kudin, 
 V. N. Staroverov, T. A. Keith, R. Kobayashi, J. Normand, 
 K. Raghavachari, A. P. Rendell, J. C. Burant, S. S. Iyengar, 
 J. Tomasi, M. Cossi, J. M. Millam, M. Klene, C. Adamo, R. Cammi, 
 J. W. Ochterski, R. L. Martin, K. Morokuma, O. Farkas, 
 J. B. Foresman, and D. J. Fox, Gaussian, Inc., Wallingford CT, 2016.
 
 ******************************************
 Gaussian 16:  ES64L-G16RevB.01 20-Dec-2017
                10-Jul-2023 
 ******************************************
 %nprocshared=4
 Will use up to    4 processors via shared memory.
 %mem=8000mb
 %chk=19.chk
 %mem=8000mb
 ----------------------------------------------------------------------
 #T wB97XD/def2svpp opt=tight freq int(grid=ultrafine) scf=(verytight,q
 c)
 ----------------------------------------------------------------------
 -------
 comment
 -------
 Symbolic Z-matrix:
 Charge =  1 Multiplicity = 2
 C                    -0.80422  -0.89331  -1.25762 
 C                    -0.7785   -0.01553   0. 
 C                    -2.0007    0.9181    0.00002 
 C                    -0.80422  -0.89337   1.25758 
 C                     0.45947   0.89241   0.00002 
 Cl                    2.02788   0.00777   0. 
 H                    -1.71657  -1.51505  -1.27489 
 H                     0.06979  -1.56483  -1.29196 
 H                    -0.79663  -0.27624  -2.17431 
 H                    -2.93357   0.32764   0. 
 H                    -2.01351   1.56676  -0.89431 
 H                    -2.01352   1.56672   0.89437 
 H                     0.06978  -1.56488   1.2919 
 H                    -1.71658  -1.51511   1.27482 
 H                    -0.79664  -0.27633   2.1743 
 H                     0.47124   1.53468   0.89439 
 H                     0.47124   1.53473  -0.89432 
 

 GradGradGradGradGradGradGradGradGradGradGradGradGradGradGradGradGradGrad
 Initialization pass.
                           ----------------------------
                           !    Initial Parameters    !
                           ! (Angstroms and Degrees)  !
 --------------------------                            --------------------------
 ! Name  Definition              Value          Derivative Info.                !
 --------------------------------------------------------------------------------
 ! R1    R(1,2)                  1.5339         estimate D2E/DX2                !
 ! R2    R(1,7)                  1.1042         estimate D2E/DX2                !
 ! R3    R(1,8)                  1.1027         estimate D2E/DX2                !
 ! R4    R(1,9)                  1.1051         estimate D2E/DX2                !
 ! R5    R(2,3)                  1.538          estimate D2E/DX2                !
 ! R6    R(2,4)                  1.5339         estimate D2E/DX2                !
 ! R7    R(2,5)                  1.5352         estimate D2E/DX2                !
 ! R8    R(3,10)                 1.104          estimate D2E/DX2                !
 ! R9    R(3,11)                 1.1049         estimate D2E/DX2                !
 ! R10   R(3,12)                 1.1049         estimate D2E/DX2                !
 ! R11   R(4,13)                 1.1027         estimate D2E/DX2                !
 ! R12   R(4,14)                 1.1042         estimate D2E/DX2                !
 ! R13   R(4,15)                 1.1051         estimate D2E/DX2                !
 ! R14   R(5,6)                  1.8007         estimate D2E/DX2                !
 ! R15   R(5,16)                 1.1012         estimate D2E/DX2                !
 ! R16   R(5,17)                 1.1012         estimate D2E/DX2                !
 ! A1    A(2,1,7)              110.4202         estimate D2E/DX2                !
 ! A2    A(2,1,8)              111.1449         estimate D2E/DX2                !
 ! A3    A(2,1,9)              111.1288         estimate D2E/DX2                !
 ! A4    A(7,1,8)              108.1501         estimate D2E/DX2                !
 ! A5    A(7,1,9)              107.8858         estimate D2E/DX2                !
 ! A6    A(8,1,9)              107.9856         estimate D2E/DX2                !
 ! A7    A(1,2,3)              109.5162         estimate D2E/DX2                !
 ! A8    A(1,2,4)              110.1466         estimate D2E/DX2                !
 ! A9    A(1,2,5)              110.6079         estimate D2E/DX2                !
 ! A10   A(3,2,4)              109.5163         estimate D2E/DX2                !
 ! A11   A(3,2,5)              106.3674         estimate D2E/DX2                !
 ! A12   A(4,2,5)              110.608          estimate D2E/DX2                !
 ! A13   A(2,3,10)             110.2921         estimate D2E/DX2                !
 ! A14   A(2,3,11)             111.4439         estimate D2E/DX2                !
 ! A15   A(2,3,12)             111.4439         estimate D2E/DX2                !
 ! A16   A(10,3,11)            107.709          estimate D2E/DX2                !
 ! A17   A(10,3,12)            107.7089         estimate D2E/DX2                !
 ! A18   A(11,3,12)            108.0852         estimate D2E/DX2                !
 ! A19   A(2,4,13)             111.145          estimate D2E/DX2                !
 ! A20   A(2,4,14)             110.4202         estimate D2E/DX2                !
 ! A21   A(2,4,15)             111.1287         estimate D2E/DX2                !
 ! A22   A(13,4,14)            108.1501         estimate D2E/DX2                !
 ! A23   A(13,4,15)            107.9856         estimate D2E/DX2                !
 ! A24   A(14,4,15)            107.8858         estimate D2E/DX2                !
 ! A25   A(2,5,6)              114.3187         estimate D2E/DX2                !
 ! A26   A(2,5,16)             110.7065         estimate D2E/DX2                !
 ! A27   A(2,5,17)             110.7065         estimate D2E/DX2                !
 ! A28   A(6,5,16)             106.096          estimate D2E/DX2                !
 ! A29   A(6,5,17)             106.0959         estimate D2E/DX2                !
 ! A30   A(16,5,17)            108.6216         estimate D2E/DX2                !
 ! D1    D(7,1,2,3)            -60.7685         estimate D2E/DX2                !
 ! D2    D(7,1,2,4)             59.7336         estimate D2E/DX2                !
 ! D3    D(7,1,2,5)           -177.685          estimate D2E/DX2                !
 ! D4    D(8,1,2,3)            179.206          estimate D2E/DX2                !
 ! D5    D(8,1,2,4)            -60.2918         estimate D2E/DX2                !
 ! D6    D(8,1,2,5)             62.2895         estimate D2E/DX2                !
 ! D7    D(9,1,2,3)             58.9149         estimate D2E/DX2                !
 ! D8    D(9,1,2,4)            179.417          estimate D2E/DX2                !
 ! D9    D(9,1,2,5)            -58.0016         estimate D2E/DX2                !
 ! D10   D(1,2,3,10)            60.4426         estimate D2E/DX2                !
 ! D11   D(1,2,3,11)           -59.1389         estimate D2E/DX2                !
 ! D12   D(1,2,3,12)          -179.976          estimate D2E/DX2                !
 ! D13   D(4,2,3,10)           -60.4425         estimate D2E/DX2                !
 ! D14   D(4,2,3,11)           179.976          estimate D2E/DX2                !
 ! D15   D(4,2,3,12)            59.1389         estimate D2E/DX2                !
 ! D16   D(5,2,3,10)           180.0            estimate D2E/DX2                !
 ! D17   D(5,2,3,11)            60.4185         estimate D2E/DX2                !
 ! D18   D(5,2,3,12)           -60.4186         estimate D2E/DX2                !
 ! D19   D(1,2,4,13)            60.292          estimate D2E/DX2                !
 ! D20   D(1,2,4,14)           -59.7335         estimate D2E/DX2                !
 ! D21   D(1,2,4,15)          -179.4168         estimate D2E/DX2                !
 ! D22   D(3,2,4,13)          -179.2059         estimate D2E/DX2                !
 ! D23   D(3,2,4,14)            60.7687         estimate D2E/DX2                !
 ! D24   D(3,2,4,15)           -58.9147         estimate D2E/DX2                !
 ! D25   D(5,2,4,13)           -62.2893         estimate D2E/DX2                !
 ! D26   D(5,2,4,14)           177.6853         estimate D2E/DX2                !
 ! D27   D(5,2,4,15)            58.0019         estimate D2E/DX2                !
 ! D28   D(1,2,5,6)            -61.1557         estimate D2E/DX2                !
 ! D29   D(1,2,5,16)           179.1037         estimate D2E/DX2                !
 ! D30   D(1,2,5,17)            58.5848         estimate D2E/DX2                !
 ! D31   D(3,2,5,6)           -179.9997         estimate D2E/DX2                !
 ! D32   D(3,2,5,16)            60.2597         estimate D2E/DX2                !
 ! D33   D(3,2,5,17)           -60.2593         estimate D2E/DX2                !
 ! D34   D(4,2,5,6)             61.1561         estimate D2E/DX2                !
 ! D35   D(4,2,5,16)           -58.5845         estimate D2E/DX2                !
 ! D36   D(4,2,5,17)          -179.1034         estimate D2E/DX2                !
 --------------------------------------------------------------------------------
 Number of steps in this run=     92 maximum allowed number of steps=    102.
 GradGradGradGradGradGradGradGradGradGradGradGradGradGradGradGradGradGrad

                    Distance matrix (angstroms):
                    1          2          3          4          5
     1  C    0.000000
     2  C    1.533877   0.000000
     3  C    2.508875   1.538000   0.000000
     4  C    2.515206   1.533877   2.508876   0.000000
     5  C    2.523366   1.535228   2.460307   2.523368   0.000000
     6  Cl   3.227128   2.806482   4.130161   3.227134   1.800700
     7  H    1.104196   2.180344   2.761586   2.762664   3.486608
     8  H    1.102724   2.188397   3.481534   2.777573   2.803408
     9  H    1.105055   2.189958   2.757524   3.486945   2.769700
    10  H    2.757982   2.182216   1.104026   2.757982   3.439716
    11  H    2.765200   2.197426   1.104872   3.485004   2.714814
    12  H    3.485003   2.197426   1.104874   2.765201   2.714815
    13  H    2.777575   2.188397   3.481534   1.102723   2.803408
    14  H    2.762663   2.180344   2.761588   1.104196   3.486609
    15  H    3.486945   2.189958   2.757524   1.105056   2.769703
    16  H    3.486130   2.182875   2.700108   2.766613   1.101156
    17  H    2.766614   2.182875   2.700105   3.486132   1.101157
                    6          7          8          9         10
     6  Cl   0.000000
     7  H    4.238547   0.000000
     8  H    2.824245   1.787134   0.000000
     9  H    3.575771   1.786028   1.785968   0.000000
    10  H    4.971750   2.549890   3.777661   3.107860   0.000000
    11  H    4.423023   3.119384   3.782209   2.552614   1.783733
    12  H    4.423027   3.780371   4.350495   3.780758   1.783734
    13  H    2.824252   3.127611   2.583852   3.798136   3.777662
    14  H    4.238551   2.549716   3.127606   3.778571   2.549893
    15  H    3.575784   3.778572   3.798135   4.348605   3.107859
    16  H    2.356808   4.335111   3.814218   3.782041   3.721502
    17  H    2.356807   3.772599   3.150641   2.554501   3.721500
                   11         12         13         14         15
    11  H    0.000000
    12  H    1.788687   0.000000
    13  H    4.350495   3.782209   0.000000
    14  H    3.780372   3.119388   1.787133   0.000000
    15  H    3.780758   2.552614   1.785968   1.786028   0.000000
    16  H    3.061777   2.484965   3.150635   3.772599   2.554502
    17  H    2.484960   3.061774   3.814220   4.335112   3.782043
                   16         17
    16  H    0.000000
    17  H    1.788704   0.000000
 Framework group  C1[X(C5H11Cl)]
 Deg. of freedom    45
                         Standard orientation:                         
 ---------------------------------------------------------------------
 Center     Atomic      Atomic             Coordinates (Angstroms)
 Number     Number       Type             X           Y           Z
 ---------------------------------------------------------------------
      1          6           0        0.804217   -0.893311    1.257622
      2          6           0        0.778501   -0.015528   -0.000000
      3          6           0        2.000704    0.918102   -0.000016
      4          6           0        0.804224   -0.893366   -1.257584
      5          6           0       -0.459469    0.892412   -0.000022
      6         17           0       -2.027884    0.007768   -0.000000
      7          1           0        1.716572   -1.515050    1.274894
      8          1           0       -0.069787   -1.564830    1.291956
      9          1           0        0.796627   -0.276240    2.174308
     10          1           0        2.933565    0.327641   -0.000001
     11          1           0        2.013513    1.566758    0.894313
     12          1           0        2.013518    1.566720   -0.894374
     13          1           0       -0.069781   -1.564884   -1.291896
     14          1           0        1.716577   -1.515108   -1.274822
     15          1           0        0.796643   -0.276334   -2.174297
     16          1           0       -0.471240    1.534684   -0.894389
     17          1           0       -0.471241    1.534727    0.894315
 ---------------------------------------------------------------------
 Rotational constants (GHZ):           4.3680000           1.6987670           1.6930904
   110 basis functions,   206 primitive gaussians,   116 cartesian basis functions
    29 alpha electrons       28 beta electrons
       nuclear repulsion energy       313.2548460482 Hartrees.
 NAtoms=   17 NActive=   17 NUniq=   17 SFac= 1.00D+00 NAtFMM=   60 NAOKFM=F Big=F
 Nuclear repulsion after empirical dispersion term =      313.2438788264 Hartrees.
   1 Symmetry operations used in ECPInt.
 ECPInt:  NShTT=    1830 NPrTT=    7624 LenC2=    1823 LenP2D=    6211.
 LDataN:  DoStor=T MaxTD1= 4 Len=   56
 ExpMin= 1.22D-01 ExpMax= 1.04D+04 ExpMxC= 1.57D+03 IAcc=3 IRadAn=         5 AccDes= 0.00D+00
 Harris functional with IExCor= 4639 and IRadAn=       5 diagonalized for initial guess.
 HarFok:  IExCor= 4639 AccDes= 0.00D+00 IRadAn=         5 IDoV= 1 UseB2=F ITyADJ=14
 ICtDFT=  3500011 ScaDFX=  1.000000  1.000000  1.000000  1.000000
 FoFCou: FMM=F IPFlag=           0 FMFlag=      100000 FMFlg1=           0
         NFxFlg=           0 DoJE=T BraDBF=F KetDBF=T FulRan=T
         wScrn=  0.000000 ICntrl=       500 IOpCl=  0 I1Cent=   200000004 NGrid=           0
         NMat0=    1 NMatS0=      1 NMatT0=    0 NMatD0=    1 NMtDS0=    0 NMtDT0=    0
 Petite list used in FoFCou.
 Initial guess <Sx>= 0.0000 <Sy>= 0.0000 <Sz>= 0.5000 <S**2>= 0.7500 S= 0.5000
     Minimum is close to point  4 DX=  3.33D-02 DF= -8.24D-04 DXR=  5.27D-02 DFR=  2.93D-03 which will be used.
     Minimum is close to point  2 DX= -2.11D-03 DF= -2.43D-08 DXR=  2.64D-03 DFR=  6.98D-06 which will be used.
     Minimum is close to point  2 DX=  8.92D-02 DF= -1.34D-05 DXR=  9.01D-02 DFR=  8.19D-03 which will be used.
     Minimum is close to point  2 DX=  2.90D-02 DF= -9.99D-07 DXR=  3.12D-02 DFR=  9.77D-04 which will be used.
     Accept linear search using points  1 and  2.
     Minimum is close to point  2 DX= -4.33D-02 DF= -1.41D-06 DXR=  4.53D-02 DFR=  2.03D-03 which will be used.
     Accept linear search using points  1 and  2.
     Accept linear search using points  1 and  2.
     Accept linear search using points  1 and  2.
     Accept linear search using points  1 and  2.
     Minimum is close to point  2 DX=  1.15D-02 DF= -8.04D-09 DXR=  1.13D-02 DFR=  1.29D-04 which will be used.
 SCF Done:  E(UwB97XD) =  -656.608118744     a.u. after   16 cycles
            Convg  =    0.3015D-06                    89 Fock formations.
              S**2 =  0.7523                  -V/T =  2.0049
 <Sx>= 0.0000 <Sy>= 0.0000 <Sz>= 0.5000 <S**2>= 0.7523 S= 0.5012
 <L.S>=  0.00000000000    
 Annihilation of the first spin contaminant:
 S**2 before annihilation     0.7523,   after     0.7500

 **********************************************************************

            Population analysis using the SCF Density.

 **********************************************************************

 Orbital symmetries:
 Alpha Orbitals:
       Occupied  (A) (A) (A) (A) (A) (A) (A) (A) (A) (A) (A) (A)
                 (A) (A) (A) (A) (A) (A) (A) (A) (A) (A) (A) (A)
                 (A) (A) (A) (A) (A)
       Virtual   (A) (A) (A) (A) (A) (A) (A) (A) (A) (A) (A) (A)
                 (A) (A) (A) (A) (A) (A) (A) (A) (A) (A) (A) (A)
                 (A) (A) (A) (A) (A) (A) (A) (A) (A) (A) (A) (A)
                 (A) (A) (A) (A) (A) (A) (A) (A) (A) (A) (A) (A)
                 (A) (A) (A) (A) (A) (A) (A) (A) (A) (A) (A) (A)
                 (A) (A) (A) (A) (A) (A) (A) (A) (A) (A) (A) (A)
                 (A) (A) (A) (A) (A) (A) (A) (A) (A)
 Beta  Orbitals:
       Occupied  (A) (A) (A) (A) (A) (A) (A) (A) (A) (A) (A) (A)
                 (A) (A) (A) (A) (A) (A) (A) (A) (A) (A) (A) (A)
                 (A) (A) (A) (A)
       Virtual   (A) (A) (A) (A) (A) (A) (A) (A) (A) (A) (A) (A)
                 (A) (A) (A) (A) (A) (A) (A) (A) (A) (A) (A) (A)
                 (A) (A) (A) (A) (A) (A) (A) (A) (A) (A) (A) (A)
                 (A) (A) (A) (A) (A) (A) (A) (A) (A) (A) (A) (A)
                 (A) (A) (A) (A) (A) (A) (A) (A) (A) (A) (A) (A)
                 (A) (A) (A) (A) (A) (A) (A) (A) (A) (A) (A) (A)
                 (A) (A) (A) (A) (A) (A) (A) (A) (A) (A)
 The electronic state is 2-A.
 Alpha  occ. eigenvalues -- -101.98291 -10.58636 -10.52429 -10.46696 -10.46694
 Alpha  occ. eigenvalues --  -10.45596  -9.88769  -7.64368  -7.63718  -7.62799
 Alpha  occ. eigenvalues --   -1.23782  -1.11765  -0.99643  -0.96256  -0.95205
 Alpha  occ. eigenvalues --   -0.83046  -0.79521  -0.76918  -0.74944  -0.70967
 Alpha  occ. eigenvalues --   -0.69702  -0.66578  -0.66147  -0.64339  -0.63949
 Alpha  occ. eigenvalues --   -0.62332  -0.60689  -0.60039  -0.59593
 Alpha virt. eigenvalues --   -0.12711  -0.04439  -0.01007   0.01326   0.02522
 Alpha virt. eigenvalues --    0.04009   0.04533   0.05376   0.05833   0.07390
 Alpha virt. eigenvalues --    0.10524   0.10529   0.11305   0.11505   0.12198
 Alpha virt. eigenvalues --    0.12564   0.26747   0.27581   0.30741   0.32203
 Alpha virt. eigenvalues --    0.32303   0.35842   0.42329   0.43228   0.47301
 Alpha virt. eigenvalues --    0.47362   0.49891   0.53156   0.54372   0.56170
 Alpha virt. eigenvalues --    0.56398   0.56831   0.57462   0.58606   0.59461
 Alpha virt. eigenvalues --    0.61165   0.61395   0.63418   0.64671   0.65341
 Alpha virt. eigenvalues --    0.65572   0.66301   0.66695   0.67971   0.68025
 Alpha virt. eigenvalues --    0.68703   0.71850   0.73813   0.75406   0.87711
 Alpha virt. eigenvalues --    0.92226   0.93117   1.00796   1.05718   1.07562
 Alpha virt. eigenvalues --    1.18103   1.27794   1.29630   1.58108   1.61628
 Alpha virt. eigenvalues --    1.61832   1.68125   1.71107   1.72080   1.89365
 Alpha virt. eigenvalues --    1.89434   1.93091   1.93328   1.93822   2.02373
 Alpha virt. eigenvalues --    2.03063   2.06357   2.07414   2.07623   2.08767
 Alpha virt. eigenvalues --    2.10953   2.41631   2.42819   2.54221   2.56263
 Alpha virt. eigenvalues --    2.57920
  Beta  occ. eigenvalues -- -101.97840 -10.58569 -10.52336 -10.46595 -10.46594
  Beta  occ. eigenvalues --  -10.45600  -9.88298  -7.63396  -7.62842  -7.62469
  Beta  occ. eigenvalues --   -1.21409  -1.10835  -0.98383  -0.95655  -0.94978
  Beta  occ. eigenvalues --   -0.82414  -0.76853  -0.76117  -0.74361  -0.69361
  Beta  occ. eigenvalues --   -0.68848  -0.65342  -0.64011  -0.63832  -0.62162
  Beta  occ. eigenvalues --   -0.60417  -0.59188  -0.58563
  Beta virt. eigenvalues --   -0.41538  -0.11936  -0.04323  -0.00578   0.01492
  Beta virt. eigenvalues --    0.02623   0.04124   0.04671   0.05446   0.06012
  Beta virt. eigenvalues --    0.07587   0.10578   0.10684   0.11366   0.11641
  Beta virt. eigenvalues --    0.12351   0.13136   0.27656   0.27828   0.30992
  Beta virt. eigenvalues --    0.32408   0.32734   0.36560   0.42812   0.44650
  Beta virt. eigenvalues --    0.47636   0.47775   0.51106   0.53484   0.55405
  Beta virt. eigenvalues --    0.56747   0.57820   0.58005   0.58232   0.59302
  Beta virt. eigenvalues --    0.59912   0.62405   0.63284   0.63844   0.64958
  Beta virt. eigenvalues --    0.65495   0.65973   0.66892   0.67084   0.68179
  Beta virt. eigenvalues --    0.68267   0.69011   0.72078   0.73901   0.77302
  Beta virt. eigenvalues --    0.88059   0.93490   0.93678   1.01254   1.05890
  Beta virt. eigenvalues --    1.07918   1.18677   1.28202   1.30288   1.58649
  Beta virt. eigenvalues --    1.61817   1.62073   1.68318   1.71613   1.72437
  Beta virt. eigenvalues --    1.89817   1.89884   1.93251   1.93520   1.93996
  Beta virt. eigenvalues --    2.02830   2.03287   2.06600   2.07585   2.07795
  Beta virt. eigenvalues --    2.09106   2.11366   2.42025   2.43046   2.54537
  Beta virt. eigenvalues --    2.56827   2.58161
          Condensed to atoms (all electrons):
          Atomic-Atomic Spin Densities.
 Mulliken charges and spin densities:
               1          2
     1  C   -0.273358   0.073090
     2  C   -0.354125   0.039363
     3  C   -0.294640  -0.001871
     4  C   -0.273357   0.073091
     5  C   -0.197068   0.007983
     6  Cl   0.317594   0.641087
     7  H    0.186684  -0.003124
     8  H    0.155734   0.000135
     9  H    0.169135   0.007716
    10  H    0.183028  -0.000515
    11  H    0.164408   0.007999
    12  H    0.164409   0.007999
    13  H    0.155734   0.000135
    14  H    0.186684  -0.003124
    15  H    0.169135   0.007716
    16  H    0.270000   0.071159
    17  H    0.270001   0.071160
 Sum of Mulliken charges =   1.00000   1.00000
 Mulliken charges and spin densities with hydrogens summed into heavy atoms:
               1          2
     1  C    0.238196   0.077817
     2  C   -0.354125   0.039363
     3  C    0.217205   0.013612
     4  C    0.238197   0.077818
     5  C    0.342934   0.150302
     6  Cl   0.317594   0.641087
 Electronic spatial extent (au):  <R**2>=            822.5305
 Charge=              1.0000 electrons
 Dipole moment (field-independent basis, Debye):
    X=             -1.1003    Y=              1.3919    Z=             -0.0000  Tot=              1.7743
                          Isotropic Fermi Contact Couplings
        Atom                 a.u.       MegaHertz       Gauss      10(-4) cm-1
     1  C(13)              0.01265      14.21950       5.07387       4.74311
     2  C(13)             -0.00401      -4.50298      -1.60677      -1.50203
     3  C(13)             -0.00412      -4.62646      -1.65083      -1.54322
     4  C(13)              0.01265      14.21972       5.07395       4.74319
     5  C(13)             -0.01402     -15.76575      -5.62561      -5.25889
     6  Cl(35)             0.10378      45.50380      16.23689      15.17843
     7  H(1)              -0.00107      -4.78610      -1.70780      -1.59647
     8  H(1)               0.00225      10.04648       3.58483       3.35115
     9  H(1)               0.00291      13.00339       4.63993       4.33746
    10  H(1)              -0.00025      -1.11197      -0.39678      -0.37091
    11  H(1)               0.00282      12.60545       4.49794       4.20472
    12  H(1)               0.00282      12.60556       4.49798       4.20476
    13  H(1)               0.00225      10.04648       3.58483       3.35114
    14  H(1)              -0.00107      -4.78614      -1.70781      -1.59648
    15  H(1)               0.00291      13.00287       4.63975       4.33729
    16  H(1)               0.03515     157.12674      56.06673      52.41184
    17  H(1)               0.03515     157.12874      56.06744      52.41250
 --------------------------------------------------------
       Center         ----  Spin Dipole Couplings  ----
                      3XX-RR        3YY-RR        3ZZ-RR
 --------------------------------------------------------
     1   Atom       -0.040052     -0.010084      0.050137
     2   Atom       -0.054070     -0.065525      0.119595
     3   Atom       -0.000043     -0.003627      0.003669
     4   Atom       -0.040053     -0.010078      0.050131
     5   Atom       -0.061368     -0.067893      0.129261
     6   Atom       -1.966391     -1.996880      3.963271
     7   Atom        0.003540      0.000006     -0.003547
     8   Atom        0.005309     -0.000241     -0.005069
     9   Atom       -0.004953      0.001139      0.003814
    10   Atom        0.004378     -0.002198     -0.002180
    11   Atom        0.002865     -0.000581     -0.002284
    12   Atom        0.002865     -0.000581     -0.002284
    13   Atom        0.005310     -0.000241     -0.005069
    14   Atom        0.003540      0.000007     -0.003547
    15   Atom       -0.004953      0.001139      0.003815
    16   Atom       -0.009427      0.007489      0.001938
    17   Atom       -0.009427      0.007491      0.001936
 --------------------------------------------------------
                        XY            XZ            YZ
 --------------------------------------------------------
     1   Atom        0.016130     -0.028384     -0.068982
     2   Atom       -0.002432     -0.000001      0.000005
     3   Atom        0.002041     -0.000000      0.000000
     4   Atom        0.016130      0.028383      0.068985
     5   Atom        0.001219     -0.000001      0.000006
     6   Atom        0.016259     -0.000011      0.000170
     7   Atom       -0.007990      0.001751     -0.003834
     8   Atom        0.002551      0.005632     -0.002520
     9   Atom       -0.000008      0.003749      0.004358
    10   Atom        0.000886      0.000000      0.000000
    11   Atom        0.002580      0.001477      0.001720
    12   Atom        0.002580     -0.001477     -0.001720
    13   Atom        0.002550     -0.005632      0.002520
    14   Atom       -0.007991     -0.001751      0.003834
    15   Atom       -0.000008     -0.003749     -0.004358
    16   Atom        0.003303     -0.001258     -0.020829
    17   Atom        0.003303      0.001258      0.020829
 --------------------------------------------------------


 ---------------------------------------------------------------------------------
              Anisotropic Spin Dipole Couplings in Principal Axis System
 ---------------------------------------------------------------------------------

       Atom             a.u.   MegaHertz   Gauss  10(-4) cm-1        Axes

              Baa    -0.0557    -7.478    -2.668    -2.494  0.2305  0.7858  0.5739
     1 C(13)  Bbb    -0.0470    -6.307    -2.251    -2.104  0.9473 -0.3161  0.0523
              Bcc     0.1027    13.785     4.919     4.598 -0.2225 -0.5315  0.8173
 
              Baa    -0.0660    -8.859    -3.161    -2.955  0.1994  0.9799 -0.0000
     2 C(13)  Bbb    -0.0536    -7.189    -2.565    -2.398  0.9799 -0.1994  0.0000
              Bcc     0.1196    16.049     5.727     5.353 -0.0000  0.0000  1.0000
 
              Baa    -0.0046    -0.611    -0.218    -0.204 -0.4124  0.9110 -0.0000
     3 C(13)  Bbb     0.0009     0.118     0.042     0.039  0.9110  0.4124  0.0000
              Bcc     0.0037     0.492     0.176     0.164 -0.0000  0.0000  1.0000
 
              Baa    -0.0557    -7.478    -2.668    -2.494  0.2305  0.7858 -0.5739
     4 C(13)  Bbb    -0.0470    -6.307    -2.251    -2.104  0.9473 -0.3161 -0.0523
              Bcc     0.1027    13.785     4.919     4.598  0.2225  0.5316  0.8173
 
              Baa    -0.0681    -9.140    -3.261    -3.049 -0.1779  0.9840 -0.0000
     5 C(13)  Bbb    -0.0611    -8.205    -2.928    -2.737  0.9840  0.1779 -0.0000
              Bcc     0.1293    17.346     6.189     5.786 -0.0000  0.0000  1.0000
 
              Baa    -2.0039  -104.881   -37.424   -34.984 -0.3975  0.9176 -0.0000
     6 Cl(35) Bbb    -1.9593  -102.548   -36.592   -34.206  0.9176  0.3975 -0.0000
              Bcc     3.9633   207.428    74.016    69.191 -0.0000  0.0000  1.0000
 
              Baa    -0.0075    -4.021    -1.435    -1.341  0.4494  0.7345  0.5085
     7 H(1)   Bbb    -0.0034    -1.821    -0.650    -0.607 -0.5059 -0.2599  0.8225
              Bcc     0.0109     5.842     2.085     1.949  0.7363 -0.6269  0.2547
 
              Baa    -0.0088    -4.719    -1.684    -1.574 -0.4002  0.3649  0.8406
     8 H(1)   Bbb     0.0008     0.445     0.159     0.148 -0.0135  0.9148 -0.4036
              Bcc     0.0080     4.274     1.525     1.426  0.9163  0.1729  0.3612
 
              Baa    -0.0067    -3.573    -1.275    -1.192  0.8830  0.2289 -0.4099
     9 H(1)   Bbb    -0.0011    -0.577    -0.206    -0.192 -0.4042  0.8147 -0.4157
              Bcc     0.0078     4.149     1.481     1.384  0.2388  0.5328  0.8119
 
              Baa    -0.0023    -1.235    -0.441    -0.412 -0.1313  0.9913 -0.0000
    10 H(1)   Bbb    -0.0022    -1.163    -0.415    -0.388 -0.0000  0.0000  1.0000
              Bcc     0.0045     2.398     0.856     0.800  0.9913  0.1313  0.0000
 
              Baa    -0.0034    -1.790    -0.639    -0.597  0.0270 -0.5448  0.8381
    11 H(1)   Bbb    -0.0015    -0.812    -0.290    -0.271 -0.5599  0.6863  0.4642
              Bcc     0.0049     2.602     0.928     0.868  0.8281  0.4818  0.2866
 
              Baa    -0.0034    -1.790    -0.639    -0.597 -0.0270  0.5449  0.8381
    12 H(1)   Bbb    -0.0015    -0.812    -0.290    -0.271 -0.5599  0.6863 -0.4642
              Bcc     0.0049     2.602     0.928     0.868  0.8281  0.4818 -0.2866
 
              Baa    -0.0088    -4.719    -1.684    -1.574  0.4002 -0.3649  0.8406
    13 H(1)   Bbb     0.0008     0.445     0.159     0.148 -0.0135  0.9149  0.4035
              Bcc     0.0080     4.274     1.525     1.426  0.9163  0.1729 -0.3612
 
              Baa    -0.0075    -4.021    -1.435    -1.341  0.4494  0.7345 -0.5085
    14 H(1)   Bbb    -0.0034    -1.821    -0.650    -0.607  0.5059  0.2599  0.8225
              Bcc     0.0109     5.842     2.085     1.949  0.7363 -0.6269 -0.2547
 
              Baa    -0.0067    -3.573    -1.275    -1.192  0.8830  0.2289  0.4099
    15 H(1)   Bbb    -0.0011    -0.577    -0.206    -0.192 -0.4042  0.8147  0.4157
              Bcc     0.0078     4.149     1.481     1.384 -0.2388 -0.5327  0.8119
 
              Baa    -0.0165    -8.815    -3.145    -2.940 -0.1771  0.6587  0.7312
    16 H(1)   Bbb    -0.0095    -5.077    -1.812    -1.694  0.9798  0.0477  0.1943
              Bcc     0.0260    13.892     4.957     4.634  0.0931  0.7509 -0.6539
 
              Baa    -0.0165    -8.815    -3.145    -2.940  0.1771 -0.6587  0.7313
    17 H(1)   Bbb    -0.0095    -5.077    -1.812    -1.694  0.9798  0.0477 -0.1943
              Bcc     0.0260    13.892     4.957     4.634  0.0931  0.7509  0.6538
 

 ---------------------------------------------------------------------------------

   1 Symmetry operations used in ECPInt.
 ECPInt:  NShTT=    1830 NPrTT=    7624 LenC2=    1823 LenP2D=    6211.
 LDataN:  DoStor=T MaxTD1= 5 Len=  102
 Calling FoFJK, ICntrl=      2127 FMM=F ISym2X=0 I1Cent= 0 IOpClX= 1 NMat=1 NMatS=1 NMatT=0.

 GradGradGradGradGradGradGradGradGradGradGradGradGradGradGradGradGradGrad
 FormGI is forming the generalized inverse of G from B-inverse, IUseBI=4.
 Internal  Forces:  Max     0.014490496 RMS     0.004110206
 Step number   1 out of a maximum of   92
 All quantities printed in internal units (Hartrees-Bohrs-Radians)
 Mixed Optimization -- RFO/linear search
 Second derivative matrix not updated -- first step.
 ITU=  0
     Eigenvalues ---    0.00263   0.00300   0.00318   0.00318   0.04432
     Eigenvalues ---    0.04798   0.05164   0.05164   0.05366   0.05469
     Eigenvalues ---    0.05469   0.05519   0.05550   0.05550   0.05717
     Eigenvalues ---    0.14167   0.14642   0.16000   0.16000   0.16000
     Eigenvalues ---    0.16000   0.16000   0.16000   0.16000   0.16000
     Eigenvalues ---    0.16000   0.16000   0.16000   0.22267   0.26062
     Eigenvalues ---    0.28697   0.28946   0.29068   0.29068   0.33129
     Eigenvalues ---    0.33129   0.33149   0.33149   0.33222   0.33222
     Eigenvalues ---    0.33241   0.33383   0.33383   0.33555   0.33555
 Linear search not attempted -- first point.
 Iteration  1 RMS(Cart)=  0.02575709 RMS(Int)=  0.00085207
 Iteration  2 RMS(Cart)=  0.00082171 RMS(Int)=  0.00034013
 Iteration  3 RMS(Cart)=  0.00000079 RMS(Int)=  0.00034013
 Variable       Old X    -DE/DX   Delta X   Delta X   Delta X     New X
                                 (Linear)    (Quad)   (Total)
    R1        2.89861   0.01104   0.00000   0.03716   0.03716   2.93576
    R2        2.08663  -0.00213   0.00000  -0.00629  -0.00629   2.08034
    R3        2.08385   0.00210   0.00000   0.00617   0.00617   2.09002
    R4        2.08825  -0.00015   0.00000  -0.00044  -0.00044   2.08781
    R5        2.90640   0.00036   0.00000   0.00123   0.00123   2.90763
    R6        2.89861   0.01104   0.00000   0.03716   0.03716   2.93576
    R7        2.90116  -0.01207   0.00000  -0.04079  -0.04079   2.86037
    R8        2.08631  -0.00165   0.00000  -0.00487  -0.00487   2.08144
    R9        2.08791  -0.00029   0.00000  -0.00086  -0.00086   2.08705
   R10        2.08791  -0.00029   0.00000  -0.00086  -0.00086   2.08705
   R11        2.08384   0.00210   0.00000   0.00617   0.00617   2.09002
   R12        2.08663  -0.00213   0.00000  -0.00628  -0.00628   2.08034
   R13        2.08825  -0.00015   0.00000  -0.00044  -0.00044   2.08781
   R14        3.40283  -0.01449   0.00000  -0.05425  -0.05425   3.34858
   R15        2.08088   0.00964   0.00000   0.02819   0.02819   2.10907
   R16        2.08088   0.00964   0.00000   0.02819   0.02819   2.10907
    A1        1.92720   0.00061   0.00000  -0.00010  -0.00015   1.92705
    A2        1.93985  -0.00185   0.00000  -0.00934  -0.00936   1.93049
    A3        1.93956  -0.00321   0.00000  -0.01729  -0.01732   1.92225
    A4        1.88758   0.00017   0.00000  -0.00274  -0.00277   1.88480
    A5        1.88296   0.00093   0.00000   0.00219   0.00214   1.88510
    A6        1.88470   0.00357   0.00000   0.02851   0.02851   1.91322
    A7        1.91142   0.00167   0.00000   0.01773   0.01789   1.92931
    A8        1.92242  -0.00345   0.00000  -0.03571  -0.03582   1.88660
    A9        1.93047   0.00071   0.00000  -0.00185  -0.00221   1.92826
   A10        1.91142   0.00167   0.00000   0.01773   0.01789   1.92931
   A11        1.85646  -0.00117   0.00000   0.00620   0.00613   1.86259
   A12        1.93047   0.00071   0.00000  -0.00185  -0.00222   1.92826
   A13        1.92496  -0.00270   0.00000  -0.02030  -0.02025   1.90471
   A14        1.94506   0.00168   0.00000   0.01215   0.01206   1.95713
   A15        1.94506   0.00168   0.00000   0.01216   0.01206   1.95713
   A16        1.87988   0.00009   0.00000  -0.00333  -0.00328   1.87660
   A17        1.87988   0.00009   0.00000  -0.00333  -0.00328   1.87660
   A18        1.88644  -0.00090   0.00000   0.00206   0.00185   1.88830
   A19        1.93985  -0.00185   0.00000  -0.00935  -0.00936   1.93049
   A20        1.92720   0.00061   0.00000  -0.00010  -0.00015   1.92705
   A21        1.93956  -0.00321   0.00000  -0.01729  -0.01731   1.92225
   A22        1.88758   0.00017   0.00000  -0.00274  -0.00277   1.88480
   A23        1.88470   0.00357   0.00000   0.02851   0.02851   1.91322
   A24        1.88296   0.00093   0.00000   0.00219   0.00214   1.88510
   A25        1.99524   0.00607   0.00000   0.02423   0.02379   2.01902
   A26        1.93219   0.00937   0.00000   0.05938   0.05802   1.99021
   A27        1.93219   0.00937   0.00000   0.05937   0.05801   1.99021
   A28        1.85172  -0.00875   0.00000  -0.05171  -0.05209   1.79963
   A29        1.85172  -0.00875   0.00000  -0.05171  -0.05209   1.79963
   A30        1.89580  -0.00948   0.00000  -0.05200  -0.05393   1.84188
    D1       -1.06061  -0.00041   0.00000  -0.00569  -0.00563  -1.06624
    D2        1.04255   0.00055   0.00000   0.00507   0.00492   1.04746
    D3       -3.10119  -0.00042   0.00000  -0.02283  -0.02275  -3.12394
    D4        3.12773   0.00017   0.00000   0.00393   0.00398   3.13172
    D5       -1.05229   0.00114   0.00000   0.01468   0.01453  -1.03776
    D6        1.08716   0.00017   0.00000  -0.01321  -0.01314   1.07402
    D7        1.02826  -0.00094   0.00000  -0.01423  -0.01415   1.01411
    D8        3.13142   0.00003   0.00000  -0.00347  -0.00360   3.12782
    D9       -1.01232  -0.00094   0.00000  -0.03136  -0.03127  -1.04359
   D10        1.05492  -0.00108   0.00000  -0.01091  -0.01084   1.04408
   D11       -1.03217  -0.00049   0.00000  -0.00118  -0.00105  -1.03322
   D12       -3.14117  -0.00166   0.00000  -0.02063  -0.02063   3.12138
   D13       -1.05492   0.00108   0.00000   0.01091   0.01084  -1.04408
   D14        3.14117   0.00166   0.00000   0.02063   0.02063  -3.12138
   D15        1.03217   0.00049   0.00000   0.00118   0.00105   1.03322
   D16        3.14159   0.00000   0.00000   0.00000   0.00000  -3.14159
   D17        1.05450   0.00059   0.00000   0.00973   0.00979   1.06429
   D18       -1.05450  -0.00058   0.00000  -0.00972  -0.00979  -1.06429
   D19        1.05229  -0.00114   0.00000  -0.01468  -0.01453   1.03776
   D20       -1.04255  -0.00055   0.00000  -0.00507  -0.00492  -1.04746
   D21       -3.13141  -0.00003   0.00000   0.00347   0.00360  -3.12782
   D22       -3.12773  -0.00017   0.00000  -0.00393  -0.00398  -3.13171
   D23        1.06061   0.00041   0.00000   0.00569   0.00563   1.06625
   D24       -1.02826   0.00094   0.00000   0.01423   0.01415  -1.01411
   D25       -1.08715  -0.00017   0.00000   0.01321   0.01314  -1.07402
   D26        3.10119   0.00042   0.00000   0.02282   0.02275   3.12394
   D27        1.01232   0.00094   0.00000   0.03136   0.03127   1.04359
   D28       -1.06737   0.00170   0.00000   0.02390   0.02396  -1.04340
   D29        3.12595   0.00195   0.00000   0.03049   0.03095  -3.12629
   D30        1.02250   0.00146   0.00000   0.01730   0.01698   1.03948
   D31       -3.14159  -0.00000   0.00000  -0.00000  -0.00000  -3.14159
   D32        1.05173   0.00024   0.00000   0.00660   0.00698   1.05871
   D33       -1.05172  -0.00024   0.00000  -0.00660  -0.00698  -1.05871
   D34        1.06738  -0.00170   0.00000  -0.02390  -0.02397   1.04341
   D35       -1.02249  -0.00146   0.00000  -0.01730  -0.01699  -1.03948
   D36       -3.12594  -0.00195   0.00000  -0.03050  -0.03095   3.12629
         Item               Value     Threshold  Converged?
 Maximum Force            0.014490     0.000015     NO 
 RMS     Force            0.004110     0.000010     NO 
 Maximum Displacement     0.091245     0.000060     NO 
 RMS     Displacement     0.025913     0.000040     NO 
 GradGradGradGradGradGradGradGradGradGradGradGradGradGradGradGradGradGrad

                    Distance matrix (angstroms):
                    1          2          3          4          5
     1  C    0.000000
     2  C    1.553539   0.000000
     3  C    2.541337   1.538652   0.000000
     4  C    2.515182   1.553539   2.541338   0.000000
     5  C    2.519954   1.513643   2.449189   2.519952   0.000000
     6  Cl   3.210974   2.784923   4.104824   3.210975   1.771991
     7  H    1.100870   2.195073   2.800102   2.752929   3.476668
     8  H    1.105990   2.201422   3.506350   2.753352   2.792152
     9  H    1.104821   2.194511   2.773466   3.486951   2.770454
    10  H    2.766594   2.165996   1.101451   2.766593   3.413805
    11  H    2.808602   2.206301   1.104417   3.519700   2.724397
    12  H    3.519700   2.206301   1.104417   2.808602   2.724396
    13  H    2.753353   2.201421   3.506350   1.105990   2.792149
    14  H    2.752927   2.195072   2.800103   1.100870   3.476666
    15  H    3.486951   2.194511   2.773464   1.104821   2.770454
    16  H    3.525959   2.216441   2.747780   2.821787   1.116074
    17  H    2.821788   2.216440   2.747778   3.525958   1.116074
                    6          7          8          9         10
     6  Cl   0.000000
     7  H    4.217849   0.000000
     8  H    2.807171   1.785291   0.000000
     9  H    3.563280   1.784536   1.806767   0.000000
    10  H    4.933905   2.571395   3.782278   3.102287   0.000000
    11  H    4.410912   3.165611   3.824321   2.585252   1.779150
    12  H    4.410912   3.814445   4.375837   3.803197   1.779150
    13  H    2.807170   3.096090   2.527744   3.775876   3.782279
    14  H    4.217849   2.531307   3.096085   3.767345   2.571396
    15  H    3.563285   3.767347   3.775876   4.348870   3.102284
    16  H    2.298440   4.378121   3.827391   3.815851   3.762952
    17  H    2.298439   3.830063   3.186959   2.613817   3.762951
                   11         12         13         14         15
    11  H    0.000000
    12  H    1.789151   0.000000
    13  H    4.375837   3.824321   0.000000
    14  H    3.814445   3.165614   1.785291   0.000000
    15  H    3.803197   2.585251   1.806767   1.784537   0.000000
    16  H    3.114473   2.553490   3.186954   3.830062   2.613817
    17  H    2.553489   3.114469   3.827389   4.378120   3.815849
                   16         17
    16  H    0.000000
    17  H    1.777168   0.000000
 Framework group  C1[X(C5H11Cl)]
 Deg. of freedom    45
                         Standard orientation:                         
 ---------------------------------------------------------------------
 Center     Atomic      Atomic             Coordinates (Angstroms)
 Number     Number       Type             X           Y           Z
 ---------------------------------------------------------------------
      1          6           0        0.797870   -0.912230    1.257612
      2          6           0        0.777157   -0.000380    0.000002
      3          6           0        1.989598    0.946952   -0.000016
      4          6           0        0.797876   -0.912283   -1.257570
      5          6           0       -0.458500    0.873844   -0.000021
      6         17           0       -2.007731    0.013707   -0.000004
      7          1           0        1.705897   -1.534595    1.265691
      8          1           0       -0.078633   -1.586706    1.263905
      9          1           0        0.798153   -0.295747    2.174443
     10          1           0        2.914753    0.349221   -0.000001
     11          1           0        2.011946    1.594252    0.894546
     12          1           0        2.011950    1.594214   -0.894605
     13          1           0       -0.078628   -1.586757   -1.263839
     14          1           0        1.705901   -1.534651   -1.265616
     15          1           0        0.798167   -0.295841   -2.174427
     16          1           0       -0.541040    1.544067   -0.888621
     17          1           0       -0.541043    1.544107    0.888547
 ---------------------------------------------------------------------
 Rotational constants (GHZ):           4.3160630           1.7211147           1.7047888
   110 basis functions,   206 primitive gaussians,   116 cartesian basis functions
    29 alpha electrons       28 beta electrons
       nuclear repulsion energy       313.7596076646 Hartrees.
 NAtoms=   17 NActive=   17 NUniq=   17 SFac= 1.00D+00 NAtFMM=   60 NAOKFM=F Big=F
 Nuclear repulsion after empirical dispersion term =      313.7487103300 Hartrees.
   1 Symmetry operations used in ECPInt.
 ECPInt:  NShTT=    1830 NPrTT=    7624 LenC2=    1823 LenP2D=    6212.
 LDataN:  DoStor=T MaxTD1= 4 Len=   56
 Initial guess from the checkpoint file:  "19.chk"
 B after Tr=    -0.000000    0.000000   -0.000000
         Rot=    1.000000    0.000000    0.000000   -0.000893 Ang=   0.10 deg.
 Initial guess <Sx>= 0.0000 <Sy>= 0.0000 <Sz>= 0.5000 <S**2>= 0.7523 S= 0.5012
 ExpMin= 1.22D-01 ExpMax= 1.04D+04 ExpMxC= 1.57D+03 IAcc=3 IRadAn=         5 AccDes= 0.00D+00
 Harris functional with IExCor= 4639 and IRadAn=       5 diagonalized for initial guess.
 HarFok:  IExCor= 4639 AccDes= 0.00D+00 IRadAn=         5 IDoV= 1 UseB2=F ITyADJ=14
 ICtDFT=  3500011 ScaDFX=  1.000000  1.000000  1.000000  1.000000
 FoFCou: FMM=F IPFlag=           0 FMFlag=      100000 FMFlg1=           0
         NFxFlg=           0 DoJE=T BraDBF=F KetDBF=T FulRan=T
         wScrn=  0.000000 ICntrl=       500 IOpCl=  0 I1Cent=   200000004 NGrid=           0
         NMat0=    1 NMatS0=      1 NMatT0=    0 NMatD0=    1 NMtDS0=    0 NMtDT0=    0
 Petite list used in FoFCou.
     Accept linear search using points  3 and  4.
     Minimum is close to point  3 DX=  1.12D-01 DF= -2.00D-06 DXR=  9.25D-02 DFR=  8.63D-03 which will be used.
     Minimum is close to point  2 DX=  2.15D-02 DF= -3.35D-08 DXR=  1.92D-02 DFR=  3.68D-04 which will be used.
     Accept linear search using points  1 and  2.
     Minimum is close to point  2 DX= -2.22D-02 DF= -1.30D-07 DXR=  2.27D-02 DFR=  5.25D-04 which will be used.
     Minimum is close to point  2 DX=  5.60D-03 DF= -1.38D-11 DXR=  5.57D-03 DFR=  3.12D-05 which will be used.
 SCF Done:  E(UwB97XD) =  -656.612206758     a.u. after    7 cycles
            Convg  =    0.6628D-07                    56 Fock formations.
              S**2 =  0.7523                  -V/T =  2.0049
 <Sx>= 0.0000 <Sy>= 0.0000 <Sz>= 0.5000 <S**2>= 0.7523 S= 0.5011
 <L.S>=  0.00000000000    
 Annihilation of the first spin contaminant:
 S**2 before annihilation     0.7523,   after     0.7500
   1 Symmetry operations used in ECPInt.
 ECPInt:  NShTT=    1830 NPrTT=    7624 LenC2=    1823 LenP2D=    6212.
 LDataN:  DoStor=T MaxTD1= 5 Len=  102
 Calling FoFJK, ICntrl=      2127 FMM=F ISym2X=0 I1Cent= 0 IOpClX= 1 NMat=1 NMatS=1 NMatT=0.

 GradGradGradGradGradGradGradGradGradGradGradGradGradGradGradGradGradGrad
 Using GEDIIS/GDIIS optimizer.
 FormGI is forming the generalized inverse of G from B-inverse, IUseBI=4.
 Internal  Forces:  Max     0.006032743 RMS     0.001448956
 Step number   2 out of a maximum of   92
 All quantities printed in internal units (Hartrees-Bohrs-Radians)
 Mixed Optimization -- RFO/linear search
 Trust test= 1.21D+00 RLast= 1.98D-01 DXMaxT set to 5.05D-01
 ITU=  1  0
 Use linear search instead of GDIIS.
     Eigenvalues ---    0.00263   0.00300   0.00318   0.00318   0.04166
     Eigenvalues ---    0.04729   0.04804   0.04951   0.05178   0.05387
     Eigenvalues ---    0.05559   0.05616   0.05643   0.05648   0.05729
     Eigenvalues ---    0.13281   0.14027   0.14876   0.16000   0.16000
     Eigenvalues ---    0.16000   0.16000   0.16000   0.16000   0.16000
     Eigenvalues ---    0.16000   0.16000   0.17106   0.21245   0.25297
     Eigenvalues ---    0.27399   0.28843   0.29068   0.29209   0.33128
     Eigenvalues ---    0.33129   0.33137   0.33149   0.33215   0.33222
     Eigenvalues ---    0.33255   0.33275   0.33383   0.33555   0.34317
 Quartic linear search produced a step of  0.34182.
 Iteration  1 RMS(Cart)=  0.01682219 RMS(Int)=  0.00042689
 Iteration  2 RMS(Cart)=  0.00050980 RMS(Int)=  0.00023975
 Iteration  3 RMS(Cart)=  0.00000018 RMS(Int)=  0.00023975
 Variable       Old X    -DE/DX   Delta X   Delta X   Delta X     New X
                                 (Linear)    (Quad)   (Total)
    R1        2.93576   0.00379   0.01270   0.01228   0.02498   2.96074
    R2        2.08034  -0.00007  -0.00215   0.00058  -0.00157   2.07878
    R3        2.09002  -0.00115   0.00211  -0.00541  -0.00330   2.08672
    R4        2.08781  -0.00004  -0.00015  -0.00011  -0.00026   2.08755
    R5        2.90763  -0.00217   0.00042  -0.01025  -0.00983   2.89780
    R6        2.93576   0.00379   0.01270   0.01228   0.02498   2.96075
    R7        2.86037  -0.00603  -0.01394  -0.02216  -0.03610   2.82427
    R8        2.08144   0.00040  -0.00166   0.00227   0.00061   2.08205
    R9        2.08705  -0.00031  -0.00029  -0.00111  -0.00141   2.08564
   R10        2.08705  -0.00031  -0.00029  -0.00111  -0.00141   2.08564
   R11        2.09002  -0.00115   0.00211  -0.00541  -0.00330   2.08672
   R12        2.08034  -0.00007  -0.00215   0.00058  -0.00157   2.07878
   R13        2.08781  -0.00004  -0.00015  -0.00011  -0.00026   2.08755
   R14        3.34858  -0.00237  -0.01854  -0.00464  -0.02318   3.32540
   R15        2.10907   0.00175   0.00964   0.00314   0.01278   2.12185
   R16        2.10907   0.00175   0.00964   0.00315   0.01278   2.12185
    A1        1.92705  -0.00077  -0.00005  -0.00720  -0.00734   1.91970
    A2        1.93049  -0.00104  -0.00320  -0.00611  -0.00936   1.92113
    A3        1.92225  -0.00197  -0.00592  -0.01415  -0.02017   1.90207
    A4        1.88480   0.00097  -0.00095   0.00908   0.00808   1.89289
    A5        1.88510   0.00119   0.00073   0.00728   0.00785   1.89295
    A6        1.91322   0.00175   0.00975   0.01202   0.02171   1.93493
    A7        1.92931   0.00004   0.00612  -0.00300   0.00299   1.93230
    A8        1.88660  -0.00109  -0.01224  -0.02132  -0.03360   1.85300
    A9        1.92826   0.00011  -0.00076   0.00221   0.00108   1.92934
   A10        1.92931   0.00004   0.00611  -0.00300   0.00299   1.93230
   A11        1.86259   0.00081   0.00210   0.02344   0.02545   1.88804
   A12        1.92826   0.00011  -0.00076   0.00221   0.00107   1.92933
   A13        1.90471   0.00064  -0.00692   0.00983   0.00293   1.90764
   A14        1.95713  -0.00066   0.00412  -0.00807  -0.00399   1.95314
   A15        1.95713  -0.00066   0.00412  -0.00807  -0.00398   1.95314
   A16        1.87660   0.00009  -0.00112   0.00268   0.00158   1.87818
   A17        1.87660   0.00009  -0.00112   0.00268   0.00158   1.87818
   A18        1.88830   0.00057   0.00063   0.00174   0.00229   1.89059
   A19        1.93049  -0.00104  -0.00320  -0.00611  -0.00936   1.92112
   A20        1.92705  -0.00077  -0.00005  -0.00720  -0.00735   1.91970
   A21        1.92225  -0.00197  -0.00592  -0.01415  -0.02017   1.90207
   A22        1.88480   0.00097  -0.00095   0.00908   0.00808   1.89289
   A23        1.91322   0.00175   0.00975   0.01202   0.02171   1.93493
   A24        1.88510   0.00119   0.00073   0.00728   0.00785   1.89295
   A25        2.01902   0.00391   0.00813   0.03256   0.03965   2.05868
   A26        1.99021   0.00114   0.01983  -0.00482   0.01419   2.00440
   A27        1.99021   0.00114   0.01983  -0.00483   0.01418   2.00439
   A28        1.79963  -0.00174  -0.01781   0.01359  -0.00507   1.79456
   A29        1.79963  -0.00174  -0.01781   0.01358  -0.00507   1.79456
   A30        1.84188  -0.00372  -0.01843  -0.05355  -0.07248   1.76940
    D1       -1.06624   0.00062  -0.00193   0.00945   0.00747  -1.05877
    D2        1.04746   0.00001   0.00168  -0.00959  -0.00800   1.03947
    D3       -3.12394  -0.00047  -0.00778  -0.01902  -0.02674   3.13250
    D4        3.13172   0.00057   0.00136   0.00668   0.00802   3.13974
    D5       -1.03776  -0.00004   0.00497  -0.01236  -0.00745  -1.04521
    D6        1.07402  -0.00052  -0.00449  -0.02179  -0.02620   1.04782
    D7        1.01411   0.00037  -0.00484   0.00501   0.00018   1.01429
    D8        3.12782  -0.00024  -0.00123  -0.01403  -0.01529   3.11253
    D9       -1.04359  -0.00073  -0.01069  -0.02346  -0.03404  -1.07763
   D10        1.04408  -0.00065  -0.00371  -0.01523  -0.01897   1.02511
   D11       -1.03322  -0.00077  -0.00036  -0.02001  -0.02038  -1.05360
   D12        3.12138  -0.00053  -0.00705  -0.01044  -0.01756   3.10382
   D13       -1.04408   0.00065   0.00371   0.01523   0.01897  -1.02511
   D14       -3.12138   0.00053   0.00705   0.01045   0.01757  -3.10382
   D15        1.03322   0.00077   0.00036   0.02001   0.02038   1.05360
   D16       -3.14159   0.00000   0.00000   0.00000   0.00000  -3.14159
   D17        1.06429  -0.00012   0.00335  -0.00478  -0.00140   1.06289
   D18       -1.06429   0.00012  -0.00335   0.00479   0.00142  -1.06288
   D19        1.03776   0.00004  -0.00497   0.01236   0.00745   1.04521
   D20       -1.04746  -0.00001  -0.00168   0.00959   0.00800  -1.03946
   D21       -3.12782   0.00024   0.00123   0.01403   0.01529  -3.11252
   D22       -3.13171  -0.00057  -0.00136  -0.00668  -0.00802  -3.13973
   D23        1.06625  -0.00062   0.00193  -0.00945  -0.00747   1.05878
   D24       -1.01411  -0.00037   0.00484  -0.00501  -0.00017  -1.01428
   D25       -1.07402   0.00052   0.00449   0.02179   0.02619  -1.04783
   D26        3.12394   0.00047   0.00778   0.01902   0.02674  -3.13250
   D27        1.04359   0.00073   0.01069   0.02346   0.03404   1.07763
   D28       -1.04340   0.00061   0.00819   0.01187   0.02013  -1.02327
   D29       -3.12629  -0.00100   0.01058  -0.02817  -0.01759   3.13931
   D30        1.03948   0.00222   0.00581   0.05189   0.05785   1.09733
   D31       -3.14159   0.00000  -0.00000   0.00000   0.00000  -3.14159
   D32        1.05871  -0.00161   0.00239  -0.04003  -0.03772   1.02099
   D33       -1.05871   0.00161  -0.00239   0.04002   0.03771  -1.02099
   D34        1.04341  -0.00061  -0.00819  -0.01186  -0.02013   1.02328
   D35       -1.03948  -0.00222  -0.00581  -0.05189  -0.05785  -1.09733
   D36        3.12629   0.00100  -0.01058   0.02817   0.01758  -3.13931
         Item               Value     Threshold  Converged?
 Maximum Force            0.006033     0.000015     NO 
 RMS     Force            0.001449     0.000010     NO 
 Maximum Displacement     0.050872     0.000060     NO 
 RMS     Displacement     0.016895     0.000040     NO 
 GradGradGradGradGradGradGradGradGradGradGradGradGradGradGradGradGradGrad

                    Distance matrix (angstroms):
                    1          2          3          4          5
     1  C    0.000000
     2  C    1.566757   0.000000
     3  C    2.550621   1.533452   0.000000
     4  C    2.505321   1.566759   2.550621   0.000000
     5  C    2.516294   1.494538   2.452545   2.516289   0.000000
     6  Cl   3.229032   2.792116   4.110446   3.229031   1.759725
     7  H    1.100042   2.200739   2.801638   2.723408   3.465270
     8  H    1.104244   2.204912   3.506989   2.729131   2.772403
     9  H    1.104684   2.191100   2.767430   3.475468   2.769579
    10  H    2.767330   2.163834   1.101771   2.767328   3.411499
    11  H    2.821176   2.198284   1.103673   3.527340   2.732326
    12  H    3.527339   2.198284   1.103672   2.821178   2.732319
    13  H    2.729131   2.204911   3.506988   1.104244   2.772393
    14  H    2.723405   2.200739   2.801639   1.100042   3.465266
    15  H    3.475468   2.191102   2.767429   1.104683   2.769573
    16  H    3.537104   2.214612   2.754231   2.856223   1.122837
    17  H    2.856224   2.214607   2.754228   3.537098   1.122837
                    6          7          8          9         10
     6  Cl   0.000000
     7  H    4.232002   0.000000
     8  H    2.818985   1.788430   0.000000
     9  H    3.581412   1.788829   1.818940   0.000000
    10  H    4.939995   2.564841   3.777871   3.087255   0.000000
    11  H    4.413269   3.176246   3.830242   2.583557   1.779839
    12  H    4.413266   3.810748   4.372605   3.798748   1.779839
    13  H    2.818979   3.059093   2.486228   3.752910   3.777871
    14  H    4.232000   2.477468   3.059087   3.733327   2.564841
    15  H    3.581414   3.733329   3.752912   4.334196   3.087251
    16  H    2.287862   4.382208   3.825077   3.816670   3.771664
    17  H    2.287859   3.859928   3.211121   2.652574   3.771663
                   11         12         13         14         15
    11  H    0.000000
    12  H    1.789426   0.000000
    13  H    4.372605   3.830242   0.000000
    14  H    3.810748   3.176251   1.788431   0.000000
    15  H    3.798749   2.583557   1.818941   1.788829   0.000000
    16  H    3.111874   2.564086   3.211115   3.859928   2.652571
    17  H    2.564089   3.111864   3.825067   4.382203   3.816663
                   16         17
    16  H    0.000000
    17  H    1.737531   0.000000
 Framework group  C1[X(C5H11Cl)]
 Deg. of freedom    45
                         Standard orientation:                         
 ---------------------------------------------------------------------
 Center     Atomic      Atomic             Coordinates (Angstroms)
 Number     Number       Type             X           Y           Z
 ---------------------------------------------------------------------
      1          6           0        0.810930   -0.921354    1.252683
      2          6           0        0.777355    0.019069    0.000003
      3          6           0        1.983756    0.965679   -0.000015
      4          6           0        0.810936   -0.921407   -1.252638
      5          6           0       -0.465983    0.848380   -0.000024
      6         17           0       -2.014754    0.012953   -0.000005
      7          1           0        1.724606   -1.533805    1.238773
      8          1           0       -0.062715   -1.596639    1.243149
      9          1           0        0.819181   -0.301607    2.167107
     10          1           0        2.912147    0.372393   -0.000002
     11          1           0        2.000281    1.611691    0.894685
     12          1           0        2.000282    1.611656   -0.894740
     13          1           0       -0.062713   -1.596687   -1.243079
     14          1           0        1.724609   -1.533860   -1.238695
     15          1           0        0.819194   -0.301700   -2.167089
     16          1           0       -0.563003    1.553057   -0.868804
     17          1           0       -0.563007    1.553094    0.868727
 ---------------------------------------------------------------------
 Rotational constants (GHZ):           4.3201567           1.7167327           1.6934665
   110 basis functions,   206 primitive gaussians,   116 cartesian basis functions
    29 alpha electrons       28 beta electrons
       nuclear repulsion energy       313.6790749004 Hartrees.
 NAtoms=   17 NActive=   17 NUniq=   17 SFac= 1.00D+00 NAtFMM=   60 NAOKFM=F Big=F
 Nuclear repulsion after empirical dispersion term =      313.6681762625 Hartrees.
   1 Symmetry operations used in ECPInt.
 ECPInt:  NShTT=    1830 NPrTT=    7624 LenC2=    1823 LenP2D=    6210.
 LDataN:  DoStor=T MaxTD1= 4 Len=   56
 Initial guess from the checkpoint file:  "19.chk"
 B after Tr=    -0.000000   -0.000000    0.000000
         Rot=    0.999997    0.000000    0.000000   -0.002622 Ang=   0.30 deg.
 Initial guess <Sx>= 0.0000 <Sy>= 0.0000 <Sz>= 0.5000 <S**2>= 0.7523 S= 0.5011
 ExpMin= 1.22D-01 ExpMax= 1.04D+04 ExpMxC= 1.57D+03 IAcc=3 IRadAn=         5 AccDes= 0.00D+00
 Harris functional with IExCor= 4639 and IRadAn=       5 diagonalized for initial guess.
 HarFok:  IExCor= 4639 AccDes= 0.00D+00 IRadAn=         5 IDoV= 1 UseB2=F ITyADJ=14
 ICtDFT=  3500011 ScaDFX=  1.000000  1.000000  1.000000  1.000000
 FoFCou: FMM=F IPFlag=           0 FMFlag=      100000 FMFlg1=           0
         NFxFlg=           0 DoJE=T BraDBF=F KetDBF=T FulRan=T
         wScrn=  0.000000 ICntrl=       500 IOpCl=  0 I1Cent=   200000004 NGrid=           0
         NMat0=    1 NMatS0=      1 NMatT0=    0 NMatD0=    1 NMtDS0=    0 NMtDT0=    0
 Petite list used in FoFCou.
     Minimum is close to point  4 DX=  6.70D-02 DF= -1.75D-06 DXR=  5.29D-02 DFR=  2.81D-03 which will be used.
     Accept linear search using points  2 and  3.
     Accept linear search using points  1 and  2.
     Minimum is close to point  2 DX= -4.07D-02 DF= -7.25D-07 DXR=  4.25D-02 DFR=  1.86D-03 which will be used.
     Minimum is close to point  2 DX=  7.74D-03 DF= -9.16D-11 DXR=  7.68D-03 DFR=  5.89D-05 which will be used.
 SCF Done:  E(UwB97XD) =  -656.613437437     a.u. after    6 cycles
            Convg  =    0.3656D-07                    55 Fock formations.
              S**2 =  0.7523                  -V/T =  2.0049
 <Sx>= 0.0000 <Sy>= 0.0000 <Sz>= 0.5000 <S**2>= 0.7523 S= 0.5012
 <L.S>=  0.00000000000    
 Annihilation of the first spin contaminant:
 S**2 before annihilation     0.7523,   after     0.7500
   1 Symmetry operations used in ECPInt.
 ECPInt:  NShTT=    1830 NPrTT=    7624 LenC2=    1823 LenP2D=    6210.
 LDataN:  DoStor=T MaxTD1= 5 Len=  102
 Calling FoFJK, ICntrl=      2127 FMM=F ISym2X=0 I1Cent= 0 IOpClX= 1 NMat=1 NMatS=1 NMatT=0.

 GradGradGradGradGradGradGradGradGradGradGradGradGradGradGradGradGradGrad
 Using GEDIIS/GDIIS optimizer.
 FormGI is forming the generalized inverse of G from B-inverse, IUseBI=4.
 Internal  Forces:  Max     0.002649594 RMS     0.000774146
 Step number   3 out of a maximum of   92
 All quantities printed in internal units (Hartrees-Bohrs-Radians)
 Mixed Optimization -- En-DIIS/RFO-DIIS
 Trust test= 1.22D+00 RLast= 1.85D-01 DXMaxT set to 5.55D-01
 ITU=  1  1  0
 Use linear search instead of GDIIS.
     Eigenvalues ---    0.00263   0.00300   0.00318   0.00318   0.02914
     Eigenvalues ---    0.04371   0.04646   0.04951   0.05167   0.05347
     Eigenvalues ---    0.05612   0.05672   0.05760   0.05793   0.05820
     Eigenvalues ---    0.13801   0.13981   0.15018   0.16000   0.16000
     Eigenvalues ---    0.16000   0.16000   0.16000   0.16000   0.16000
     Eigenvalues ---    0.16000   0.16196   0.19036   0.22591   0.24220
     Eigenvalues ---    0.27147   0.29001   0.29068   0.29851   0.33129
     Eigenvalues ---    0.33130   0.33149   0.33164   0.33222   0.33226
     Eigenvalues ---    0.33256   0.33383   0.33394   0.33555   0.36128
 Quartic linear search produced a step of  0.31607.
 Iteration  1 RMS(Cart)=  0.00883226 RMS(Int)=  0.00013851
 Iteration  2 RMS(Cart)=  0.00013792 RMS(Int)=  0.00009478
 Iteration  3 RMS(Cart)=  0.00000002 RMS(Int)=  0.00009478
 Variable       Old X    -DE/DX   Delta X   Delta X   Delta X     New X
                                 (Linear)    (Quad)   (Total)
    R1        2.96074   0.00265   0.00790   0.01246   0.02035   2.98109
    R2        2.07878   0.00019  -0.00049   0.00008  -0.00042   2.07836
    R3        2.08672  -0.00104  -0.00104  -0.00245  -0.00350   2.08322
    R4        2.08755   0.00008  -0.00008   0.00027   0.00018   2.08773
    R5        2.89780  -0.00124  -0.00311  -0.00354  -0.00665   2.89115
    R6        2.96075   0.00265   0.00790   0.01246   0.02036   2.98110
    R7        2.82427  -0.00016  -0.01141  -0.00058  -0.01199   2.81227
    R8        2.08205   0.00006   0.00019  -0.00056  -0.00037   2.08168
    R9        2.08564   0.00020  -0.00044   0.00085   0.00041   2.08605
   R10        2.08564   0.00020  -0.00045   0.00085   0.00041   2.08605
   R11        2.08672  -0.00104  -0.00104  -0.00245  -0.00350   2.08322
   R12        2.07878   0.00019  -0.00049   0.00008  -0.00042   2.07836
   R13        2.08755   0.00008  -0.00008   0.00027   0.00018   2.08773
   R14        3.32540  -0.00072  -0.00733  -0.00731  -0.01464   3.31076
   R15        2.12185  -0.00107   0.00404  -0.00204   0.00200   2.12386
   R16        2.12185  -0.00107   0.00404  -0.00204   0.00200   2.12386
    A1        1.91970  -0.00050  -0.00232  -0.00070  -0.00308   1.91662
    A2        1.92113   0.00022  -0.00296   0.00233  -0.00067   1.92046
    A3        1.90207  -0.00131  -0.00638  -0.01156  -0.01802   1.88405
    A4        1.89289   0.00056   0.00255   0.00721   0.00976   1.90264
    A5        1.89295   0.00082   0.00248   0.00452   0.00690   1.89985
    A6        1.93493   0.00023   0.00686  -0.00167   0.00512   1.94005
    A7        1.93230   0.00002   0.00094   0.00097   0.00175   1.93405
    A8        1.85300  -0.00070  -0.01062  -0.01435  -0.02496   1.82805
    A9        1.92934   0.00015   0.00034   0.00184   0.00200   1.93134
   A10        1.93230   0.00002   0.00094   0.00097   0.00174   1.93404
   A11        1.88804   0.00036   0.00804   0.00844   0.01642   1.90447
   A12        1.92933   0.00015   0.00034   0.00183   0.00199   1.93132
   A13        1.90764   0.00052   0.00093   0.00226   0.00319   1.91083
   A14        1.95314  -0.00024  -0.00126  -0.00033  -0.00160   1.95155
   A15        1.95314  -0.00024  -0.00126  -0.00033  -0.00160   1.95155
   A16        1.87818  -0.00002   0.00050   0.00063   0.00113   1.87931
   A17        1.87818  -0.00002   0.00050   0.00063   0.00113   1.87931
   A18        1.89059   0.00003   0.00072  -0.00280  -0.00209   1.88850
   A19        1.92112   0.00022  -0.00296   0.00232  -0.00067   1.92045
   A20        1.91970  -0.00050  -0.00232  -0.00070  -0.00308   1.91662
   A21        1.90207  -0.00131  -0.00638  -0.01156  -0.01802   1.88405
   A22        1.89289   0.00056   0.00256   0.00721   0.00976   1.90265
   A23        1.93493   0.00023   0.00686  -0.00167   0.00513   1.94005
   A24        1.89295   0.00082   0.00248   0.00453   0.00690   1.89985
   A25        2.05868  -0.00092   0.01253  -0.00207   0.01014   2.06881
   A26        2.00440  -0.00138   0.00448  -0.00947  -0.00530   1.99910
   A27        2.00439  -0.00138   0.00448  -0.00948  -0.00530   1.99909
   A28        1.79456   0.00204  -0.00160   0.01679   0.01492   1.80949
   A29        1.79456   0.00204  -0.00160   0.01678   0.01491   1.80948
   A30        1.76940   0.00027  -0.02291  -0.00959  -0.03275   1.73665
    D1       -1.05877   0.00050   0.00236   0.00824   0.01054  -1.04824
    D2        1.03947   0.00010  -0.00253   0.00124  -0.00132   1.03815
    D3        3.13250  -0.00005  -0.00845  -0.00414  -0.01258   3.11992
    D4        3.13974  -0.00002   0.00254  -0.00167   0.00084   3.14058
    D5       -1.04521  -0.00041  -0.00235  -0.00867  -0.01101  -1.05622
    D6        1.04782  -0.00057  -0.00828  -0.01406  -0.02228   1.02555
    D7        1.01429   0.00041   0.00006   0.00635   0.00638   1.02067
    D8        3.11253   0.00001  -0.00483  -0.00065  -0.00547   3.10705
    D9       -1.07763  -0.00015  -0.01076  -0.00603  -0.01674  -1.09436
   D10        1.02511  -0.00042  -0.00600  -0.00827  -0.01432   1.01079
   D11       -1.05360  -0.00058  -0.00644  -0.01033  -0.01681  -1.07041
   D12        3.10382  -0.00026  -0.00555  -0.00621  -0.01182   3.09200
   D13       -1.02511   0.00042   0.00600   0.00827   0.01432  -1.01079
   D14       -3.10382   0.00026   0.00555   0.00622   0.01182  -3.09200
   D15        1.05360   0.00058   0.00644   0.01033   0.01682   1.07042
   D16       -3.14159   0.00000   0.00000   0.00001   0.00001  -3.14158
   D17        1.06289  -0.00016  -0.00044  -0.00205  -0.00249   1.06040
   D18       -1.06288   0.00016   0.00045   0.00206   0.00251  -1.06037
   D19        1.04521   0.00041   0.00235   0.00868   0.01102   1.05623
   D20       -1.03946  -0.00010   0.00253  -0.00124   0.00132  -1.03814
   D21       -3.11252  -0.00001   0.00483   0.00065   0.00547  -3.10705
   D22       -3.13973   0.00002  -0.00253   0.00168  -0.00083  -3.14057
   D23        1.05878  -0.00050  -0.00236  -0.00823  -0.01053   1.04825
   D24       -1.01428  -0.00041  -0.00006  -0.00635  -0.00638  -1.02066
   D25       -1.04783   0.00057   0.00828   0.01405   0.02227  -1.02555
   D26       -3.13250   0.00005   0.00845   0.00414   0.01258  -3.11992
   D27        1.07763   0.00015   0.01076   0.00603   0.01673   1.09436
   D28       -1.02327   0.00034   0.00636   0.00772   0.01413  -1.00914
   D29        3.13931  -0.00052  -0.00556  -0.00585  -0.01137   3.12794
   D30        1.09733   0.00120   0.01828   0.02128   0.03961   1.13694
   D31       -3.14159   0.00000   0.00000   0.00001   0.00001  -3.14158
   D32        1.02099  -0.00086  -0.01192  -0.01357  -0.02549   0.99550
   D33       -1.02099   0.00086   0.01192   0.01357   0.02549  -0.99551
   D34        1.02328  -0.00034  -0.00636  -0.00770  -0.01411   1.00917
   D35       -1.09733  -0.00120  -0.01828  -0.02127  -0.03960  -1.13693
   D36       -3.13931   0.00052   0.00556   0.00586   0.01137  -3.12793
         Item               Value     Threshold  Converged?
 Maximum Force            0.002650     0.000015     NO 
 RMS     Force            0.000774     0.000010     NO 
 Maximum Displacement     0.028241     0.000060     NO 
 RMS     Displacement     0.008907     0.000040     NO 
 GradGradGradGradGradGradGradGradGradGradGradGradGradGradGradGradGradGrad

                    Distance matrix (angstroms):
                    1          2          3          4          5
     1  C    0.000000
     2  C    1.577527   0.000000
     3  C    2.558200   1.529933   0.000000
     4  C    2.498704   1.577532   2.558201   0.000000
     5  C    2.521852   1.488191   2.459021   2.521842   0.000000
     6  Cl   3.229790   2.788380   4.110441   3.229795   1.751979
     7  H    1.099822   2.207815   2.803301   2.706548   3.466706
     8  H    1.102394   2.212552   3.510562   2.719957   2.768959
     9  H    1.104781   2.187065   2.763619   3.466477   2.769380
    10  H    2.768936   2.162948   1.101576   2.768933   3.415125
    11  H    2.833375   2.194194   1.103888   3.535078   2.740896
    12  H    3.535077   2.194195   1.103888   2.833379   2.740883
    13  H    2.719955   2.212551   3.510560   1.102394   2.768942
    14  H    2.706542   2.207817   2.803304   1.099822   3.466698
    15  H    3.466476   2.187070   2.763616   1.104781   2.769367
    16  H    3.542562   2.206170   2.749335   2.874520   1.123896
    17  H    2.874526   2.206162   2.749327   3.542552   1.123898
                    6          7          8          9         10
     6  Cl   0.000000
     7  H    4.230617   0.000000
     8  H    2.814877   1.793008   0.000000
     9  H    3.580465   1.793164   1.820700   0.000000
    10  H    4.937344   2.561055   3.778227   3.079260   0.000000
    11  H    4.415024   3.184979   3.837302   2.585130   1.780590
    12  H    4.415021   3.810702   4.376098   3.796048   1.780592
    13  H    2.814873   3.044880   2.474437   3.742460   3.778225
    14  H    4.230617   2.447580   3.044871   3.713551   2.561053
    15  H    3.580477   3.713554   3.742464   4.320607   3.079250
    16  H    2.294265   4.382032   3.827133   3.810963   3.767717
    17  H    2.294257   3.873378   3.225173   2.666626   3.767714
                   11         12         13         14         15
    11  H    0.000000
    12  H    1.788425   0.000000
    13  H    4.376096   3.837301   0.000000
    14  H    3.810701   3.184990   1.793011   0.000000
    15  H    3.796048   2.585131   1.820701   1.793166   0.000000
    16  H    3.103043   2.561354   3.225157   3.873375   2.666616
    17  H    2.561359   3.103021   3.827118   4.382024   3.810950
                   16         17
    16  H    0.000000
    17  H    1.715621   0.000000
 Framework group  C1[X(C5H11Cl)]
 Deg. of freedom    45
                         Standard orientation:                         
 ---------------------------------------------------------------------
 Center     Atomic      Atomic             Coordinates (Angstroms)
 Number     Number       Type             X           Y           Z
 ---------------------------------------------------------------------
      1          6           0        0.811664   -0.929961    1.249372
      2          6           0        0.774808    0.032490    0.000003
      3          6           0        1.984017    0.969778   -0.000016
      4          6           0        0.811670   -0.930012   -1.249332
      5          6           0       -0.471849    0.845238   -0.000029
      6         17           0       -2.013503    0.012933    0.000000
      7          1           0        1.727011   -1.539136    1.223828
      8          1           0       -0.064972   -1.598268    1.237251
      9          1           0        0.824050   -0.304997    2.160311
     10          1           0        2.910617    0.374057   -0.000006
     11          1           0        2.001519    1.616822    0.894185
     12          1           0        2.001516    1.616791   -0.894240
     13          1           0       -0.064972   -1.598312   -1.237186
     14          1           0        1.727013   -1.539192   -1.223752
     15          1           0        0.824066   -0.305086   -2.160296
     16          1           0       -0.559078    1.566117   -0.857856
     17          1           0       -0.559079    1.566157    0.857765
 ---------------------------------------------------------------------
 Rotational constants (GHZ):           4.3133367           1.7196343           1.6906834
   110 basis functions,   206 primitive gaussians,   116 cartesian basis functions
    29 alpha electrons       28 beta electrons
       nuclear repulsion energy       313.6674194623 Hartrees.
 NAtoms=   17 NActive=   17 NUniq=   17 SFac= 1.00D+00 NAtFMM=   60 NAOKFM=F Big=F
 Nuclear repulsion after empirical dispersion term =      313.6565175560 Hartrees.
   1 Symmetry operations used in ECPInt.
 ECPInt:  NShTT=    1830 NPrTT=    7624 LenC2=    1823 LenP2D=    6208.
 LDataN:  DoStor=T MaxTD1= 4 Len=   56
 Initial guess from the checkpoint file:  "19.chk"
 B after Tr=     0.000000    0.000000    0.000000
         Rot=    1.000000    0.000000   -0.000001   -0.000141 Ang=  -0.02 deg.
 Initial guess <Sx>= 0.0000 <Sy>= 0.0000 <Sz>= 0.5000 <S**2>= 0.7523 S= 0.5012
 ExpMin= 1.22D-01 ExpMax= 1.04D+04 ExpMxC= 1.57D+03 IAcc=3 IRadAn=         5 AccDes= 0.00D+00
 Harris functional with IExCor= 4639 and IRadAn=       5 diagonalized for initial guess.
 HarFok:  IExCor= 4639 AccDes= 0.00D+00 IRadAn=         5 IDoV= 1 UseB2=F ITyADJ=14
 ICtDFT=  3500011 ScaDFX=  1.000000  1.000000  1.000000  1.000000
 FoFCou: FMM=F IPFlag=           0 FMFlag=      100000 FMFlg1=           0
         NFxFlg=           0 DoJE=T BraDBF=F KetDBF=T FulRan=T
         wScrn=  0.000000 ICntrl=       500 IOpCl=  0 I1Cent=   200000004 NGrid=           0
         NMat0=    1 NMatS0=      1 NMatT0=    0 NMatD0=    1 NMtDS0=    0 NMtDT0=    0
 Petite list used in FoFCou.
     Minimum is close to point  4 DX=  6.05D-02 DF= -4.49D-07 DXR=  4.80D-02 DFR=  2.31D-03 which will be used.
     Accept linear search using points  1 and  2.
     Minimum is close to point  2 DX= -2.25D-02 DF= -1.35D-07 DXR=  2.30D-02 DFR=  5.37D-04 which will be used.
     Minimum is close to point  2 DX=  2.47D-03 DF= -2.16D-12 DXR=  2.47D-03 DFR=  6.15D-06 which will be used.
 SCF Done:  E(UwB97XD) =  -656.613835723     a.u. after    4 cycles
            Convg  =    0.5714D-06                    37 Fock formations.
              S**2 =  0.7524                  -V/T =  2.0049
 <Sx>= 0.0000 <Sy>= 0.0000 <Sz>= 0.5000 <S**2>= 0.7524 S= 0.5012
 <L.S>=  0.00000000000    
 Annihilation of the first spin contaminant:
 S**2 before annihilation     0.7524,   after     0.7500
   1 Symmetry operations used in ECPInt.
 ECPInt:  NShTT=    1830 NPrTT=    7624 LenC2=    1823 LenP2D=    6208.
 LDataN:  DoStor=T MaxTD1= 5 Len=  102
 Calling FoFJK, ICntrl=      2127 FMM=F ISym2X=0 I1Cent= 0 IOpClX= 1 NMat=1 NMatS=1 NMatT=0.

 GradGradGradGradGradGradGradGradGradGradGradGradGradGradGradGradGradGrad
 Using GEDIIS/GDIIS optimizer.
 FormGI is forming the generalized inverse of G from B-inverse, IUseBI=4.
 Internal  Forces:  Max     0.002103440 RMS     0.000723444
 Step number   4 out of a maximum of   92
 All quantities printed in internal units (Hartrees-Bohrs-Radians)
 Mixed Optimization -- En-DIIS/RFO-DIIS
 Swapping is turned off.
 Trust test= 1.41D+00 RLast= 1.17D-01 DXMaxT set to 5.55D-01
 ITU=  1  1  1  0
     Eigenvalues ---    0.00263   0.00300   0.00318   0.00318   0.01790
     Eigenvalues ---    0.04234   0.04443   0.05250   0.05336   0.05372
     Eigenvalues ---    0.05592   0.05706   0.05845   0.05910   0.05931
     Eigenvalues ---    0.13229   0.13915   0.15120   0.16000   0.16000
     Eigenvalues ---    0.16000   0.16000   0.16000   0.16000   0.16000
     Eigenvalues ---    0.16086   0.16358   0.19018   0.22483   0.24998
     Eigenvalues ---    0.26916   0.29068   0.29141   0.30837   0.33129
     Eigenvalues ---    0.33147   0.33149   0.33160   0.33222   0.33224
     Eigenvalues ---    0.33262   0.33383   0.33555   0.33716   0.36051
 En-DIIS/RFO-DIIS/Sim-DIIS IScMMF=       -3 using points:     4    3
 RFO step:  Lambda=-4.76326727D-04.
 DidBck=F Rises=F RFO-DIIS coefs:    2.16315   -1.16315
 Iteration  1 RMS(Cart)=  0.01099896 RMS(Int)=  0.00023684
 Iteration  2 RMS(Cart)=  0.00024372 RMS(Int)=  0.00018309
 Iteration  3 RMS(Cart)=  0.00000002 RMS(Int)=  0.00018309
 Variable       Old X    -DE/DX   Delta X   Delta X   Delta X     New X
                                 (Linear)    (Quad)   (Total)
    R1        2.98109   0.00130   0.02367  -0.00019   0.02348   3.00458
    R2        2.07836   0.00005  -0.00048  -0.00031  -0.00079   2.07757
    R3        2.08322  -0.00048  -0.00407   0.00040  -0.00367   2.07955
    R4        2.08773   0.00029   0.00022   0.00120   0.00141   2.08915
    R5        2.89115  -0.00108  -0.00774  -0.00244  -0.01018   2.88097
    R6        2.98110   0.00131   0.02368  -0.00018   0.02350   3.00461
    R7        2.81227   0.00186  -0.01395   0.00992  -0.00403   2.80824
[...]
   yy         0.632262D+02      0.936915D+01      0.104246D+02
   zx        -0.370928D+01     -0.549659D+00     -0.611578D+00
   zy        -0.631865D+01     -0.936328D+00     -0.104180D+01
   zz         0.999750D+02      0.148148D+02      0.164836D+02

 ----------------------------------------------------------------------
 1\1\GINC-C278\Freq\UwB97XD\def2SVPP\C5H11Cl1(1+,2)\PETERCHAO1\10-Jul-2
 023\0\\#T Geom=AllCheck Guess=TCheck SCRF=Check GenChk UwB97XD/def2SVP
 P Freq\\comment\\1,2\C,-0.8101304036,-0.9209441356,-1.2595149158\C,-0.
 7870792207,0.0925148806,-0.1553664411\C,-2.0282675781,0.9305533714,0.0
 023745204\C,-0.8042009473,-0.9344848888,1.3546265813\C,0.5014352792,0.
 8650312194,0.048432053\Cl,1.9957865492,-0.0409777197,-0.1482749618\H,-
 1.7821929206,-1.4326415522,-1.3326677168\H,0.0095935631,-1.6540455145,
 -1.1948076467\H,-0.6535105909,-0.365164463,-2.2107430766\H,-2.93323428
 ,0.3101240055,0.1110768475\H,-2.16396972,1.5070072273,-0.9372867986\H,
 -1.9642749148,1.6472424443,0.8362856641\H,0.1938945124,-1.3918841726,1
 .2700570205\H,-1.6588682153,-1.6036876658,1.1909728608\H,-0.932108489,
 -0.2194391231,2.1776002583\H,0.5293980709,1.4107432133,1.0041750779\H,
 0.4824703056,1.6342138736,-0.7569463262\\Version=ES64L-G16RevB.01\Stat
 e=2-A\HF=-656.6218329\S2=0.753707\S2-1=0.\S2A=0.75001\RMSD=1.446e-11\R
 MSF=7.464e-07\ZeroPoint=0.1460189\Thermal=0.1546057\Dipole=-1.5744034,
 0.1060616,0.3630548\DipoleDeriv=-0.0101292,0.0880941,0.0857246,0.27606
 35,-0.0239354,0.0643286,-0.2821463,-0.3317934,-0.5097981,0.1900607,-0.
 0645664,0.0868697,-0.8279922,0.1545919,0.2025656,1.0991293,0.2813913,0
 .1920895,-0.263004,0.1299504,-0.0009588,0.4531101,-0.1418992,-0.017772
 6,-0.7327363,0.1471679,-0.0199466,0.1986337,0.0222035,-0.0366395,0.770
 7812,0.4337269,-0.2421062,-0.84286,-0.3389678,0.5528266,0.5565643,-0.1
 350077,-0.118009,-0.941107,-0.2714124,0.0543245,0.4674564,0.2657889,-0
 .0770631,-0.5470012,-0.0277731,0.0715608,0.4587129,0.0198178,-0.054750
 6,-0.0458263,-0.0258843,-0.0039754,0.0215594,-0.0299744,0.0129679,-0.0
 094668,0.0812813,-0.0388706,0.0540312,0.0299667,0.1294856,0.0392022,0.
 0078096,-0.0604525,-0.0083695,0.0795215,-0.0106959,0.002933,0.0602564,
 0.138481,0.0926733,-0.0486573,-0.0315458,-0.1152589,-0.0188323,-0.0341
 974,-0.0375474,0.0540411,0.191318,0.143394,-0.0267587,-0.0027662,-0.09
 00441,0.0308061,0.0031818,0.0949888,-0.0386423,0.1138298,0.0063334,-0.
 0293848,0.0573946,0.0273247,0.1268641,0.0026043,0.204033,-0.0437225,0.
 0429744,0.0663986,-0.0224645,-0.0463918,-0.0437614,0.07488,-0.0323169,
 0.0354387,-0.0683227,0.0315046,0.1367133,-0.002573,0.0567868,-0.087263
 6,0.0810875,0.0417496,0.1011693,0.032824,-0.0206554,0.0921712,0.014153
 6,-0.0636242,-0.0252106,0.0912128,0.0445569,0.044782,0.0434498,-0.0210
 511,0.1001983,0.0053183,-0.0085019,-0.1208509,-0.0473265,0.0333514,0.1
 030114,0.0723228,0.0672995,0.0957912,0.0847309,0.0280515,0.1318646,0.1
 388499,-0.0096465,-0.0035645,-0.0529734,0.0644401,0.0804409,0.0348998,
 -0.0304663,0.151468,0.1907659,-0.0063059,-0.2622923,-0.0869026,0.12824
 05\Polar=100.1553969,3.7012617,62.4513254,-5.5321629,-1.9299185,62.308
 7184\Quadrupole=0.2611891,-0.2443757,-0.0168134,0.4218869,-0.544272,-1
 .0411252\PG=C01 [X(C5H11Cl1)]\NImag=0\\0.61624545,0.00062078,0.5347436
 1,0.00908933,-0.01221294,0.45718719,-0.09200171,0.00704975,-0.00440755
 ,0.45275353,-0.00305124,-0.12037338,-0.07693365,-0.03237409,0.38848806
 ,-0.00643686,-0.07005445,-0.13724060,0.00911488,0.14042378,0.32531500,
 0.00103287,0.00675355,0.01004587,-0.15403410,0.05335012,0.00561661,0.5
 1220836,0.01967191,-0.01631255,-0.00907809,0.05938626,-0.11456606,-0.0
 2576233,0.05684641,0.53910921,0.02316872,-0.02228361,0.00943471,-0.001
 30374,-0.02883516,-0.07026005,0.00094299,0.05147162,0.54913933,-0.0002
 0988,0.00026694,-0.00114037,0.00346692,0.00263067,-0.00054727,-0.00801
 594,0.00146466,0.00684963,0.60491902,-0.00290169,-0.01538425,0.0096125
 5,0.00650553,0.02277948,-0.03127075,0.00517768,-0.01214041,0.00915921,
 0.01346199,0.43771042,0.00004901,0.00280076,-0.01687842,-0.00707982,-0
 .03007533,0.01877971,0.00065383,0.01186323,-0.01361964,-0.01072400,0.2
 2699238,0.31380746,-0.00028227,-0.01879275,-0.00431254,-0.12602720,-0.
 02572944,-0.01559269,-0.03441648,-0.01101413,0.00684428,-0.01697076,-0
 .01824738,0.00917496,0.36768596,-0.01315348,-0.00661996,-0.02175636,-0
 .03539518,-0.10731199,-0.00610896,0.00397515,0.02292529,-0.01005324,-0
 .00052943,0.00276715,-0.00500547,-0.00193469,0.43432641,-0.02956143,-0
 .02885233,0.01223697,0.00586231,0.00340605,-0.09473700,-0.00088258,-0.
 00961255,0.01955816,-0.00897103,-0.00690679,0.00789524,0.00238700,0.03
 480747,0.54928740,0.00047726,0.00297697,-0.00233448,-0.03704873,0.0094
 5209,0.01345197,-0.00163412,-0.00271346,-0.00601650,-0.00265085,0.0105
 4442,-0.00834501,-0.12530270,0.05859339,0.02034917,0.19470282,-0.00415
 566,-0.00506497,0.00491851,-0.00062842,0.01284221,-0.00892178,-0.00016
 853,-0.00342635,0.00509456,-0.00677333,-0.00969873,0.00953686,0.062842
 77,-0.06976639,-0.01869814,-0.08978510,0.08664470,-0.00249682,0.000912
 73,0.00025966,0.00114164,0.00010775,0.00154565,-0.00189522,0.00038325,
 0.00017461,0.00458397,0.00179234,-0.00234053,0.01110717,-0.01248039,-0
 .03949026,-0.02019476,0.01546650,0.02879315,-0.27162765,-0.11337530,-0
 .01307775,0.00130791,0.00003395,-0.00143756,0.00044182,0.00108624,-0.0
 0007939,-0.00001166,0.00000625,0.00073988,0.00129928,0.00181327,0.0016
 7029,0.00005030,-0.00067356,-0.00039878,0.28323301,-0.11121315,-0.1110
 9300,-0.01036576,-0.01772989,-0.00828108,0.00230096,-0.00024090,-0.000
 02532,0.00178497,-0.00051663,-0.00042036,0.00063487,0.00028318,-0.0022
 8807,-0.00528037,0.00055545,0.00063298,0.00057152,0.12270575,0.1129245
 5,-0.01084003,-0.00693402,-0.04245640,-0.02577657,-0.01376531,-0.00486
 979,-0.00027616,0.00130831,-0.00106038,-0.00049200,-0.00174097,-0.0001
 8091,0.00268135,-0.00130382,-0.00329225,0.00058879,-0.00003859,0.00037
 337,0.01411126,0.01231704,0.04929296,-0.20349527,0.13373049,-0.0204968
 3,0.00264735,0.00372010,0.00645060,0.00235620,-0.00073714,-0.00044737,
 -0.00000551,0.00010672,-0.00011451,-0.00138389,-0.00370629,0.00093639,
 -0.00273964,-0.00114703,-0.00082492,-0.01352517,0.01769647,-0.00184818
 ,0.21294668,0.13502138,-0.17230693,0.00839343,0.01408676,-0.01225507,0
 .00700302,-0.00114944,-0.00102849,-0.00369351,0.00063071,0.00068092,-0
 .00078411,0.00093776,-0.00160482,-0.00008442,-0.00140942,0.00101925,0.
 00001885,-0.01149965,0.01351377,-0.00047098,-0.14818589,0.18012568,-0.
 01898564,0.01224292,-0.04175937,0.02297671,-0.01680826,0.00055349,-0.0
 0275043,-0.00259838,-0.00436838,0.00068808,-0.00253776,-0.00120598,-0.
 00072092,0.00276275,-0.00241173,-0.00071833,-0.00093146,-0.00050625,-0
 .00019715,0.00110653,-0.00119526,0.01714183,-0.01003984,0.05048714,-0.
 04190122,-0.02058718,0.02794774,-0.00422960,0.00061704,0.00005672,0.00
 095475,0.00036943,-0.00131019,-0.00008003,0.00117388,0.00075322,0.0020
 9964,-0.00363312,0.00286674,-0.00050398,0.00141839,0.00085661,-0.00212
 319,-0.01199110,0.02253068,0.00247097,0.01123639,-0.01862029,0.0429731
 5,-0.01919684,-0.09854194,0.10410434,0.00091429,0.00248967,-0.01830339
 ,0.00032178,-0.00113752,0.00307724,-0.00024765,0.00523299,0.00013690,0
 .00300610,-0.00382648,0.00549160,-0.00122438,0.00170496,-0.00047845,0.
 00006078,-0.00585728,0.01162157,-0.00360535,-0.00906376,0.01754855,0.0
 2022759,0.11112561,0.03106142,0.11632365,-0.22306148,0.00156970,0.0015
 7413,-0.02322563,-0.00196898,0.00213117,-0.00115447,0.00043234,0.00135
 380,-0.00685505,0.00276538,0.00170583,0.00213321,-0.00065516,0.0003878
 7,-0.00040673,-0.00154044,-0.00209061,0.00289014,0.00167757,-0.0001175
 8,-0.00082373,-0.03331605,-0.11759209,0.24711904,0.00046366,0.00077944
 ,-0.00207585,-0.02303352,-0.01468473,0.00170444,-0.22734781,-0.1303583
 9,0.02671223,-0.00187644,-0.00045000,0.00054246,-0.00120223,0.00602444
 ,-0.00072495,-0.00089363,-0.00084815,0.00021778,0.00043322,0.00044603,
 0.00080274,0.00038711,0.00012590,-0.00017396,0.00036450,-0.00052673,-0
 .00017732,0.24632557,0.00035960,0.00006503,0.00026198,0.01553187,0.012
 12213,-0.00051716,-0.13080125,-0.13847818,0.01007040,0.00229854,0.0000
 6127,-0.00075771,0.00263271,-0.00240739,0.00114904,0.00086138,0.000484
 20,0.00015701,0.00013813,-0.00025975,-0.00028858,-0.00027342,-0.000097
 10,0.00017467,-0.00009131,0.00022313,0.00014296,0.13597397,0.14534456,
 0.00061293,0.00051385,-0.00218923,-0.00455114,0.00471301,-0.00224392,0
 .02837952,0.00843232,-0.04675135,-0.00103972,0.00014781,0.00056661,0.0
 0093145,0.00231680,-0.00027736,0.00002477,-0.00048437,0.00056762,0.000
 49397,-0.00076725,0.00011425,-0.00039593,-0.00011703,0.00018568,0.0002
 9116,-0.00045591,0.00034263,-0.02550843,-0.01606551,0.04672385,0.00111
 190,-0.00099515,-0.00053645,-0.01378718,0.01190946,-0.01699117,-0.0371
 4924,0.01875086,-0.03105897,0.00112792,0.00304752,-0.00425053,0.002994
 96,-0.00072144,0.00433893,-0.00167129,0.00094558,0.00047788,0.00005712
 ,0.00003305,-0.00020009,-0.00041903,-0.00051665,0.00011706,-0.00049699
 ,0.00048067,0.00002552,0.00363673,-0.01337211,0.02143478,0.04688395,-0
 .00054366,0.00388672,-0.00145663,0.00501020,-0.01259273,0.01228567,0.0
 1509734,-0.11017055,0.11538065,0.00057260,-0.00152622,0.00159628,-0.00
 069364,-0.00108995,-0.00026135,0.00009391,-0.00009399,-0.00011338,0.00
 006848,-0.00030145,0.00049859,0.00031249,0.00024110,-0.00005504,0.0008
 1193,-0.00113425,-0.00046951,0.00251620,-0.00774632,0.01424147,-0.0202
 8868,0.11780261,0.00103281,0.00083697,-0.00413505,-0.00128728,-0.00002
 419,0.00247249,-0.02229970,0.10879858,-0.22570995,-0.00408147,0.001963
 30,-0.00010146,0.00015682,0.00394657,-0.00361809,0.00078158,-0.0011670
 7,0.00041420,-0.00009581,-0.00031059,0.00040193,-0.00040793,0.00017680
 ,0.00060657,0.00046836,-0.00182169,0.00078645,-0.00208713,0.00068537,-
 0.00234513,0.02802870,-0.12445815,0.24406897,-0.00436917,0.00279883,-0
 .00161182,0.00429065,0.01725148,0.02319460,-0.05446830,-0.01565478,-0.
 01601956,-0.00044110,0.00062655,0.00042632,-0.00034856,0.00009958,0.00
 078776,0.00073372,-0.00027055,-0.00026271,0.00004554,0.00014900,-0.000
 02034,0.00024179,0.00095642,0.00119082,-0.00010280,-0.00031178,-0.0001
 2458,0.00155924,-0.01363204,-0.02058362,-0.00064742,-0.00253097,-0.002
 04934,0.05390217,0.00271257,0.00160437,0.00108336,-0.00116472,-0.01549
 124,-0.01235852,-0.01464019,-0.16168241,-0.13805154,0.00024779,0.00055
 798,-0.00179700,0.00017414,-0.00073512,0.00153620,-0.00068808,0.000418
 82,0.00020241,0.00011713,0.00042898,0.00041581,0.00051615,-0.00017086,
 -0.00102322,0.00038195,-0.00040980,-0.00081940,0.00113466,-0.00833624,
 -0.01141219,0.00067567,0.01161230,0.01305367,0.01011312,0.17190314,0.0
 0038490,-0.00185932,0.00123669,-0.00026807,0.00445494,-0.00124978,-0.0
 1268612,-0.14025228,-0.20991059,-0.00081715,-0.00014274,0.00102682,-0.
 00115192,0.00111530,-0.00113614,0.00027445,-0.00016421,0.00020211,-0.0
 0005408,0.00001828,-0.00013069,-0.00042854,-0.00009258,0.00015887,-0.0
 0021888,0.00052016,0.00055560,0.00001155,0.00487210,0.00465989,-0.0012
 2443,-0.01702013,-0.01550671,0.01573311,0.14826514,0.21967679,-0.00102
 664,-0.00274145,0.00456870,-0.00705955,0.00688810,-0.00278429,0.000472
 97,0.00099439,-0.00280685,-0.28476495,0.10343316,0.02099633,0.00281912
 ,-0.00552604,0.00499443,0.00090581,0.00114153,-0.00106014,-0.00012238,
 0.00023677,-0.00025047,0.00087245,-0.00031259,-0.00051072,0.00080212,0
 .00070288,-0.00006230,0.00033674,-0.00002954,0.00001402,-0.00042794,0.
 00033753,0.00028018,0.00015965,-0.00016827,0.00001773,0.29355123,-0.00
 078597,-0.00111293,0.00134202,0.00331161,-0.00605001,0.00698083,0.0008
 5608,0.00067052,-0.00199157,0.11243211,-0.09906637,-0.02432053,0.00336
 738,-0.00485278,0.00491761,-0.00043998,0.00216090,-0.00133901,-0.00011
 348,0.00013485,-0.00023173,0.00015789,0.00027238,-0.00050643,0.0000316
 2,0.00032201,-0.00055049,0.00026068,-0.00023113,0.00012128,-0.00031702
 ,-0.00001006,0.00066022,0.00006733,-0.00005978,0.00016676,-0.11685536,
 0.09509125,0.00004022,0.00281095,-0.00445314,0.00048488,0.00760915,-0.
 00434685,-0.00134387,-0.00135119,0.00315408,0.00917217,-0.01888801,-0.
 04111397,-0.00475517,0.00795529,-0.00799564,-0.00073072,-0.00336225,0.
 00170083,0.00006015,-0.00037408,0.00023737,-0.00074928,0.00024150,-0.0
 0073848,-0.00079374,-0.00086407,0.00100342,-0.00040115,0.00021531,-0.0
 0023086,0.00056790,0.00005488,-0.00066928,-0.00005678,0.00042976,-0.00
 011199,-0.01895972,0.01603742,0.03946469,0.00078017,0.00211584,-0.0029
 1792,-0.00263889,-0.00269614,-0.00187592,-0.00012402,0.00137153,-0.001
 31276,-0.23413111,-0.13852061,-0.03313964,0.00036535,-0.00035393,0.001
 31096,0.00024940,-0.00065776,0.00035204,0.00035598,0.00010872,0.000252
 72,-0.00045601,-0.00006131,0.00031512,-0.00001892,-0.00029762,0.000125
 33,0.00039464,0.00053333,-0.00035246,0.00026619,0.00020488,0.00044060,
 -0.00009573,0.00007422,0.00008752,-0.00923721,-0.01607120,-0.00262434,
 0.23675304,-0.00038359,-0.00122738,0.00118598,-0.00391492,-0.00420867,
 0.00367360,-0.00017690,-0.00052098,0.00047457,-0.14338748,-0.16086228,
 -0.03932756,-0.00076867,-0.00012742,-0.00037811,-0.00014956,0.00036904
 ,-0.00018591,0.00001919,0.00035424,-0.00008512,0.00030759,-0.00004651,
 -0.00021770,0.00040112,0.00042164,-0.00045250,0.00035278,-0.00048917,0
 .00041310,-0.00005907,0.00018825,-0.00048500,0.00002783,-0.00006147,-0
 .00003310,0.01051197,0.01254038,0.00031310,0.15061902,0.15734819,0.001
 89647,0.00360321,-0.00453170,0.00212505,0.00854211,-0.00671117,0.00014
 939,0.00087864,-0.00264398,-0.02687248,-0.03648283,-0.04494751,0.00240
 266,-0.00088645,0.00150518,0.00141640,0.00029015,-0.00061488,-0.000202
 11,0.00019814,-0.00044831,-0.00019450,-0.00002534,0.00049817,-0.000260
 45,-0.00097505,0.00102330,0.00029820,0.00036881,0.00016486,0.00035285,
 0.00002248,0.00073496,-0.00013084,-0.00004104,0.00009953,-0.00024079,0
 .00070305,0.00657999,0.03665529,0.03612770,0.04548819,-0.00029340,-0.0
 0059984,0.00059422,0.00133757,0.00129864,0.00092338,-0.00024189,0.0004
 4030,-0.00147337,-0.06222566,0.02148625,0.02550495,-0.00106484,0.00124
 249,-0.00023995,-0.00050086,-0.00057894,0.00023902,0.00016411,-0.00000
 742,0.00005818,0.00003982,-0.00018059,-0.00013410,0.00031043,0.0002193
 9,-0.00000073,-0.00007035,-0.00024764,-0.00005732,-0.00021105,-0.00011
 873,0.00030069,0.00019754,0.00041331,-0.00027752,0.00435396,0.01400669
 ,0.01889861,0.00803116,-0.01380764,-0.01631178,0.05010575,0.00104374,0
 .00382096,-0.00366604,-0.00112884,-0.00683364,0.00925525,-0.00002377,-
 0.00088236,0.00462380,0.02007587,-0.16656061,-0.15379099,0.00172939,-0
 .00439214,0.00522829,-0.00181154,0.00151776,-0.00046734,0.00020890,0.0
 0005307,0.00047434,-0.00047047,0.00007550,0.00068999,-0.00043786,-0.00
 107667,0.00013640,-0.00021223,0.00000544,-0.00050236,-0.00011497,0.000
 17693,-0.00070153,-0.00004493,-0.00023890,0.00039112,0.00044381,-0.000
 43217,-0.00903806,0.00350374,-0.00341920,-0.01316438,-0.02279817,0.176
 92081,-0.00071359,-0.00187802,0.00190173,0.00192958,0.00202129,-0.0126
 7556,0.00015398,-0.00032709,-0.00142102,0.02742321,-0.16144925,-0.2082
 7322,-0.00168402,0.00241769,-0.00316884,0.00142924,-0.00110789,0.00016
 739,-0.00006157,-0.00000630,-0.00021572,0.00023397,0.00006760,-0.00038
 843,0.00036543,0.00080411,-0.00044268,0.00002898,-0.00002528,0.0001061
 8,0.00028633,-0.00008753,0.00078252,-0.00013963,0.00056619,0.00002084,
 -0.00333523,-0.00018577,0.00566111,0.00259544,-0.00130316,0.00384665,-
 0.02843970,0.16074197,0.21291021,-0.00579292,-0.00266639,0.00282814,0.
 00196097,-0.00923540,-0.02728211,0.00041148,-0.00200556,0.00117143,-0.
 00087846,-0.00318219,0.00178299,-0.04447419,-0.00346824,-0.00741474,-0
 .01026335,0.01722367,0.01982976,0.00031175,-0.00104832,-0.00104107,0.0
 0033378,-0.00003016,-0.00028789,0.00043261,0.00072545,0.00040480,-0.00
 010119,0.00031227,0.00019475,0.00053250,-0.00025010,-0.00022394,-0.000
 79136,0.00037680,0.00013722,-0.00014084,0.00026029,-0.00016967,0.00005
 489,0.00005466,-0.00006539,-0.00026015,0.00020863,-0.00002172,0.057208
 26,-0.00409122,0.00128975,0.00314721,-0.00674785,-0.01279335,-0.017616
 69,0.00095699,-0.00186878,0.00299131,-0.00146149,-0.00137336,-0.000069
 02,-0.00369559,-0.10344748,-0.11985259,0.00764817,-0.00895244,-0.01049
 675,-0.00018320,-0.00010536,-0.00103731,0.00113742,0.00038885,-0.00010
 658,0.00046471,0.00010949,-0.00069336,-0.00013303,-0.00001570,-0.00020
 345,0.00067331,0.00022944,-0.00033698,0.00019398,0.00080499,-0.0000833
 0,0.00061171,0.00022078,-0.00103397,0.00022626,-0.00009821,0.00056065,
 -0.00076914,0.00040109,0.00015883,0.00385508,0.11580934,0.00028416,0.0
 0041937,0.00059339,0.00082546,0.00181298,0.00055102,-0.00008311,0.0004
 9301,-0.00057901,0.00126019,0.00119342,-0.00025193,-0.00941559,-0.1219
 1669,-0.26518255,0.00005565,0.00201730,0.00451553,0.00000362,0.0000248
 4,0.00021082,-0.00009816,-0.00007438,0.00000431,-0.00005049,0.00003244
 ,0.00017439,0.00008740,0.00005361,0.00016982,-0.00017645,-0.00000536,0
 .00021873,-0.00037686,0.00010299,0.00020660,-0.00014423,-0.00033065,0.
 00012373,0.00010023,0.00005220,0.00010934,0.00042444,0.00071657,0.0000
 2629,0.00922844,0.12661221,0.27565841,0.00088882,0.00266546,-0.0021624
 5,-0.00790440,-0.01938058,0.01243468,-0.00044656,0.00210148,-0.0038605
 8,0.00274850,-0.00226808,0.00302953,-0.02579120,-0.00332646,0.00229069
 ,-0.01391017,0.02211508,-0.01167254,-0.00028998,0.00053299,-0.00028079
 ,-0.00027164,0.00035036,0.00066979,-0.00095145,-0.00124859,-0.00021649
 ,0.00062377,-0.00019449,0.00011129,-0.00180115,-0.00059976,0.00104285,
 0.00013414,-0.00027627,0.00048024,-0.00149454,-0.00016867,0.00136052,-
 0.00054891,0.00035365,-0.00101797,0.00032785,-0.00017130,-0.00005071,0
 .00145622,0.00131389,-0.00192471,0.04723070,0.00004653,0.00262685,0.00
 142010,-0.01271237,-0.01796434,0.00899092,0.00386586,-0.00046508,0.000
 78029,-0.00116587,-0.00275761,0.00236645,0.00590284,-0.15154887,0.1333
 9039,0.00749574,-0.01079195,0.00594887,-0.00041286,0.00058922,-0.00073
 922,0.00044027,0.00025608,0.00029926,-0.00039347,-0.00058179,-0.000970
 26,-0.00040083,-0.00024476,-0.00089159,-0.00013104,0.00052817,-0.00081
 628,0.00016094,-0.00014477,-0.00015614,0.00033140,0.00040214,-0.000755
 72,-0.00009897,-0.00016046,0.00028015,0.00000102,0.00086412,-0.0004073
 8,-0.00113049,0.00940094,-0.01120385,-0.00179870,0.16999212,0.00141438
 ,0.00361029,-0.00614496,-0.00135604,-0.00822330,0.00834298,-0.00175603
 ,0.00322178,-0.00398205,0.00427591,0.00720429,-0.00630721,-0.00081823,
 0.12248370,-0.17130631,0.00062295,-0.00283601,0.00464454,0.00006545,0.
 00023781,0.00032887,-0.00043423,-0.00040143,0.00090338,-0.00156659,-0.
 00284626,-0.00005841,0.00074303,-0.00049702,0.00043646,-0.00119186,-0.
 00015296,0.00159886,0.00004347,-0.00015259,0.00020218,-0.00071664,-0.0
 0147302,0.00173501,-0.00001220,0.00022792,-0.00015263,-0.00000904,-0.0
 0092701,0.00116255,0.00092900,0.01805979,-0.01654889,-0.00023335,-0.13
 753599,0.18514563\\-0.00000006,0.00000075,-0.00000024,0.00000009,0.000
 00067,-0.00000033,0.00000076,0.00000081,0.00000121,0.00000026,-0.00000
 047,-0.00000060,-0.00000075,-0.00000069,0.00000034,0.00000046,-0.00000
 104,-0.00000076,-0.00000089,0.00000107,-0.00000068,-0.00000122,0.00000
 042,-0.00000122,-0.00000091,0.00000108,0.00000005,-0.00000002,0.000000
 67,0.00000065,0.00000016,0.00000086,0.00000120,0.00000082,-0.00000019,
 0.00000124,-0.00000004,-0.00000110,-0.00000120,-0.00000026,-0.00000027
 ,-0.00000081,0.00000051,-0.00000123,0.,0.00000084,-0.00000109,0.000000
 41,0.00000024,-0.00000024,0.00000073\\\@


 SEE YOU NOW,
 YOUR BAIT OF FALSEHOOD TAKES THIS CARP OF TRUTH.
 AND THUS DO WE OF WISDOM AND OF REACH...
 BY INDIRECTIONS FIND DIRECTIONS OUT.    -- HAMLET, II, 1
 Job cpu time:       0 days  0 hours  6 minutes 47.1 seconds.
 Elapsed time:       0 days  0 hours  1 minutes 44.2 seconds.
 File lengths (MBytes):  RWF=     57 Int=      0 D2E=      0 Chk=      3 Scr=      1
 Normal termination of Gaussian 16 at Mon Jul 10 20:05:35 2023.
real 2846.90
user 10859.28
sys 42.21
