 Entering Gaussian System, Link 0=g16
 Input=gaussian_test.inp
 Output=gaussian_test.log
 Initial command:
 /sw/restricted/lms/sw/Gaussian/g16_B01/g16/l1.exe "/scratch/user/peterchao1/peterchao1/6318283_1663960373000000673129996/Gau-223631.inp" -scrdir="/scratch/user/peterchao1/peterchao1/6318283_1663960373000000673129996/"
 Entering Link 1 = /sw/restricted/lms/sw/Gaussian/g16_B01/g16/l1.exe PID=    223632.
  
 Copyright (c) 1988-2017, Gaussian, Inc.  All Rights Reserved.
  
 This is part of the Gaussian(R) 16 program.  It is based on
 the Gaussian(R) 09 system (copyright 2009, Gaussian, Inc.),
 the Gaussian(R) 03 system (copyright 2003, Gaussian, Inc.),
 the Gaussian(R) 98 system (copyright 1998, Gaussian, Inc.),
 the Gaussian(R) 94 system (copyright 1995, Gaussian, Inc.),
 the Gaussian 92(TM) system (copyright 1992, Gaussian, Inc.),
 the Gaussian 90(TM) system (copyright 1990, Gaussian, Inc.),
 the Gaussian 88(TM) system (copyright 1988, Gaussian, Inc.),
 the Gaussian 86(TM) system (copyright 1986, Carnegie Mellon
 University), and the Gaussian 82(TM) system (copyright 1983,
 Carnegie Mellon University). Gaussian is a federally registered
 trademark of Gaussian, Inc.
  
 This software contains proprietary and confidential information,
 including trade secrets, belonging to Gaussian, Inc.
  
 This software is provided under written license and may be
 used, copied, transmitted, or stored only in accord with that
 written license.
  
 The following legend is applicable only to US Government
 contracts under FAR:
  
                    RESTRICTED RIGHTS LEGEND
  
 Use, reproduction and disclosure by the US Government is
 subject to restrictions as set forth in subparagraphs (a)
 and (c) of the Commercial Computer Software - Restricted
 Rights clause in FAR 52.227-19.
  
 Gaussian, Inc.
 340 Quinnipiac St., Bldg. 40, Wallingford CT 06492
  
  
 ---------------------------------------------------------------
 Warning -- This program may not be used in any manner that
 competes with the business of Gaussian, Inc. or will provide
 assistance to any competitor of Gaussian, Inc.  The licensee
 of this program is prohibited from giving any competitor of
 Gaussian, Inc. access to this program.  By using this program,
 the user acknowledges that Gaussian, Inc. is engaged in the
 business of creating and licensing software in the field of
 computational chemistry and represents and warrants to the
 licensee that it is not a competitor of Gaussian, Inc. and that
 it will not use this program in any manner prohibited above.
 ---------------------------------------------------------------
  

 Cite this work as:
 Gaussian 16, Revision B.01,
 M. J. Frisch, G. W. Trucks, H. B. Schlegel, G. E. Scuseria, 
 M. A. Robb, J. R. Cheeseman, G. Scalmani, V. Barone, 
 G. A. Petersson, H. Nakatsuji, X. Li, M. Caricato, A. V. Marenich, 
 J. Bloino, B. G. Janesko, R. Gomperts, B. Mennucci, H. P. Hratchian, 
 J. V. Ortiz, A. F. Izmaylov, J. L. Sonnenberg, D. Williams-Young, 
 F. Ding, F. Lipparini, F. Egidi, J. Goings, B. Peng, A. Petrone, 
 T. Henderson, D. Ranasinghe, V. G. Zakrzewski, J. Gao, N. Rega, 
 G. Zheng, W. Liang, M. Hada, M. Ehara, K. Toyota, R. Fukuda, 
 J. Hasegawa, M. Ishida, T. Nakajima, Y. Honda, O. Kitao, H. Nakai, 
 T. Vreven, K. Throssell, J. A. Montgomery, Jr., J. E. Peralta, 
 F. Ogliaro, M. J. Bearpark, J. J. Heyd, E. N. Brothers, K. N. Kudin, 
 V. N. Staroverov, T. A. Keith, R. Kobayashi, J. Normand, 
 K. Raghavachari, A. P. Rendell, J. C. Burant, S. S. Iyengar, 
 J. Tomasi, M. Cossi, J. M. Millam, M. Klene, C. Adamo, R. Cammi, 
 J. W. Ochterski, R. L. Martin, K. Morokuma, O. Farkas, 
 J. B. Foresman, and D. J. Fox, Gaussian, Inc., Wallingford CT, 2016.
 
 ******************************************
 Gaussian 16:  ES64L-G16RevB.01 20-Dec-2017
                23-Sep-2022 
 ******************************************
 %chk=30.chk
 %nprocshared=4
 Will use up to    4 processors via shared memory.
 %mem=8000mb
 --------------------------------------------------------------
 #T wB97XD//def2svpp Volume=tight Geom=AllCheckpoint Guess=Read
 --------------------------------------------------------------
 Structure from the checkpoint file:  "30.chk"
 -------
 Monomer
 -------
 Charge =  0 Multiplicity = 1
 Redundant internal coordinates found in file.  (old form).
 O,0,-1.716794,-1.376558,-1.044853
 C,0,-0.317711,-1.264975,-1.126305
 C,0,0.147503,-0.406316,0.049901
 Br,0,-0.355895,1.448732,-0.222374
 C,0,-0.375287,-0.910358,1.411489
 O,0,-1.735392,-0.727267,1.582598
 N,0,1.675279,-0.432289,0.078855
 O,0,2.237148,-0.840326,-0.911645
 O,0,2.214739,-0.042325,1.08303
 H,0,-2.057325,-1.810973,-1.83664
 H,0,0.009639,-0.809094,-2.075067
 H,0,0.169441,-2.254795,-1.033
 H,0,0.14545,-0.359519,2.207014
 H,0,-0.069948,-1.978876,1.482255
 H,0,-2.192529,-1.084641,0.802992
 Recover connectivity data from disk.
                           ----------------------------
                           !    Current Parameters    !
                           ! (Angstroms and Degrees)  !
 --------------------------                            --------------------------
 ! Name  Definition              Value                                          !
 --------------------------------------------------------------------------------
 ! R1    R(1,2)                  1.4059                                         !
 ! R2    R(1,10)                 0.9652                                         !
 ! R3    R(2,3)                  1.5288                                         !
 ! R4    R(2,11)                 1.1023                                         !
 ! R5    R(2,12)                 1.1071                                         !
 ! R6    R(3,4)                  1.9413                                         !
 ! R7    R(3,5)                  1.5431                                         !
 ! R8    R(3,7)                  1.5283                                         !
 ! R9    R(5,6)                  1.383                                          !
 ! R10   R(5,13)                 1.0988                                         !
 ! R11   R(5,14)                 1.1135                                         !
 ! R12   R(6,15)                 0.9718                                         !
 ! R13   R(7,8)                  1.2097                                         !
 ! R14   R(7,9)                  1.2048                                         !
 ! A1    A(2,1,10)             109.8341                                         !
 ! A2    A(1,2,3)              107.6279                                         !
 ! A3    A(1,2,11)             112.223                                          !
 ! A4    A(1,2,12)             111.2254                                         !
 ! A5    A(3,2,11)             109.849                                          !
 ! A6    A(3,2,12)             107.6624                                         !
 ! A7    A(11,2,12)            108.156                                          !
 ! A8    A(2,3,4)              110.4803                                         !
 ! A9    A(2,3,5)              113.098                                          !
 ! A10   A(2,3,7)              108.0132                                         !
 ! A11   A(4,3,5)              110.3662                                         !
 ! A12   A(4,3,7)              106.148                                          !
 ! A13   A(5,3,7)              108.4457                                         !
 ! A14   A(3,5,6)              113.5219                                         !
 ! A15   A(3,5,13)             108.3309                                         !
 ! A16   A(3,5,14)             106.0577                                         !
 ! A17   A(6,5,13)             108.0662                                         !
 ! A18   A(6,5,14)             112.8822                                         !
 ! A19   A(13,5,14)            107.7624                                         !
 ! A20   A(5,6,15)             108.3405                                         !
 ! A21   A(3,7,8)              117.0362                                         !
 ! A22   A(3,7,9)              117.2528                                         !
 ! A23   A(8,7,9)              125.7107                                         !
 ! D1    D(10,1,2,3)           172.3596                                         !
 ! D2    D(10,1,2,11)           51.3834                                         !
 ! D3    D(10,1,2,12)          -69.9344                                         !
 ! D4    D(1,2,3,4)            -71.7197                                         !
 ! D5    D(1,2,3,5)             52.5556                                         !
 ! D6    D(1,2,3,7)            172.5817                                         !
 ! D7    D(11,2,3,4)            50.734                                          !
 ! D8    D(11,2,3,5)           175.0094                                         !
 ! D9    D(11,2,3,7)           -64.9645                                         !
 ! D10   D(12,2,3,4)           168.2904                                         !
 ! D11   D(12,2,3,5)           -67.4343                                         !
 ! D12   D(12,2,3,7)            52.5918                                         !
 ! D13   D(2,3,5,6)            -70.157                                          !
 ! D14   D(2,3,5,13)           169.8092                                         !
 ! D15   D(2,3,5,14)            54.355                                          !
 ! D16   D(4,3,5,6)             54.1806                                         !
 ! D17   D(4,3,5,13)           -65.8532                                         !
 ! D18   D(4,3,5,14)           178.6926                                         !
 ! D19   D(7,3,5,6)            170.0646                                         !
 ! D20   D(7,3,5,13)            50.0308                                         !
 ! D21   D(7,3,5,14)           -65.4234                                         !
 ! D22   D(2,3,7,8)             14.8793                                         !
 ! D23   D(2,3,7,9)           -165.2954                                         !
 ! D24   D(4,3,7,8)           -103.6223                                         !
 ! D25   D(4,3,7,9)             76.2031                                         !
 ! D26   D(5,3,7,8)            137.7895                                         !
 ! D27   D(5,3,7,9)            -42.3851                                         !
 ! D28   D(3,5,6,15)            50.4721                                         !
 ! D29   D(13,5,6,15)          170.6559                                         !
 ! D30   D(14,5,6,15)          -70.2679                                         !
 --------------------------------------------------------------------------------
                    Distance matrix (angstroms):
                    1          2          3          4          5
     1  O    0.000000
     2  C    1.405887   0.000000
     3  C    2.369696   1.528784   0.000000
     4  Br   3.242034   2.860552   1.941326   0.000000
     5  C    2.837358   2.563097   1.543143   2.869702   0.000000
     6  O    2.706552   3.104369   2.448972   3.145776   1.382999
     7  N    3.696014   2.473416   1.528271   2.784717   2.491844
     8  O    3.992361   2.598790   2.340844   3.526862   3.496666
     9  O    4.665299   3.576218   2.339511   3.245842   2.751291
    10  H    0.965197   1.956769   3.223874   4.015768   3.767055
    11  H    2.089001   1.102332   2.167193   2.943444   3.509201
    12  H    2.080703   1.107143   2.142436   3.827428   2.842493
    13  H    3.882906   3.485023   2.157622   3.069698   1.098841
    14  H    3.075900   2.715810   2.138193   3.838753   1.113540
    15  H    1.930303   2.696229   2.550102   3.292807   1.924321
                    6          7          8          9         10
     6  O    0.000000
     7  N    3.739108   0.000000
     8  O    4.692026   1.209662   0.000000
     9  O    4.040080   1.204764   2.148496   0.000000
    10  H    3.601284   4.416132   4.498919   5.468374   0.000000
    11  H    4.053436   2.748767   2.513230   3.927337   2.309318
    12  H    3.578140   2.612527   2.508159   3.681827   2.408589
    13  H    2.015614   2.621971   3.785817   2.376112   4.828051
    14  H    2.085737   2.721632   3.514220   3.021491   3.872070
    15  H    0.971842   3.988719   4.756228   4.537494   2.741076
                   11         12         13         14         15
    11  H    0.000000
    12  H    1.789271   0.000000
    13  H    4.307758   3.753710   0.000000
    14  H    3.745566   2.541642   1.787173   0.000000
    15  H    3.634377   3.212325   2.821919   2.401334   0.000000
 Framework group  C1[X(C3H6BrNO4)]
 Deg. of freedom    39
                         Standard orientation:                         
 ---------------------------------------------------------------------
 Center     Atomic      Atomic             Coordinates (Angstroms)
 Number     Number       Type             X           Y           Z
 ---------------------------------------------------------------------
      1          8           0       -1.716793   -1.376559   -1.044853
      2          6           0       -0.317710   -1.264975   -1.126305
      3          6           0        0.147503   -0.406316    0.049901
      4         35           0       -0.355896    1.448732   -0.222374
      5          6           0       -0.375286   -0.910358    1.411489
      6          8           0       -1.735392   -0.727268    1.582598
      7          7           0        1.675279   -0.432288    0.078855
      8          8           0        2.237148   -0.840325   -0.911645
      9          8           0        2.214739   -0.042324    1.083030
     10          1           0       -2.057324   -1.810974   -1.836640
     11          1           0        0.009639   -0.809094   -2.075067
     12          1           0        0.169442   -2.254795   -1.033000
     13          1           0        0.145450   -0.359519    2.207014
     14          1           0       -0.069947   -1.978876    1.482255
     15          1           0       -2.192528   -1.084642    0.802992
 ---------------------------------------------------------------------
 Rotational constants (GHZ):           1.2358872           1.0835276           0.8754232
   156 basis functions,   304 primitive gaussians,   167 cartesian basis functions
    49 alpha electrons       49 beta electrons
       nuclear repulsion energy       791.9239740925 Hartrees.
 NAtoms=   15 NActive=   15 NUniq=   15 SFac= 1.00D+00 NAtFMM=   60 NAOKFM=F Big=F
 Nuclear repulsion after empirical dispersion term =      791.9152732890 Hartrees.
   1 Symmetry operations used in ECPInt.
 ECPInt:  NShTT=    2628 NPrTT=   11487 LenC2=    2584 LenP2D=    8495.
 LDataN:  DoStor=T MaxTD1= 4 Len=   56
 Initial guess from the checkpoint file:  "30.chk"
 B after Tr=     0.000000   -0.000000    0.000000
         Rot=    1.000000    0.000000    0.000000   -0.000000 Ang=   0.00 deg.
 Skip diagonalization as Alpha Fock matrix is already diagonal.
 SCF Done:  E(RwB97XD) =  -3046.83393447     A.U. after    1 cycles
            NFock=  1  Conv=0.00D+00     -V/T= 2.0020

 **********************************************************************

            Population analysis using the SCF Density.

 **********************************************************************

 Orbital symmetries:
       Occupied  (A) (A) (A) (A) (A) (A) (A) (A) (A) (A) (A) (A)
                 (A) (A) (A) (A) (A) (A) (A) (A) (A) (A) (A) (A)
                 (A) (A) (A) (A) (A) (A) (A) (A) (A) (A) (A) (A)
                 (A) (A) (A) (A) (A) (A) (A) (A) (A) (A) (A) (A)
                 (A)
       Virtual   (A) (A) (A) (A) (A) (A) (A) (A) (A) (A) (A) (A)
                 (A) (A) (A) (A) (A) (A) (A) (A) (A) (A) (A) (A)
                 (A) (A) (A) (A) (A) (A) (A) (A) (A) (A) (A) (A)
                 (A) (A) (A) (A) (A) (A) (A) (A) (A) (A) (A) (A)
                 (A) (A) (A) (A) (A) (A) (A) (A) (A) (A) (A) (A)
                 (A) (A) (A) (A) (A) (A) (A) (A) (A) (A) (A) (A)
                 (A) (A) (A) (A) (A) (A) (A) (A) (A) (A) (A) (A)
                 (A) (A) (A) (A) (A) (A) (A) (A) (A) (A) (A) (A)
                 (A) (A) (A) (A) (A) (A) (A) (A) (A) (A) (A)
 The electronic state is 1-A.
 Alpha  occ. eigenvalues -- -483.07446 -62.65658 -56.46457 -56.46054 -56.46046
 Alpha  occ. eigenvalues --  -19.30979 -19.30933 -19.30352 -19.25726 -14.70441
 Alpha  occ. eigenvalues --  -10.42381 -10.38698 -10.36802  -8.82608  -6.65249
 Alpha  occ. eigenvalues --   -6.63794  -6.63768  -2.75595  -2.75190  -2.75169
 Alpha  occ. eigenvalues --   -2.74009  -2.74008  -1.36020  -1.18271  -1.16927
 Alpha  occ. eigenvalues --   -1.12927  -0.97946  -0.86809  -0.81329  -0.79172
 Alpha  occ. eigenvalues --   -0.68179  -0.67798  -0.66497  -0.62686  -0.61950
 Alpha  occ. eigenvalues --   -0.61157  -0.57636  -0.57010  -0.52342  -0.50292
 Alpha  occ. eigenvalues --   -0.48289  -0.43078  -0.42019  -0.41525  -0.40623
 Alpha  occ. eigenvalues --   -0.40030  -0.38340  -0.37675  -0.36873
 Alpha virt. eigenvalues --   -0.01929   0.06757   0.09091   0.14669   0.16321
 Alpha virt. eigenvalues --    0.18647   0.19104   0.21453   0.22416   0.26276
 Alpha virt. eigenvalues --    0.26565   0.27916   0.30978   0.37619   0.39243
 Alpha virt. eigenvalues --    0.46494   0.46586   0.49869   0.51478   0.53861
 Alpha virt. eigenvalues --    0.55096   0.57012   0.60671   0.61177   0.62540
 Alpha virt. eigenvalues --    0.64181   0.65442   0.66290   0.67948   0.69971
 Alpha virt. eigenvalues --    0.71331   0.73603   0.73921   0.75375   0.76628
 Alpha virt. eigenvalues --    0.78643   0.81484   0.81952   0.83922   0.88471
 Alpha virt. eigenvalues --    0.93801   0.95146   0.96187   0.99178   1.02465
 Alpha virt. eigenvalues --    1.06799   1.08764   1.09766   1.12017   1.12628
 Alpha virt. eigenvalues --    1.16162   1.18164   1.20612   1.23282   1.25492
 Alpha virt. eigenvalues --    1.32044   1.40118   1.42966   1.48692   1.52192
 Alpha virt. eigenvalues --    1.54656   1.59198   1.68953   1.73769   1.80645
 Alpha virt. eigenvalues --    1.81657   1.84957   1.89611   1.90840   1.99788
 Alpha virt. eigenvalues --    2.04543   2.09157   2.12370   2.14801   2.21225
 Alpha virt. eigenvalues --    2.27753   2.38169   2.44761   2.48113   2.49812
 Alpha virt. eigenvalues --    2.60730   2.65225   2.66876   2.69748   2.71835
 Alpha virt. eigenvalues --    2.72993   2.73160   2.82674   2.92061   2.93269
 Alpha virt. eigenvalues --    2.94708   3.04444   3.10027   3.10812   3.12592
 Alpha virt. eigenvalues --    3.23518   3.38103   3.41838   3.46646   3.50886
 Alpha virt. eigenvalues --    3.54641   3.55860   3.67292   3.68616   3.81048
 Alpha virt. eigenvalues --    3.84488   3.91986
          Condensed to atoms (all electrons):
 Mulliken charges:
               1
     1  O   -0.493026
     2  C    0.110525
     3  C   -0.299883
     4  Br   0.020931
     5  C    0.116128
     6  O   -0.471061
     7  N    0.263834
     8  O   -0.231730
     9  O   -0.214544
    10  H    0.345949
    11  H    0.138005
    12  H    0.123283
    13  H    0.151332
    14  H    0.104561
    15  H    0.335695
 Sum of Mulliken charges =  -0.00000
 Mulliken charges with hydrogens summed into heavy atoms:
               1
     1  O   -0.147077
     2  C    0.371813
     3  C   -0.299883
     4  Br   0.020931
     5  C    0.372021
     6  O   -0.135366
     7  N    0.263834
     8  O   -0.231730
     9  O   -0.214544
 Electronic spatial extent (au):  <R**2>=           1478.8246
 Charge=              0.0000 electrons
 Dipole moment (field-independent basis, Debye):
    X=             -2.1735    Y=             -2.6201    Z=             -2.8477  Tot=              4.4383
 Evaluate density.
 Using the total density.
 Monte-Carlo method of calculating molar volume:
 based on  0.001 e/bohr**3 density envelope.
 Number of points per bohr**3 =  100 CutOff= 1.00D-04
 Using the SCF density.
 There are      2017 points.  Will hold      2017 in memory.
 LenV=  1048204819 MDV=  1048576000.
 Box volume = 8215.708 fraction occupied=0.133
 Integrated density= 9.8329825725077782D+01 error= 3.2982572507778229D-01
 Molar volume = 1091.626 bohr**3/mol ( 97.416 cm**3/mol)
 Recommended a0 for SCRF calculation =  4.22 angstrom (  7.98 bohr)
 1\1\GINC-C386\SP\RwB97XD\def2SVPP\C3H6Br1N1O4\PETERCHAO1\23-Sep-2022\0
 \\#T wB97XD//def2svpp Volume=tight Geom=AllCheckpoint Guess=Read\\Mono
 mer\\0,1\O,0,-1.716794,-1.376558,-1.044853\C,0,-0.317711,-1.264975,-1.
 126305\C,0,0.147503,-0.406316,0.049901\Br,0,-0.355895,1.448732,-0.2223
 74\C,0,-0.375287,-0.910358,1.411489\O,0,-1.735392,-0.727267,1.582598\N
 ,0,1.675279,-0.432289,0.078855\O,0,2.237148,-0.840326,-0.911645\O,0,2.
 214739,-0.042325,1.08303\H,0,-2.057325,-1.810973,-1.83664\H,0,0.009639
 ,-0.809094,-2.075067\H,0,0.169441,-2.254795,-1.033\H,0,0.14545,-0.3595
 19,2.207014\H,0,-0.069948,-1.978876,1.482255\H,0,-2.192529,-1.084641,0
 .802992\\Version=ES64L-G16RevB.01\State=1-A\HF=-3046.8339345\RMSD=0.00
 0e+00\Dipole=-0.8551193,-1.0308314,-1.1203826\Quadrupole=-5.6610204,4.
 9996041,0.6614163,2.6914469,5.0166623,2.1751733\PG=C01 [X(C3H6Br1N1O4)
 ]\\@


 THE SECRET OF SUCCESS IN LIFE IS TO EAT WHAT YOU LIKE, AND LET THE FOOD
 FIGHT IT OUT INSIDE YOU. -- FROM A FORTUNE COOKIE
 File lengths (MBytes):  RWF=     15 Int=      0 D2E=      0 Chk=      3 Scr=      1
 Normal termination of Gaussian 16 at Fri Sep 23 14:22:39 2022.
