 Entering Gaussian System, Link 0=g16
 Input=gaussian_test.inp
 Output=gaussian_test.log
 Initial command:
 /sw/restricted/lms/sw/Gaussian/g16_B01/g16/l1.exe "/scratch/user/peterchao1/peterchao1/7003905_1675700106000000422849766/Gau-101287.inp" -scrdir="/scratch/user/peterchao1/peterchao1/7003905_1675700106000000422849766/"
 Entering Link 1 = /sw/restricted/lms/sw/Gaussian/g16_B01/g16/l1.exe PID=    101288.
  
 Copyright (c) 1988-2017, Gaussian, Inc.  All Rights Reserved.
  
 This is part of the Gaussian(R) 16 program.  It is based on
 the Gaussian(R) 09 system (copyright 2009, Gaussian, Inc.),
 the Gaussian(R) 03 system (copyright 2003, Gaussian, Inc.),
 the Gaussian(R) 98 system (copyright 1998, Gaussian, Inc.),
 the Gaussian(R) 94 system (copyright 1995, Gaussian, Inc.),
 the Gaussian 92(TM) system (copyright 1992, Gaussian, Inc.),
 the Gaussian 90(TM) system (copyright 1990, Gaussian, Inc.),
 the Gaussian 88(TM) system (copyright 1988, Gaussian, Inc.),
 the Gaussian 86(TM) system (copyright 1986, Carnegie Mellon
 University), and the Gaussian 82(TM) system (copyright 1983,
 Carnegie Mellon University). Gaussian is a federally registered
 trademark of Gaussian, Inc.
  
 This software contains proprietary and confidential information,
 including trade secrets, belonging to Gaussian, Inc.
  
 This software is provided under written license and may be
 used, copied, transmitted, or stored only in accord with that
 written license.
  
 The following legend is applicable only to US Government
 contracts under FAR:
  
                    RESTRICTED RIGHTS LEGEND
  
 Use, reproduction and disclosure by the US Government is
 subject to restrictions as set forth in subparagraphs (a)
 and (c) of the Commercial Computer Software - Restricted
 Rights clause in FAR 52.227-19.
  
 Gaussian, Inc.
 340 Quinnipiac St., Bldg. 40, Wallingford CT 06492
  
  
 ---------------------------------------------------------------
 Warning -- This program may not be used in any manner that
 competes with the business of Gaussian, Inc. or will provide
 assistance to any competitor of Gaussian, Inc.  The licensee
 of this program is prohibited from giving any competitor of
 Gaussian, Inc. access to this program.  By using this program,
 the user acknowledges that Gaussian, Inc. is engaged in the
 business of creating and licensing software in the field of
 computational chemistry and represents and warrants to the
 licensee that it is not a competitor of Gaussian, Inc. and that
 it will not use this program in any manner prohibited above.
 ---------------------------------------------------------------
  

 Cite this work as:
 Gaussian 16, Revision B.01,
 M. J. Frisch, G. W. Trucks, H. B. Schlegel, G. E. Scuseria, 
 M. A. Robb, J. R. Cheeseman, G. Scalmani, V. Barone, 
 G. A. Petersson, H. Nakatsuji, X. Li, M. Caricato, A. V. Marenich, 
 J. Bloino, B. G. Janesko, R. Gomperts, B. Mennucci, H. P. Hratchian, 
 J. V. Ortiz, A. F. Izmaylov, J. L. Sonnenberg, D. Williams-Young, 
 F. Ding, F. Lipparini, F. Egidi, J. Goings, B. Peng, A. Petrone, 
 T. Henderson, D. Ranasinghe, V. G. Zakrzewski, J. Gao, N. Rega, 
 G. Zheng, W. Liang, M. Hada, M. Ehara, K. Toyota, R. Fukuda, 
 J. Hasegawa, M. Ishida, T. Nakajima, Y. Honda, O. Kitao, H. Nakai, 
 T. Vreven, K. Throssell, J. A. Montgomery, Jr., J. E. Peralta, 
 F. Ogliaro, M. J. Bearpark, J. J. Heyd, E. N. Brothers, K. N. Kudin, 
 V. N. Staroverov, T. A. Keith, R. Kobayashi, J. Normand, 
 K. Raghavachari, A. P. Rendell, J. C. Burant, S. S. Iyengar, 
 J. Tomasi, M. Cossi, J. M. Millam, M. Klene, C. Adamo, R. Cammi, 
 J. W. Ochterski, R. L. Martin, K. Morokuma, O. Farkas, 
 J. B. Foresman, and D. J. Fox, Gaussian, Inc., Wallingford CT, 2016.
 
 ******************************************
 Gaussian 16:  ES64L-G16RevB.01 20-Dec-2017
                 6-Feb-2023 
 ******************************************
 %nprocshared=4
 Will use up to    4 processors via shared memory.
 %mem=8000mb
 %chk=20.chk
 %nprocshared=4
 Will use up to    4 processors via shared memory.
 %mem=8000mb
 ----------------------------------------------------------------------
 #T wB97XD/def2svpp opt=tight freq int(grid=ultrafine) scf=(verytight,q
 c) Volume=tight
 ----------------------------------------------------------------------
 -------
 Monomer
 -------
 Symbolic Z-matrix:
 Charge =  0 Multiplicity = 1
 C                    -0.59019  -0.89982   1.68676 
 C                    -0.17424  -0.01487   0.50868 
 C                     0.22122  -0.87217  -0.6982 
 Cl                    1.58086  -1.95722  -0.32461 
 C                    -1.33231   0.90583   0.10174 
 Cl                   -2.76599  -0.00896  -0.42093 
 C                     1.00561   0.85409   0.95869 
 Cl                    1.54382   1.98529  -0.30939 
 H                    -1.45172  -1.50204   1.41144 
 H                    -0.85447  -0.28964   2.54686 
 H                     0.22264  -1.5641    1.96589 
 H                     0.53985  -0.2429   -1.52952 
 H                    -0.61125  -1.50311  -1.00671 
 H                    -1.04709   1.54678  -0.73211 
 H                    -1.64318   1.51929   0.94756 
 H                     1.86165   0.22512   1.20136 
 H                     0.73326   1.45923   1.82294 
 

 GradGradGradGradGradGradGradGradGradGradGradGradGradGradGradGradGradGrad
 Initialization pass.
                           ----------------------------
                           !    Initial Parameters    !
                           ! (Angstroms and Degrees)  !
 --------------------------                            --------------------------
 ! Name  Definition              Value          Derivative Info.                !
 --------------------------------------------------------------------------------
 ! R1    R(1,2)                  1.531          estimate D2E/DX2                !
 ! R2    R(1,9)                  1.0866         estimate D2E/DX2                !
 ! R3    R(1,10)                 1.0872         estimate D2E/DX2                !
 ! R4    R(1,11)                 1.0862         estimate D2E/DX2                !
 ! R5    R(2,3)                  1.5323         estimate D2E/DX2                !
 ! R6    R(2,5)                  1.5344         estimate D2E/DX2                !
 ! R7    R(2,7)                  1.5329         estimate D2E/DX2                !
 ! R8    R(3,4)                  1.7792         estimate D2E/DX2                !
 ! R9    R(3,12)                 1.0902         estimate D2E/DX2                !
 ! R10   R(3,13)                 1.0892         estimate D2E/DX2                !
 ! R11   R(5,6)                  1.7792         estimate D2E/DX2                !
 ! R12   R(5,14)                 1.0897         estimate D2E/DX2                !
 ! R13   R(5,15)                 1.0901         estimate D2E/DX2                !
 ! R14   R(7,8)                  1.7825         estimate D2E/DX2                !
 ! R15   R(7,16)                 1.0896         estimate D2E/DX2                !
 ! R16   R(7,17)                 1.0896         estimate D2E/DX2                !
 ! A1    A(2,1,9)              109.9246         estimate D2E/DX2                !
 ! A2    A(2,1,10)             110.511          estimate D2E/DX2                !
 ! A3    A(2,1,11)             110.3598         estimate D2E/DX2                !
 ! A4    A(9,1,10)             108.5894         estimate D2E/DX2                !
 ! A5    A(9,1,11)             108.632          estimate D2E/DX2                !
 ! A6    A(10,1,11)            108.7746         estimate D2E/DX2                !
 ! A7    A(1,2,3)              110.6579         estimate D2E/DX2                !
 ! A8    A(1,2,5)              110.2339         estimate D2E/DX2                !
 ! A9    A(1,2,7)              108.1127         estimate D2E/DX2                !
 ! A10   A(3,2,5)              108.7606         estimate D2E/DX2                !
 ! A11   A(3,2,7)              110.4719         estimate D2E/DX2                !
 ! A12   A(5,2,7)              108.5797         estimate D2E/DX2                !
 ! A13   A(2,3,4)              111.9039         estimate D2E/DX2                !
 ! A14   A(2,3,12)             110.676          estimate D2E/DX2                !
 ! A15   A(2,3,13)             110.4839         estimate D2E/DX2                !
 ! A16   A(4,3,12)             106.7846         estimate D2E/DX2                !
 ! A17   A(4,3,13)             106.8749         estimate D2E/DX2                !
 ! A18   A(12,3,13)            109.9834         estimate D2E/DX2                !
 ! A19   A(2,5,6)              112.183          estimate D2E/DX2                !
 ! A20   A(2,5,14)             110.9973         estimate D2E/DX2                !
 ! A21   A(2,5,15)             110.311          estimate D2E/DX2                !
 ! A22   A(6,5,14)             106.7707         estimate D2E/DX2                !
 ! A23   A(6,5,15)             106.7074         estimate D2E/DX2                !
 ! A24   A(14,5,15)            109.7161         estimate D2E/DX2                !
 ! A25   A(2,7,8)              112.539          estimate D2E/DX2                !
 ! A26   A(2,7,16)             110.0506         estimate D2E/DX2                !
 ! A27   A(2,7,17)             110.8117         estimate D2E/DX2                !
 ! A28   A(8,7,16)             106.7107         estimate D2E/DX2                !
 ! A29   A(8,7,17)             106.696          estimate D2E/DX2                !
 ! A30   A(16,7,17)            109.8946         estimate D2E/DX2                !
 ! D1    D(9,1,2,3)            -61.0919         estimate D2E/DX2                !
 ! D2    D(9,1,2,5)             59.2589         estimate D2E/DX2                !
 ! D3    D(9,1,2,7)            177.8041         estimate D2E/DX2                !
 ! D4    D(10,1,2,3)           179.0643         estimate D2E/DX2                !
 ! D5    D(10,1,2,5)           -60.5848         estimate D2E/DX2                !
 ! D6    D(10,1,2,7)            57.9603         estimate D2E/DX2                !
 ! D7    D(11,1,2,3)            58.7092         estimate D2E/DX2                !
 ! D8    D(11,1,2,5)           179.0601         estimate D2E/DX2                !
 ! D9    D(11,1,2,7)           -62.3947         estimate D2E/DX2                !
 ! D10   D(1,2,3,4)            -59.6955         estimate D2E/DX2                !
 ! D11   D(1,2,3,12)          -178.6694         estimate D2E/DX2                !
 ! D12   D(1,2,3,13)            59.2638         estimate D2E/DX2                !
 ! D13   D(5,2,3,4)            179.0782         estimate D2E/DX2                !
 ! D14   D(5,2,3,12)            60.1043         estimate D2E/DX2                !
 ! D15   D(5,2,3,13)           -61.9625         estimate D2E/DX2                !
 ! D16   D(7,2,3,4)             60.0008         estimate D2E/DX2                !
 ! D17   D(7,2,3,12)           -58.9731         estimate D2E/DX2                !
 ! D18   D(7,2,3,13)           178.9601         estimate D2E/DX2                !
 ! D19   D(1,2,5,6)            -61.043          estimate D2E/DX2                !
 ! D20   D(1,2,5,14)           179.5989         estimate D2E/DX2                !
 ! D21   D(1,2,5,15)            57.7709         estimate D2E/DX2                !
 ! D22   D(3,2,5,6)             60.4428         estimate D2E/DX2                !
 ! D23   D(3,2,5,14)           -58.9153         estimate D2E/DX2                !
 ! D24   D(3,2,5,15)           179.2566         estimate D2E/DX2                !
 ! D25   D(7,2,5,6)           -179.3018         estimate D2E/DX2                !
 ! D26   D(7,2,5,14)            61.3401         estimate D2E/DX2                !
 ! D27   D(7,2,5,15)           -60.4879         estimate D2E/DX2                !
 ! D28   D(1,2,7,8)           -177.6111         estimate D2E/DX2                !
 ! D29   D(1,2,7,16)            63.5159         estimate D2E/DX2                !
 ! D30   D(1,2,7,17)           -58.237          estimate D2E/DX2                !
 ! D31   D(3,2,7,8)             61.1695         estimate D2E/DX2                !
 ! D32   D(3,2,7,16)           -57.7036         estimate D2E/DX2                !
 ! D33   D(3,2,7,17)          -179.4565         estimate D2E/DX2                !
 ! D34   D(5,2,7,8)            -58.0176         estimate D2E/DX2                !
 ! D35   D(5,2,7,16)          -176.8906         estimate D2E/DX2                !
 ! D36   D(5,2,7,17)            61.3565         estimate D2E/DX2                !
 --------------------------------------------------------------------------------
 Number of steps in this run=     92 maximum allowed number of steps=    102.
 GradGradGradGradGradGradGradGradGradGradGradGradGradGradGradGradGradGrad

                    Distance matrix (angstroms):
                    1          2          3          4          5
     1  C    0.000000
     2  C    1.531023   0.000000
     3  C    2.519364   1.532287   0.000000
     4  Cl   3.142798   2.747265   1.779188   0.000000
     5  C    2.514640   1.534411   2.492921   4.106749   0.000000
     6  Cl   3.157548   2.753432   3.121775   4.764466   1.779177
     7  C    2.480502   1.532858   2.518038   3.143444   2.490562
     8  Cl   4.106399   2.760729   3.172617   3.942707   3.099419
     9  H    1.086603   2.158379   2.765147   3.523862   2.743613
    10  H    1.087164   2.166189   3.467972   4.117885   2.763344
    11  H    1.086218   2.163580   2.752478   2.691786   3.463159
    12  H    3.471750   2.171682   1.090234   2.339747   2.735981
    13  H    2.760289   2.168466   1.089167   2.340264   2.748017
    14  H    3.470668   2.177193   2.731497   4.398882   1.089710
    15  H    2.739943   2.168876   3.450152   4.909063   1.090123
    16  H    2.740921   2.163853   2.739225   2.677686   3.445856
    17  H    2.708355   2.173432   3.471846   4.123405   2.745062
                    6          7          8          9         10
     6  Cl   0.000000
     7  C    4.107698   0.000000
     8  Cl   4.750155   1.782501   0.000000
     9  H    2.704472   3.434359   4.908769   0.000000
    10  H    3.541248   2.700056   4.368670   1.765163   0.000000
    11  H    4.128836   2.734071   4.418210   1.764866   1.766898
    12  H    3.494612   2.758901   2.731574   3.768429   4.308504
    13  H    2.686735   3.468926   4.159270   2.560043   3.762911
    14  H    2.339184   2.748122   2.661542   3.748842   3.763128
    15  H    2.338589   2.731055   3.457462   3.062722   2.540085
    16  H    4.909349   1.089638   2.341277   3.742414   3.074521
    17  H    4.408549   1.089626   2.341066   3.703053   2.470525
                   11         12         13         14         15
    11  H    0.000000
    12  H    3.750217   0.000000
    13  H    3.087953   1.785080   0.000000
    14  H    4.309171   2.521347   3.093087   0.000000
    15  H    3.745067   3.742570   3.744184   1.782511   0.000000
    16  H    2.544046   3.069841   3.738662   3.734414   3.744744
    17  H    3.069472   3.764792   4.311622   3.115379   2.533253
                   16         17
    16  H    0.000000
    17  H    1.783997   0.000000
 Framework group  C1[X(C5H9Cl3)]
 Deg. of freedom    45
                         Standard orientation:                         
 ---------------------------------------------------------------------
 Center     Atomic      Atomic             Coordinates (Angstroms)
 Number     Number       Type             X           Y           Z
 ---------------------------------------------------------------------
      1          6           0       -0.582123   -0.902984    1.636457
      2          6           0       -0.160654   -0.014273    0.463177
      3          6           0        0.237755   -0.867655   -0.745505
      4         17           0        1.594397   -1.956199   -0.371198
      5          6           0       -1.315862    0.909742    0.055613
      6         17           0       -2.749093   -0.000861   -0.475538
      7          6           0        1.018932    0.851171    0.920602
      8         17           0        1.563361    1.986272   -0.341321
      9          1           0       -1.443599   -1.502834    1.355836
     10          1           0       -0.848503   -0.295621    2.497896
     11          1           0        0.228695   -1.569560    1.915957
     12          1           0        0.560282   -0.235768   -1.573338
     13          1           0       -0.594594   -1.496146   -1.059318
     14          1           0       -1.026712    1.553365   -0.774814
     15          1           0       -1.628771    1.520505    0.902622
     16          1           0        1.873146    0.219965    1.163927
     17          1           0        0.744466    1.453483    1.786151
 ---------------------------------------------------------------------
 Rotational constants (GHZ):           1.2240653           0.8746227           0.6226904
   142 basis functions,   272 primitive gaussians,   150 cartesian basis functions
    45 alpha electrons       45 beta electrons
       nuclear repulsion energy       641.7174765729 Hartrees.
 NAtoms=   17 NActive=   17 NUniq=   17 SFac= 1.00D+00 NAtFMM=   60 NAOKFM=F Big=F
 Nuclear repulsion after empirical dispersion term =      641.7052813395 Hartrees.
   1 Symmetry operations used in ECPInt.
 ECPInt:  NShTT=    2628 NPrTT=   11486 LenC2=    2580 LenP2D=    8582.
 LDataN:  DoStor=T MaxTD1= 4 Len=   56
 ExpMin= 1.22D-01 ExpMax= 1.04D+04 ExpMxC= 1.57D+03 IAcc=3 IRadAn=         5 AccDes= 0.00D+00
 Harris functional with IExCor= 4639 and IRadAn=       5 diagonalized for initial guess.
 HarFok:  IExCor= 4639 AccDes= 0.00D+00 IRadAn=         5 IDoV= 1 UseB2=F ITyADJ=14
 ICtDFT=  3500011 ScaDFX=  1.000000  1.000000  1.000000  1.000000
 FoFCou: FMM=F IPFlag=           0 FMFlag=      100000 FMFlg1=           0
         NFxFlg=           0 DoJE=T BraDBF=F KetDBF=T FulRan=T
         wScrn=  0.000000 ICntrl=       500 IOpCl=  0 I1Cent=   200000004 NGrid=           0
         NMat0=    1 NMatS0=      1 NMatT0=    0 NMatD0=    1 NMtDS0=    0 NMtDT0=    0
 Petite list used in FoFCou.
     Accept linear search using points  2 and  3.
     Accept linear search using points  1 and  2.
     Accept linear search using points  1 and  2.
     Minimum is close to point  2 DX= -1.70D-04 DF= -2.05D-12 DXR=  1.70D-04 DFR=  2.93D-08 which will be used.
 SCF Done:  E(RwB97XD) =  -1575.90859851     a.u. after    7 cycles
            Convg  =    0.3604D-08                    32 Fock formations.
              S**2 =  0.0000                  -V/T =  2.0030

 **********************************************************************

            Population analysis using the SCF Density.

 **********************************************************************

 Orbital symmetries:
       Occupied  (A) (A) (A) (A) (A) (A) (A) (A) (A) (A) (A) (A)
                 (A) (A) (A) (A) (A) (A) (A) (A) (A) (A) (A) (A)
                 (A) (A) (A) (A) (A) (A) (A) (A) (A) (A) (A) (A)
                 (A) (A) (A) (A) (A) (A) (A) (A) (A)
       Virtual   (A) (A) (A) (A) (A) (A) (A) (A) (A) (A) (A) (A)
                 (A) (A) (A) (A) (A) (A) (A) (A) (A) (A) (A) (A)
                 (A) (A) (A) (A) (A) (A) (A) (A) (A) (A) (A) (A)
                 (A) (A) (A) (A) (A) (A) (A) (A) (A) (A) (A) (A)
                 (A) (A) (A) (A) (A) (A) (A) (A) (A) (A) (A) (A)
                 (A) (A) (A) (A) (A) (A) (A) (A) (A) (A) (A) (A)
                 (A) (A) (A) (A) (A) (A) (A) (A) (A) (A) (A) (A)
                 (A) (A) (A) (A) (A) (A) (A) (A) (A) (A) (A) (A)
                 (A)
 The electronic state is 1-A.
 Alpha  occ. eigenvalues -- -101.67317-101.67248-101.66802 -10.36013 -10.35953
 Alpha  occ. eigenvalues --  -10.35201 -10.34678 -10.29481  -9.58122  -9.58058
 Alpha  occ. eigenvalues --   -9.57606  -7.33492  -7.33435  -7.32979  -7.32542
 Alpha  occ. eigenvalues --   -7.32512  -7.32473  -7.32444  -7.32026  -7.31993
 Alpha  occ. eigenvalues --   -1.00396  -0.95924  -0.95249  -0.88905  -0.79337
 Alpha  occ. eigenvalues --   -0.77432  -0.76376  -0.64908  -0.59884  -0.58279
 Alpha  occ. eigenvalues --   -0.56949  -0.54975  -0.52597  -0.50430  -0.48984
 Alpha  occ. eigenvalues --   -0.48651  -0.46459  -0.45654  -0.44989  -0.40040
 Alpha  occ. eigenvalues --   -0.39028  -0.38895  -0.37794  -0.37521  -0.37140
 Alpha virt. eigenvalues --    0.10695   0.11460   0.12094   0.14417   0.16902
 Alpha virt. eigenvalues --    0.17867   0.18404   0.19457   0.20049   0.22219
 Alpha virt. eigenvalues --    0.23848   0.25003   0.26053   0.26717   0.28303
 Alpha virt. eigenvalues --    0.29079   0.46113   0.46412   0.47993   0.48763
 Alpha virt. eigenvalues --    0.49478   0.53355   0.55395   0.58649   0.62962
 Alpha virt. eigenvalues --    0.64108   0.65337   0.66775   0.67789   0.69868
 Alpha virt. eigenvalues --    0.71301   0.72189   0.73774   0.74605   0.75508
 Alpha virt. eigenvalues --    0.76026   0.76539   0.77526   0.78272   0.79659
 Alpha virt. eigenvalues --    0.80018   0.81546   0.82261   0.84296   0.85770
 Alpha virt. eigenvalues --    0.87399   0.87490   0.87900   0.89077   0.89833
 Alpha virt. eigenvalues --    0.90224   0.91087   0.91335   0.92189   0.93060
 Alpha virt. eigenvalues --    0.94937   0.95225   1.00469   1.01598   1.07845
 Alpha virt. eigenvalues --    1.12523   1.13396   1.16907   1.18229   1.20480
 Alpha virt. eigenvalues --    1.21704   1.23718   1.29096   1.29772   1.42930
 Alpha virt. eigenvalues --    1.44134   1.44437   1.51474   1.56569   1.78866
 Alpha virt. eigenvalues --    1.80531   1.82630   1.88082   1.89424   1.91172
 Alpha virt. eigenvalues --    2.09352   2.09638   2.10387   2.10669   2.11967
 Alpha virt. eigenvalues --    2.21709   2.22405   2.23481   2.25469   2.27287
 Alpha virt. eigenvalues --    2.29679   2.33467   2.60290   2.61567   2.74190
 Alpha virt. eigenvalues --    2.75602   2.76065
          Condensed to atoms (all electrons):
 Mulliken charges:
               1
     1  C   -0.256786
     2  C   -0.304403
     3  C   -0.116076
     4  Cl  -0.150781
     5  C   -0.116357
     6  Cl  -0.147591
     7  C   -0.117299
     8  Cl  -0.150251
     9  H    0.137765
    10  H    0.117421
    11  H    0.135809
    12  H    0.160754
    13  H    0.164848
    14  H    0.165241
    15  H    0.154345
    16  H    0.169982
    17  H    0.153378
 Sum of Mulliken charges =   0.00000
 Mulliken charges with hydrogens summed into heavy atoms:
               1
     1  C    0.134209
     2  C   -0.304403
     3  C    0.209526
     4  Cl  -0.150781
     5  C    0.203229
     6  Cl  -0.147591
     7  C    0.206062
     8  Cl  -0.150251
 Electronic spatial extent (au):  <R**2>=           1815.8915
 Charge=              0.0000 electrons
 Dipole moment (field-independent basis, Debye):
    X=             -0.5078    Y=              0.6867    Z=              1.4963  Tot=              1.7229
 Evaluate density.
 Using the total density.
 Monte-Carlo method of calculating molar volume:
 based on  0.001 e/bohr**3 density envelope.
 Number of points per bohr**3 =  100 CutOff= 1.00D-04
 Using the SCF density.
 There are      2212 points.  Will hold      2212 in memory.
 LenV=  1048213874 MDV=  1048576000.
 Box volume =10836.269 fraction occupied=0.127
 Integrated density= 5.9320830978568729D+01 error=-3.0679169021431271D+01
 Molar volume = 1371.680 bohr**3/mol (122.407 cm**3/mol)
 Recommended a0 for SCRF calculation =  4.51 angstrom (  8.53 bohr)
   1 Symmetry operations used in ECPInt.
 ECPInt:  NShTT=    2628 NPrTT=   11486 LenC2=    2580 LenP2D=    8582.
 LDataN:  DoStor=T MaxTD1= 5 Len=  102
 Calling FoFJK, ICntrl=      2127 FMM=F ISym2X=0 I1Cent= 0 IOpClX= 0 NMat=1 NMatS=1 NMatT=0.

 GradGradGradGradGradGradGradGradGradGradGradGradGradGradGradGradGradGrad
 FormGI is forming the generalized inverse of G from B-inverse, IUseBI=4.
 Internal  Forces:  Max     0.011437038 RMS     0.004032398
 Step number   1 out of a maximum of   92
 All quantities printed in internal units (Hartrees-Bohrs-Radians)
 Mixed Optimization -- RFO/linear search
 Second derivative matrix not updated -- first step.
 ITU=  0
     Eigenvalues ---    0.00311   0.00331   0.00339   0.00356   0.04627
     Eigenvalues ---    0.04807   0.05025   0.05430   0.05439   0.05504
     Eigenvalues ---    0.05617   0.05684   0.05737   0.05762   0.05781
     Eigenvalues ---    0.14219   0.14634   0.16000   0.16000   0.16000
     Eigenvalues ---    0.16000   0.16000   0.16000   0.16000   0.16000
     Eigenvalues ---    0.16000   0.22332   0.22347   0.22349   0.27545
     Eigenvalues ---    0.27827   0.27828   0.29020   0.29161   0.29213
     Eigenvalues ---    0.29329   0.34786   0.34798   0.34846   0.34855
     Eigenvalues ---    0.34856   0.34909   0.35142   0.35208   0.35253
 Linear search not attempted -- first point.
 Iteration  1 RMS(Cart)=  0.04433538 RMS(Int)=  0.00093497
 Iteration  2 RMS(Cart)=  0.00124089 RMS(Int)=  0.00010604
 Iteration  3 RMS(Cart)=  0.00000114 RMS(Int)=  0.00010604
 Iteration  4 RMS(Cart)=  0.00000000 RMS(Int)=  0.00010604
 Variable       Old X    -DE/DX   Delta X   Delta X   Delta X     New X
                                 (Linear)    (Quad)   (Total)
    R1        2.89321   0.00425   0.00000   0.01424   0.01424   2.90745
    R2        2.05338   0.01005   0.00000   0.02813   0.02813   2.08151
    R3        2.05444   0.01144   0.00000   0.03207   0.03207   2.08651
    R4        2.05265   0.01023   0.00000   0.02860   0.02860   2.08125
    R5        2.89560   0.00660   0.00000   0.02220   0.02220   2.91780
    R6        2.89962   0.00597   0.00000   0.02020   0.02020   2.91982
    R7        2.89668   0.00508   0.00000   0.01710   0.01710   2.91378
    R8        3.36218   0.00905   0.00000   0.03191   0.03191   3.39409
    R9        2.06024   0.00630   0.00000   0.01785   0.01785   2.07809
   R10        2.05823   0.00596   0.00000   0.01681   0.01681   2.07503
   R11        3.36216   0.00944   0.00000   0.03331   0.03331   3.39547
   R12        2.05925   0.00579   0.00000   0.01638   0.01638   2.07564
   R13        2.06003   0.00717   0.00000   0.02030   0.02030   2.08034
   R14        3.36844   0.00884   0.00000   0.03151   0.03151   3.39995
   R15        2.05912   0.00615   0.00000   0.01738   0.01738   2.07650
   R16        2.05909   0.00734   0.00000   0.02074   0.02074   2.07983
    A1        1.91855   0.00132   0.00000   0.00803   0.00800   1.92655
    A2        1.92878   0.00049   0.00000   0.00216   0.00215   1.93093
    A3        1.92614   0.00124   0.00000   0.00829   0.00826   1.93440
    A4        1.89524  -0.00112   0.00000  -0.00829  -0.00829   1.88695
    A5        1.89599  -0.00111   0.00000  -0.00512  -0.00517   1.89082
    A6        1.89847  -0.00091   0.00000  -0.00560  -0.00561   1.89287
    A7        1.93135   0.00114   0.00000   0.01516   0.01524   1.94658
    A8        1.92394   0.00074   0.00000   0.00051   0.00027   1.92421
    A9        1.88692  -0.00228   0.00000  -0.02271  -0.02283   1.86410
   A10        1.89823  -0.00101   0.00000   0.00078   0.00078   1.89901
   A11        1.92810   0.00159   0.00000   0.01505   0.01516   1.94326
   A12        1.89507  -0.00018   0.00000  -0.00920  -0.00932   1.88576
   A13        1.95309   0.00873   0.00000   0.04255   0.04241   1.99550
   A14        1.93166  -0.00081   0.00000  -0.00615  -0.00630   1.92536
   A15        1.92831  -0.00125   0.00000  -0.00724  -0.00743   1.92088
   A16        1.86374  -0.00329   0.00000  -0.00894  -0.00904   1.85470
   A17        1.86532  -0.00267   0.00000  -0.00221  -0.00237   1.86295
   A18        1.91957  -0.00088   0.00000  -0.01848  -0.01866   1.90091
   A19        1.95796   0.00916   0.00000   0.04520   0.04502   2.00298
   A20        1.93727  -0.00049   0.00000  -0.00248  -0.00279   1.93448
   A21        1.92529  -0.00179   0.00000  -0.01289  -0.01301   1.91228
   A22        1.86350  -0.00319   0.00000  -0.00329  -0.00362   1.85988
   A23        1.86239  -0.00288   0.00000  -0.00581  -0.00580   1.85659
   A24        1.91491  -0.00103   0.00000  -0.02152  -0.02175   1.89316
   A25        1.96418   0.00899   0.00000   0.04412   0.04400   2.00817
   A26        1.92075  -0.00115   0.00000  -0.00831  -0.00850   1.91225
   A27        1.93403  -0.00167   0.00000  -0.00992  -0.01013   1.92390
   A28        1.86245  -0.00306   0.00000  -0.00654  -0.00663   1.85582
   A29        1.86220  -0.00262   0.00000  -0.00138  -0.00151   1.86069
   A30        1.91802  -0.00067   0.00000  -0.01858  -0.01884   1.89918
    D1       -1.06626   0.00043   0.00000   0.01895   0.01888  -1.04738
    D2        1.03426   0.00039   0.00000   0.03007   0.03006   1.06432
    D3        3.10327  -0.00076   0.00000   0.00567   0.00571   3.10898
    D4        3.12526   0.00067   0.00000   0.02274   0.02268  -3.13524
    D5       -1.05740   0.00063   0.00000   0.03386   0.03386  -1.02354
    D6        1.01160  -0.00052   0.00000   0.00946   0.00952   1.02112
    D7        1.02467   0.00068   0.00000   0.02293   0.02289   1.04756
    D8        3.12519   0.00064   0.00000   0.03406   0.03407  -3.12393
    D9       -1.08899  -0.00051   0.00000   0.00966   0.00973  -1.07927
   D10       -1.04188   0.00036   0.00000  -0.01601  -0.01609  -1.05798
   D11       -3.11837  -0.00066   0.00000  -0.02845  -0.02850   3.13632
   D12        1.03435   0.00185   0.00000   0.00402   0.00395   1.03830
   D13        3.12550  -0.00062   0.00000  -0.02663  -0.02663   3.09887
   D14        1.04902  -0.00164   0.00000  -0.03907  -0.03904   1.00998
   D15       -1.08145   0.00087   0.00000  -0.00660  -0.00659  -1.08804
   D16        1.04721  -0.00072   0.00000  -0.02483  -0.02479   1.02242
   D17       -1.02927  -0.00175   0.00000  -0.03728  -0.03720  -1.06647
   D18        3.12344   0.00076   0.00000  -0.00480  -0.00475   3.11869
   D19       -1.06540  -0.00089   0.00000   0.00047   0.00053  -1.06487
   D20        3.13459  -0.00264   0.00000  -0.02392  -0.02398   3.11062
   D21        1.00829   0.00021   0.00000   0.01376   0.01367   1.02196
   D22        1.05493   0.00034   0.00000   0.02001   0.02009   1.07502
   D23       -1.02827  -0.00141   0.00000  -0.00439  -0.00441  -1.03268
   D24        3.12862   0.00144   0.00000   0.03330   0.03323  -3.12134
   D25       -3.12941   0.00156   0.00000   0.03324   0.03336  -3.09605
   D26        1.07059  -0.00019   0.00000   0.00884   0.00885   1.07944
   D27       -1.05571   0.00265   0.00000   0.04652   0.04649  -1.00922
   D28       -3.09990   0.00013   0.00000  -0.01854  -0.01867  -3.11856
   D29        1.10856  -0.00105   0.00000  -0.03317  -0.03324   1.07532
   D30       -1.01643   0.00167   0.00000   0.00241   0.00226  -1.01417
   D31        1.06761  -0.00079   0.00000  -0.03192  -0.03191   1.03570
   D32       -1.00712  -0.00197   0.00000  -0.04655  -0.04648  -1.05360
   D33       -3.13211   0.00075   0.00000  -0.01097  -0.01099   3.14009
   D34       -1.01260  -0.00039   0.00000  -0.03614  -0.03606  -1.04866
   D35       -3.08732  -0.00157   0.00000  -0.05077  -0.05063  -3.13795
   D36        1.07087   0.00116   0.00000  -0.01519  -0.01514   1.05574
         Item               Value     Threshold  Converged?
 Maximum Force            0.011437     0.000015     NO 
 RMS     Force            0.004032     0.000010     NO 
 Maximum Displacement     0.182347     0.000060     NO 
 RMS     Displacement     0.044904     0.000040     NO 
 GradGradGradGradGradGradGradGradGradGradGradGradGradGradGradGradGradGrad

                    Distance matrix (angstroms):
                    1          2          3          4          5
     1  C    0.000000
     2  C    1.538557   0.000000
     3  C    2.548511   1.544035   0.000000
     4  Cl   3.247104   2.809866   1.796077   0.000000
     5  C    2.529829   1.545100   2.511863   4.164230   0.000000
     6  Cl   3.236211   2.818072   3.216191   4.898495   1.796804
     7  C    2.473129   1.541908   2.548391   3.222679   2.498169
     8  Cl   4.145008   2.822159   3.247668   3.986501   3.188912
     9  H    1.101488   2.181961   2.800174   3.613971   2.784245
    10  H    1.104133   2.187137   3.510054   4.248501   2.770159
    11  H    1.101350   2.187556   2.807054   2.828736   3.495859
    12  H    3.502317   2.184566   1.099678   2.354072   2.733775
    13  H    2.791061   2.180084   1.098061   2.359592   2.766343
    14  H    3.491719   2.191156   2.752137   4.437984   1.098380
    15  H    2.753460   2.176808   3.472643   4.976411   1.100868
    16  H    2.708455   2.172467   2.788796   2.782938   3.460837
    17  H    2.689393   2.182320   3.503916   4.223531   2.737809
                    6          7          8          9         10
     6  Cl   0.000000
     7  C    4.158493   0.000000
     8  Cl   4.879147   1.799174   0.000000
     9  H    2.810165   3.449449   4.986000   0.000000
    10  H    3.582925   2.699277   4.403516   1.785677   0.000000
    11  H    4.240940   2.729398   4.441378   1.785923   1.789387
    12  H    3.547223   2.807072   2.830695   3.803974   4.347306
    13  H    2.787882   3.499659   4.252102   2.592106   3.801783
    14  H    2.358000   2.758219   2.759288   3.799001   3.775154
    15  H    2.357057   2.706389   3.501280   3.115413   2.534635
    16  H    4.977795   1.098837   2.357169   3.730975   3.048396
    17  H    4.422341   1.100601   2.362290   3.703697   2.443973
                   11         12         13         14         15
    11  H    0.000000
    12  H    3.813898   0.000000
    13  H    3.150861   1.788256   0.000000
    14  H    4.346901   2.514527   3.119482   0.000000
    15  H    3.764314   3.743114   3.775677   1.784515   0.000000
    16  H    2.499874   3.162081   3.784299   3.763995   3.720950
    17  H    3.054049   3.810703   4.337709   3.114537   2.481447
                   16         17
    16  H    0.000000
    17  H    1.788532   0.000000
 Framework group  C1[X(C5H9Cl3)]
 Deg. of freedom    45
                         Standard orientation:                         
 ---------------------------------------------------------------------
 Center     Atomic      Atomic             Coordinates (Angstroms)
 Number     Number       Type             X           Y           Z
 ---------------------------------------------------------------------
      1          6           0       -0.582456   -0.850835    1.691570
      2          6           0       -0.173758   -0.018091    0.464110
      3          6           0        0.253195   -0.918792   -0.715082
      4         17           0        1.663242   -1.975306   -0.366605
      5          6           0       -1.349262    0.875134    0.008395
      6         17           0       -2.826387   -0.019819   -0.487247
      7          6           0        0.979053    0.902032    0.913423
      8         17           0        1.608190    2.010801   -0.356162
      9          1           0       -1.429838   -1.509386    1.443522
     10          1           0       -0.890873   -0.192937    2.522930
     11          1           0        0.254775   -1.478225    2.035660
     12          1           0        0.535615   -0.304222   -1.582167
     13          1           0       -0.574549   -1.580638   -1.002376
     14          1           0       -1.057815    1.497342   -0.848549
     15          1           0       -1.650385    1.537892    0.834219
     16          1           0        1.831783    0.290775    1.240010
     17          1           0        0.654901    1.536229    1.752495
 ---------------------------------------------------------------------
 Rotational constants (GHZ):           1.1965792           0.8301957           0.5972704
   142 basis functions,   272 primitive gaussians,   150 cartesian basis functions
    45 alpha electrons       45 beta electrons
       nuclear repulsion energy       631.5273640459 Hartrees.
 NAtoms=   17 NActive=   17 NUniq=   17 SFac= 1.00D+00 NAtFMM=   60 NAOKFM=F Big=F
 Nuclear repulsion after empirical dispersion term =      631.5149961567 Hartrees.
   1 Symmetry operations used in ECPInt.
 ECPInt:  NShTT=    2628 NPrTT=   11486 LenC2=    2575 LenP2D=    8535.
 LDataN:  DoStor=T MaxTD1= 4 Len=   56
 Initial guess from the checkpoint file:  "20.chk"
 B after Tr=     0.000000    0.000000    0.000000
         Rot=    0.999949    0.009223    0.002014   -0.003675 Ang=   1.16 deg.
 ExpMin= 1.22D-01 ExpMax= 1.04D+04 ExpMxC= 1.57D+03 IAcc=3 IRadAn=         5 AccDes= 0.00D+00
 Harris functional with IExCor= 4639 and IRadAn=       5 diagonalized for initial guess.
 HarFok:  IExCor= 4639 AccDes= 0.00D+00 IRadAn=         5 IDoV= 1 UseB2=F ITyADJ=14
 ICtDFT=  3500011 ScaDFX=  1.000000  1.000000  1.000000  1.000000
 FoFCou: FMM=F IPFlag=           0 FMFlag=      100000 FMFlg1=           0
         NFxFlg=           0 DoJE=T BraDBF=F KetDBF=T FulRan=T
         wScrn=  0.000000 ICntrl=       500 IOpCl=  0 I1Cent=   200000004 NGrid=           0
         NMat0=    1 NMatS0=      1 NMatT0=    0 NMatD0=    1 NMtDS0=    0 NMtDT0=    0
 Petite list used in FoFCou.
     Minimum is close to point  4 DX=  3.79D-02 DF= -2.78D-06 DXR=  3.06D-02 DFR=  9.36D-04 which will be used.
     Accept linear search using points  2 and  3.
     Minimum is close to point  2 DX=  7.38D-02 DF= -1.01D-06 DXR=  6.29D-02 DFR=  3.97D-03 which will be used.
     Accept linear search using points  1 and  2.
     Minimum is close to point  2 DX= -4.60D-02 DF= -2.64D-07 DXR=  4.82D-02 DFR=  2.33D-03 which will be used.
     Minimum is close to point  2 DX=  5.30D-04 DF= -3.27D-11 DXR=  5.30D-04 DFR=  2.79D-07 which will be used.
 SCF Done:  E(RwB97XD) =  -1575.91054384     a.u. after    7 cycles
            Convg  =    0.5322D-08                    32 Fock formations.
              S**2 =  0.0000                  -V/T =  2.0033
   1 Symmetry operations used in ECPInt.
 ECPInt:  NShTT=    2628 NPrTT=   11486 LenC2=    2575 LenP2D=    8535.
 LDataN:  DoStor=T MaxTD1= 5 Len=  102
 Calling FoFJK, ICntrl=      2127 FMM=F ISym2X=0 I1Cent= 0 IOpClX= 0 NMat=1 NMatS=1 NMatT=0.

 GradGradGradGradGradGradGradGradGradGradGradGradGradGradGradGradGradGrad
 Using GEDIIS/GDIIS optimizer.
 FormGI is forming the generalized inverse of G from B-inverse, IUseBI=4.
 Internal  Forces:  Max     0.005642801 RMS     0.001271057
 Step number   2 out of a maximum of   92
 All quantities printed in internal units (Hartrees-Bohrs-Radians)
 Mixed Optimization -- RFO/linear search
 Trust test= 7.11D-01 RLast= 2.07D-01 DXMaxT set to 5.05D-01
 ITU=  1  0
 Use linear search instead of GDIIS.
     Eigenvalues ---    0.00312   0.00334   0.00344   0.00358   0.04503
     Eigenvalues ---    0.04722   0.05130   0.05139   0.05218   0.05333
     Eigenvalues ---    0.05557   0.05615   0.05825   0.05853   0.06041
     Eigenvalues ---    0.13997   0.14725   0.15956   0.16000   0.16000
     Eigenvalues ---    0.16000   0.16000   0.16000   0.16000   0.16000
     Eigenvalues ---    0.16019   0.22280   0.22306   0.24394   0.26755
     Eigenvalues ---    0.27644   0.27828   0.29067   0.29170   0.29303
     Eigenvalues ---    0.31907   0.34734   0.34791   0.34826   0.34853
     Eigenvalues ---    0.34890   0.34975   0.35152   0.35233   0.36308
 Quartic linear search produced a step of -0.19543.
 Iteration  1 RMS(Cart)=  0.02061395 RMS(Int)=  0.00023622
 Iteration  2 RMS(Cart)=  0.00024615 RMS(Int)=  0.00001738
 Iteration  3 RMS(Cart)=  0.00000004 RMS(Int)=  0.00001738
 Variable       Old X    -DE/DX   Delta X   Delta X   Delta X     New X
                                 (Linear)    (Quad)   (Total)
    R1        2.90745  -0.00186  -0.00278  -0.00161  -0.00439   2.90306
    R2        2.08151   0.00035  -0.00550   0.00772   0.00223   2.08374
    R3        2.08651  -0.00013  -0.00627   0.00761   0.00134   2.08785
    R4        2.08125   0.00043  -0.00559   0.00803   0.00245   2.08370
    R5        2.91780  -0.00564  -0.00434  -0.01008  -0.01442   2.90339
    R6        2.91982  -0.00410  -0.00395  -0.00638  -0.01033   2.90948
    R7        2.91378  -0.00329  -0.00334  -0.00486  -0.00821   2.90558
    R8        3.39409  -0.00105  -0.00624   0.00481  -0.00143   3.39267
    R9        2.07809   0.00011  -0.00349   0.00465   0.00116   2.07925
   R10        2.07503   0.00046  -0.00328   0.00521   0.00193   2.07696
   R11        3.39547  -0.00093  -0.00651   0.00550  -0.00101   3.39445
   R12        2.07564   0.00054  -0.00320   0.00527   0.00207   2.07771
   R13        2.08034  -0.00007  -0.00397   0.00483   0.00087   2.08120
   R14        3.39995  -0.00102  -0.00616   0.00475  -0.00141   3.39854
   R15        2.07650   0.00028  -0.00340   0.00494   0.00154   2.07804
   R16        2.07983  -0.00009  -0.00405   0.00491   0.00086   2.08069
    A1        1.92655  -0.00004  -0.00156   0.00115  -0.00041   1.92614
    A2        1.93093   0.00026  -0.00042   0.00219   0.00177   1.93270
    A3        1.93440  -0.00004  -0.00161   0.00202   0.00041   1.93481
    A4        1.88695  -0.00018   0.00162  -0.00339  -0.00177   1.88518
    A5        1.89082  -0.00005   0.00101  -0.00218  -0.00116   1.88966
    A6        1.89287   0.00004   0.00110  -0.00003   0.00107   1.89394
    A7        1.94658  -0.00061  -0.00298  -0.00105  -0.00403   1.94255
    A8        1.92421   0.00080  -0.00005   0.00773   0.00771   1.93192
    A9        1.86410   0.00040   0.00446   0.00105   0.00552   1.86962
   A10        1.89901  -0.00039  -0.00015  -0.00625  -0.00640   1.89262
   A11        1.94326   0.00018  -0.00296   0.00166  -0.00132   1.94194
   A12        1.88576  -0.00034   0.00182  -0.00290  -0.00110   1.88466
   A13        1.99550  -0.00433  -0.00829  -0.00644  -0.01472   1.98079
   A14        1.92536   0.00072   0.00123   0.00253   0.00379   1.92915
   A15        1.92088   0.00047   0.00145  -0.00045   0.00101   1.92189
   A16        1.85470   0.00170   0.00177   0.00326   0.00506   1.85976
   A17        1.86295   0.00153   0.00046   0.00142   0.00189   1.86484
   A18        1.90091   0.00009   0.00365  -0.00007   0.00360   1.90451
   A19        2.00298  -0.00360  -0.00880  -0.00301  -0.01177   1.99121
   A20        1.93448   0.00054   0.00054   0.00147   0.00207   1.93655
   A21        1.91228   0.00072   0.00254   0.00059   0.00315   1.91543
   A22        1.85988   0.00130   0.00071   0.00138   0.00214   1.86202
   A23        1.85659   0.00126   0.00113   0.00181   0.00294   1.85954
   A24        1.89316  -0.00007   0.00425  -0.00228   0.00201   1.89516
   A25        2.00817  -0.00352  -0.00860  -0.00333  -0.01191   1.99627
   A26        1.91225   0.00061   0.00166   0.00143   0.00311   1.91536
   A27        1.92390   0.00091   0.00198   0.00170   0.00371   1.92761
   A28        1.85582   0.00123   0.00130   0.00109   0.00240   1.85822
   A29        1.86069   0.00094   0.00029  -0.00051  -0.00019   1.86049
   A30        1.89918  -0.00004   0.00368  -0.00037   0.00335   1.90252
    D1       -1.04738   0.00019  -0.00369   0.00467   0.00099  -1.04639
    D2        1.06432  -0.00017  -0.00587   0.00133  -0.00456   1.05976
    D3        3.10898   0.00007  -0.00112   0.00257   0.00146   3.11044
    D4       -3.13524   0.00027  -0.00443   0.00675   0.00233  -3.13291
    D5       -1.02354  -0.00009  -0.00662   0.00341  -0.00322  -1.02676
    D6        1.02112   0.00016  -0.00186   0.00465   0.00280   1.02391
    D7        1.04756   0.00008  -0.00447   0.00400  -0.00046   1.04710
    D8       -3.12393  -0.00028  -0.00666   0.00066  -0.00601  -3.12994
    D9       -1.07927  -0.00004  -0.00190   0.00190   0.00000  -1.07926
   D10       -1.05798   0.00028   0.00314   0.02650   0.02966  -1.02832
   D11        3.13632   0.00051   0.00557   0.02484   0.03043  -3.11644
   D12        1.03830  -0.00036  -0.00077   0.02360   0.02286   1.06115
   D13        3.09887  -0.00006   0.00520   0.02171   0.02690   3.12577
   D14        1.00998   0.00017   0.00763   0.02005   0.02767   1.03765
   D15       -1.08804  -0.00071   0.00129   0.01881   0.02010  -1.06795
   D16        1.02242   0.00050   0.00485   0.02824   0.03307   1.05549
   D17       -1.06647   0.00073   0.00727   0.02658   0.03384  -1.03263
   D18        3.11869  -0.00014   0.00093   0.02534   0.02626  -3.13823
   D19       -1.06487   0.00030  -0.00010  -0.00959  -0.00969  -1.07456
   D20        3.11062   0.00075   0.00469  -0.01036  -0.00566   3.10496
   D21        1.02196   0.00004  -0.00267  -0.00884  -0.01149   1.01047
   D22        1.07502  -0.00020  -0.00393  -0.01005  -0.01400   1.06102
   D23       -1.03268   0.00025   0.00086  -0.01082  -0.00996  -1.04264
   D24       -3.12134  -0.00046  -0.00649  -0.00930  -0.01579  -3.13713
   D25       -3.09605  -0.00041  -0.00652  -0.01341  -0.01994  -3.11599
   D26        1.07944   0.00004  -0.00173  -0.01418  -0.01591   1.06353
   D27       -1.00922  -0.00068  -0.00909  -0.01266  -0.02174  -1.03096
   D28       -3.11856  -0.00035   0.00365   0.00765   0.01132  -3.10724
   D29        1.07532  -0.00001   0.00650   0.00744   0.01395   1.08928
   D30       -1.01417  -0.00090  -0.00044   0.00594   0.00553  -1.00865
   D31        1.03570   0.00004   0.00624   0.00727   0.01350   1.04920
   D32       -1.05360   0.00038   0.00908   0.00705   0.01613  -1.03747
   D33        3.14009  -0.00052   0.00215   0.00555   0.00770  -3.13539
   D34       -1.04866   0.00063   0.00705   0.01577   0.02280  -1.02586
   D35       -3.13795   0.00096   0.00989   0.01556   0.02543  -3.11252
   D36        1.05574   0.00007   0.00296   0.01406   0.01700   1.07274
         Item               Value     Threshold  Converged?
 Maximum Force            0.005643     0.000015     NO 
 RMS     Force            0.001271     0.000010     NO 
 Maximum Displacement     0.075643     0.000060     NO 
 RMS     Displacement     0.020643     0.000040     NO 
 GradGradGradGradGradGradGradGradGradGradGradGradGradGradGradGradGradGrad

                    Distance matrix (angstroms):
                    1          2          3          4          5
     1  C    0.000000
     2  C    1.536233   0.000000
     3  C    2.536791   1.536406   0.000000
     4  Cl   3.197313   2.789746   1.795322   0.000000
     5  C    2.530195   1.539633   2.495476   4.141948   0.000000
     6  Cl   3.230738   2.802592   3.176682   4.843859   1.796267
     7  C    2.472827   1.537566   2.537357   3.214513   2.489240
     8  Cl   4.136475   2.807337   3.231902   4.012907   3.151519
     9  H    1.102666   2.180498   2.788584   3.559408   2.785205
    10  H    1.104844   2.186908   3.500367   4.202975   2.776585
    11  H    1.102645   2.186782   2.796478   2.769151   3.495570
    12  H    3.494443   2.181054   1.100291   2.357883   2.733113
    13  H    2.790232   2.174868   1.099080   2.361125   2.740835
    14  H    3.492517   2.188647   2.742441   4.432354   1.099476
    15  H    2.753371   2.174660   3.459673   4.955401   1.101326
    16  H    2.719345   2.171540   2.774305   2.767181   3.454133
    17  H    2.691292   2.181536   3.495154   4.206416   2.741059
                    6          7          8          9         10
     6  Cl   0.000000
     7  C    4.143818   0.000000
     8  Cl   4.832263   1.798430   0.000000
     9  H    2.803286   3.448679   4.972268   0.000000
    10  H    3.591325   2.704148   4.399914   1.786058   0.000000
    11  H    4.230963   2.731859   4.442928   1.787179   1.791704
    12  H    3.531808   2.784153   2.796909   3.802296   4.342709
    13  H    2.728591   3.490961   4.225078   2.589491   3.799032
    14  H    2.359985   2.744167   2.707592   3.802456   3.780567
    15  H    2.359257   2.711068   3.480602   3.110733   2.540698
    16  H    4.962919   1.099652   2.358991   3.740330   3.066857
    17  H    4.426872   1.101054   2.361778   3.707169   2.451163
                   11         12         13         14         15
    11  H    0.000000
    12  H    3.798489   0.000000
    13  H    3.156918   1.791882   0.000000
    14  H    4.345990   2.518838   3.098184   0.000000
    15  H    3.767500   3.745277   3.750981   1.787066   0.000000
    16  H    2.513971   3.121776   3.780356   3.747195   3.730904
    17  H    3.055897   3.795668   4.331805   3.111651   2.498548
                   16         17
    16  H    0.000000
    17  H    1.791703   0.000000
 Framework group  C1[X(C5H9Cl3)]
 Deg. of freedom    45
                         Standard orientation:                         
 ---------------------------------------------------------------------
 Center     Atomic      Atomic             Coordinates (Angstroms)
 Number     Number       Type             X           Y           Z
 ---------------------------------------------------------------------
      1          6           0       -0.557558   -0.872795    1.680622
      2          6           0       -0.160300   -0.017563    0.467867
      3          6           0        0.242075   -0.895953   -0.726733
      4         17           0        1.618604   -1.993878   -0.376147
      5          6           0       -1.327736    0.888093    0.035026
      6         17           0       -2.797604   -0.006613   -0.480302
      7          6           0        1.001819    0.885837    0.912228
      8         17           0        1.587901    2.018859   -0.355495
      9          1           0       -1.412688   -1.521799    1.428789
     10          1           0       -0.853489   -0.232325    2.530859
     11          1           0        0.280618   -1.513944    2.000333
     12          1           0        0.548458   -0.271324   -1.579147
     13          1           0       -0.602214   -1.530640   -1.030585
     14          1           0       -1.036055    1.529030   -0.809348
     15          1           0       -1.630967    1.531594    0.875786
     16          1           0        1.864117    0.267153    1.200164
     17          1           0        0.701106    1.504271    1.772130
 ---------------------------------------------------------------------
 Rotational constants (GHZ):           1.1875737           0.8496975           0.6044853
   142 basis functions,   272 primitive gaussians,   150 cartesian basis functions
    45 alpha electrons       45 beta electrons
       nuclear repulsion energy       633.9868016060 Hartrees.
 NAtoms=   17 NActive=   17 NUniq=   17 SFac= 1.00D+00 NAtFMM=   60 NAOKFM=F Big=F
 Nuclear repulsion after empirical dispersion term =      633.9744851862 Hartrees.
   1 Symmetry operations used in ECPInt.
 ECPInt:  NShTT=    2628 NPrTT=   11486 LenC2=    2576 LenP2D=    8557.
 LDataN:  DoStor=T MaxTD1= 4 Len=   56
 Initial guess from the checkpoint file:  "20.chk"
 B after Tr=    -0.000000    0.000000    0.000000
         Rot=    0.999985   -0.003787   -0.002996    0.002553 Ang=  -0.63 deg.
 ExpMin= 1.22D-01 ExpMax= 1.04D+04 ExpMxC= 1.57D+03 IAcc=3 IRadAn=         5 AccDes= 0.00D+00
 Harris functional with IExCor= 4639 and IRadAn=       5 diagonalized for initial guess.
 HarFok:  IExCor= 4639 AccDes= 0.00D+00 IRadAn=         5 IDoV= 1 UseB2=F ITyADJ=14
 ICtDFT=  3500011 ScaDFX=  1.000000  1.000000  1.000000  1.000000
 FoFCou: FMM=F IPFlag=           0 FMFlag=      100000 FMFlg1=           0
         NFxFlg=           0 DoJE=T BraDBF=F KetDBF=T FulRan=T
         wScrn=  0.000000 ICntrl=       500 IOpCl=  0 I1Cent=   200000004 NGrid=           0
         NMat0=    1 NMatS0=      1 NMatT0=    0 NMatD0=    1 NMtDS0=    0 NMtDT0=    0
 Petite list used in FoFCou.
     Accept linear search using points  1 and  2.
     Minimum is close to point  2 DX= -1.13D-04 DF= -1.36D-12 DXR=  1.13D-04 DFR=  1.24D-08 which will be used.
 SCF Done:  E(RwB97XD) =  -1575.91074149     a.u. after    5 cycles
            Convg  =    0.3426D-08                    29 Fock formations.
              S**2 =  0.0000                  -V/T =  2.0032
   1 Symmetry operations used in ECPInt.
 ECPInt:  NShTT=    2628 NPrTT=   11486 LenC2=    2576 LenP2D=    8557.
 LDataN:  DoStor=T MaxTD1= 5 Len=  102
 Calling FoFJK, ICntrl=      2127 FMM=F ISym2X=0 I1Cent= 0 IOpClX= 0 NMat=1 NMatS=1 NMatT=0.

 GradGradGradGradGradGradGradGradGradGradGradGradGradGradGradGradGradGrad
 Using GEDIIS/GDIIS optimizer.
 FormGI is forming the generalized inverse of G from B-inverse, IUseBI=4.
 Internal  Forces:  Max     0.000736926 RMS     0.000245831
 Step number   3 out of a maximum of   92
 All quantities printed in internal units (Hartrees-Bohrs-Radians)
 Mixed Optimization -- En-DIIS/RFO-DIIS
 Trust test= 9.12D-01 RLast= 1.13D-01 DXMaxT set to 5.05D-01
 ITU=  1  1  0
 Use linear search instead of GDIIS.
     Eigenvalues ---    0.00315   0.00334   0.00354   0.00404   0.04521
     Eigenvalues ---    0.04799   0.05174   0.05207   0.05270   0.05492
     Eigenvalues ---    0.05550   0.05614   0.05811   0.05826   0.05918
     Eigenvalues ---    0.14568   0.14728   0.15796   0.15997   0.16000
     Eigenvalues ---    0.16000   0.16000   0.16000   0.16000   0.16007
     Eigenvalues ---    0.16046   0.22143   0.22314   0.24254   0.26654
     Eigenvalues ---    0.27654   0.27831   0.29063   0.29154   0.29278
     Eigenvalues ---    0.32687   0.34257   0.34791   0.34826   0.34857
     Eigenvalues ---    0.34888   0.34967   0.35045   0.35175   0.35569
 Quartic linear search produced a step of -0.14158.
 Iteration  1 RMS(Cart)=  0.02055716 RMS(Int)=  0.00020995
 Iteration  2 RMS(Cart)=  0.00021654 RMS(Int)=  0.00000183
 Iteration  3 RMS(Cart)=  0.00000002 RMS(Int)=  0.00000183
 Variable       Old X    -DE/DX   Delta X   Delta X   Delta X     New X
                                 (Linear)    (Quad)   (Total)
    R1        2.90306  -0.00057   0.00062  -0.00311  -0.00249   2.90057
    R2        2.08374  -0.00037  -0.00032  -0.00034  -0.00065   2.08308
    R3        2.08785  -0.00051  -0.00019  -0.00099  -0.00118   2.08667
    R4        2.08370  -0.00074  -0.00035  -0.00112  -0.00147   2.08223
    R5        2.90339  -0.00002   0.00204  -0.00488  -0.00284   2.90055
    R6        2.90948  -0.00010   0.00146  -0.00378  -0.00232   2.90717
    R7        2.90558   0.00008   0.00116  -0.00254  -0.00138   2.90420
    R8        3.39267   0.00016   0.00020  -0.00019   0.00001   3.39268
    R9        2.07925  -0.00032  -0.00016  -0.00051  -0.00067   2.07857
   R10        2.07696  -0.00038  -0.00027  -0.00038  -0.00066   2.07630
   R11        3.39445  -0.00007   0.00014  -0.00077  -0.00063   3.39382
   R12        2.07771  -0.00049  -0.00029  -0.00060  -0.00089   2.07682
   R13        2.08120  -0.00029  -0.00012  -0.00054  -0.00066   2.08054
   R14        3.39854   0.00011   0.00020  -0.00034  -0.00014   3.39840
   R15        2.07804  -0.00025  -0.00022  -0.00021  -0.00043   2.07762
   R16        2.08069  -0.00040  -0.00012  -0.00082  -0.00094   2.07975
    A1        1.92614   0.00005   0.00006  -0.00006  -0.00000   1.92614
    A2        1.93270   0.00004  -0.00025   0.00075   0.00050   1.93320
    A3        1.93481   0.00005  -0.00006   0.00048   0.00042   1.93523
    A4        1.88518  -0.00008   0.00025  -0.00127  -0.00102   1.88416
    A5        1.88966  -0.00004   0.00016  -0.00051  -0.00035   1.88931
    A6        1.89394  -0.00001  -0.00015   0.00056   0.00040   1.89434
    A7        1.94255   0.00035   0.00057   0.00038   0.00095   1.94350
    A8        1.93192  -0.00054  -0.00109  -0.00154  -0.00263   1.92929
    A9        1.86962  -0.00003  -0.00078   0.00062  -0.00016   1.86946
   A10        1.89262   0.00018   0.00091   0.00009   0.00100   1.89361
   A11        1.94194  -0.00036   0.00019  -0.00174  -0.00155   1.94038
   A12        1.88466   0.00039   0.00016   0.00222   0.00238   1.88704
   A13        1.98079   0.00005   0.00208  -0.00493  -0.00285   1.97794
   A14        1.92915   0.00012  -0.00054   0.00112   0.00058   1.92973
   A15        1.92189   0.00016  -0.00014   0.00206   0.00192   1.92381
   A16        1.85976  -0.00030  -0.00072  -0.00139  -0.00211   1.85764
   A17        1.86484   0.00006  -0.00027   0.00233   0.00207   1.86690
   A18        1.90451  -0.00011  -0.00051   0.00090   0.00039   1.90490
   A19        1.99121  -0.00036   0.00167  -0.00568  -0.00401   1.98719
   A20        1.93655   0.00017  -0.00029   0.00207   0.00177   1.93832
   A21        1.91543   0.00039  -0.00045   0.00273   0.00228   1.91771
   A22        1.86202   0.00013  -0.00030   0.00155   0.00125   1.86327
   A23        1.85954  -0.00019  -0.00042  -0.00129  -0.00171   1.85783
   A24        1.89516  -0.00016  -0.00028   0.00069   0.00040   1.89556
   A25        1.99627   0.00027   0.00169  -0.00316  -0.00148   1.99479
   A26        1.91536  -0.00003  -0.00044   0.00044   0.00000   1.91536
   A27        1.92761   0.00018  -0.00053   0.00279   0.00227   1.92988
   A28        1.85822  -0.00024  -0.00034  -0.00126  -0.00160   1.85662
   A29        1.86049  -0.00013   0.00003   0.00035   0.00038   1.86088
   A30        1.90252  -0.00007  -0.00047   0.00083   0.00036   1.90289
    D1       -1.04639  -0.00006  -0.00014   0.01771   0.01757  -1.02882
    D2        1.05976   0.00004   0.00065   0.01704   0.01769   1.07745
    D3        3.11044   0.00019  -0.00021   0.01922   0.01902   3.12945
    D4       -3.13291  -0.00001  -0.00033   0.01886   0.01853  -3.11439
    D5       -1.02676   0.00009   0.00046   0.01818   0.01864  -1.00812
    D6        1.02391   0.00024  -0.00040   0.02037   0.01997   1.04388
    D7        1.04710  -0.00005   0.00007   0.01734   0.01741   1.06450
    D8       -3.12994   0.00005   0.00085   0.01667   0.01752  -3.11242
    D9       -1.07926   0.00020  -0.00000   0.01885   0.01885  -1.06041
   D10       -1.02832  -0.00038  -0.00420  -0.02145  -0.02565  -1.05396
   D11       -3.11644  -0.00012  -0.00431  -0.01711  -0.02143  -3.13786
   D12        1.06115  -0.00016  -0.00324  -0.02031  -0.02355   1.03760
   D13        3.12577  -0.00005  -0.00381  -0.01983  -0.02363   3.10214
   D14        1.03765   0.00021  -0.00392  -0.01549  -0.01941   1.01824
   D15       -1.06795   0.00017  -0.00285  -0.01869  -0.02154  -1.08949
   D16        1.05549  -0.00042  -0.00468  -0.02157  -0.02625   1.02923
   D17       -1.03263  -0.00016  -0.00479  -0.01724  -0.02203  -1.05467
   D18       -3.13823  -0.00020  -0.00372  -0.02044  -0.02416   3.12080
   D19       -1.07456   0.00009   0.00137   0.02797   0.02934  -1.04522
   D20        3.10496   0.00005   0.00080   0.02843   0.02923   3.13419
   D21        1.01047  -0.00011   0.00163   0.02449   0.02611   1.03658
   D22        1.06102   0.00031   0.00198   0.02753   0.02951   1.09053
   D23       -1.04264   0.00027   0.00141   0.02799   0.02940  -1.01324
   D24       -3.13713   0.00011   0.00224   0.02405   0.02628  -3.11085
   D25       -3.11599   0.00020   0.00282   0.02678   0.02960  -3.08639
   D26        1.06353   0.00016   0.00225   0.02724   0.02949   1.09302
   D27       -1.03096   0.00000   0.00308   0.02330   0.02637  -1.00459
   D28       -3.10724   0.00001  -0.00160  -0.02095  -0.02256  -3.12980
   D29        1.08928   0.00017  -0.00198  -0.01754  -0.01952   1.06976
   D30       -1.00865   0.00017  -0.00078  -0.02062  -0.02141  -1.03005
   D31        1.04920  -0.00018  -0.00191  -0.02077  -0.02269   1.02651
   D32       -1.03747  -0.00003  -0.00228  -0.01736  -0.01965  -1.05711
   D33       -3.13539  -0.00003  -0.00109  -0.02044  -0.02153   3.12626
   D34       -1.02586  -0.00043  -0.00323  -0.02125  -0.02448  -1.05033
   D35       -3.11252  -0.00028  -0.00360  -0.01784  -0.02144  -3.13396
   D36        1.07274  -0.00028  -0.00241  -0.02092  -0.02333   1.04941
         Item               Value     Threshold  Converged?
 Maximum Force            0.000737     0.000015     NO 
 RMS     Force            0.000246     0.000010     NO 
 Maximum Displacement     0.083928     0.000060     NO 
 RMS     Displacement     0.020577     0.000040     NO 
 GradGradGradGradGradGradGradGradGradGradGradGradGradGradGradGradGradGrad

                    Distance matrix (angstroms):
                    1          2          3          4          5
     1  C    0.000000
     2  C    1.534917   0.000000
     3  C    2.535289   1.534904   0.000000
     4  Cl   3.209202   2.785954   1.795328   0.000000
     5  C    2.525801   1.538405   2.494157   4.138471   0.000000
     6  Cl   3.202120   2.797688   3.190518   4.862311   1.795934
     7  C    2.471035   1.536837   2.534167   3.190819   2.489807
     8  Cl   4.134149   2.805355   3.212636   3.950100   3.167283
     9  H    1.102320   2.179078   2.779329   3.567668   2.788542
    10  H    1.104220   2.185639   3.498172   4.216251   2.763402
    11  H    1.101867   2.185339   2.803403   2.792783   3.491177
    12  H    3.492841   2.179885   1.099934   2.355946   2.723369
    13  H    2.779815   2.174681   1.098733   2.362542   2.751772
    14  H    3.489411   2.188486   2.729163   4.414588   1.099003
    15  H    2.762477   2.174992   3.458627   4.951395   1.100977
    16  H    2.708018   2.170734   2.780013   2.749047   3.454076
    17  H    2.701702   2.182169   3.492845   4.193814   2.732853
                    6          7          8          9         10
     6  Cl   0.000000
     7  C    4.140609   0.000000
     8  Cl   4.856083   1.798358   0.000000
     9  H    2.778160   3.446873   4.969785   0.000000
    10  H    3.538291   2.712170   4.412473   1.784612   0.000000
    11  H    4.211494   2.720945   4.427040   1.786044   1.790827
    12  H    3.542047   2.791108   2.785561   3.789914   4.340448
    13  H    2.758524   3.488747   4.217410   2.569690   3.786473
    14  H    2.360367   2.760758   2.744374   3.797272   3.777419
    15  H    2.357346   2.701544   3.485071   3.138109   2.541248
    16  H    4.957447   1.099427   2.357488   3.726437   3.065354
    17  H    4.409914   1.100557   2.361680   3.719800   2.473588
                   11         12         13         14         15
    11  H    0.000000
    12  H    3.808332   0.000000
    13  H    3.152625   1.791560   0.000000
    14  H    4.343708   2.495331   3.093990   0.000000
    15  H    3.768811   3.731429   3.765908   1.786655   0.000000
    16  H    2.491758   3.147979   3.778019   3.765294   3.719113
    17  H    3.057154   3.794993   4.331541   3.119479   2.479021
                   16         17
    16  H    0.000000
    17  H    1.791345   0.000000
 Framework group  C1[X(C5H9Cl3)]
 Deg. of freedom    45
                         Standard orientation:                         
 ---------------------------------------------------------------------
 Center     Atomic      Atomic             Coordinates (Angstroms)
 Number     Number       Type             X           Y           Z
 ---------------------------------------------------------------------
      1          6           0       -0.596314   -0.869869    1.663400
      2          6           0       -0.174846   -0.016304    0.459339
      3          6           0        0.242339   -0.893591   -0.729044
      4         17           0        1.634522   -1.967416   -0.365822
      5          6           0       -1.331442    0.893963    0.011687
      6         17           0       -2.810042    0.001051   -0.480074
      7          6           0        0.985443    0.878339    0.923246
      8         17           0        1.621314    1.982611   -0.345747
      9          1           0       -1.438783   -1.526782    1.391702
     10          1           0       -0.920712   -0.229773    2.502652
     11          1           0        0.237605   -1.502602    2.007405
     12          1           0        0.545168   -0.269389   -1.582579
     13          1           0       -0.591107   -1.541294   -1.034105
     14          1           0       -1.036238    1.514714   -0.845827
     15          1           0       -1.628247    1.556523    0.839377
     16          1           0        1.831624    0.253256    1.242601
     17          1           0        0.671115    1.513931    1.764939
 ---------------------------------------------------------------------
 Rotational constants (GHZ):           1.2160444           0.8395949           0.6048575
   142 basis functions,   272 primitive gaussians,   150 cartesian basis functions
    45 alpha electrons       45 beta electrons
       nuclear repulsion energy       634.7009961203 Hartrees.
 NAtoms=   17 NActive=   17 NUniq=   17 SFac= 1.00D+00 NAtFMM=   60 NAOKFM=F Big=F
 Nuclear repulsion after empirical dispersion term =      634.6886670759 Hartrees.
   1 Symmetry operations used in ECPInt.
 ECPInt:  NShTT=    2628 NPrTT=   11486 LenC2=    2577 LenP2D=    8557.
 LDataN:  DoStor=T MaxTD1= 4 Len=   56
 Initial guess from the checkpoint file:  "20.chk"
 B after Tr=     0.000000   -0.000000   -0.000000
         Rot=    0.999992    0.000143    0.003583    0.001788 Ang=   0.46 deg.
 ExpMin= 1.22D-01 ExpMax= 1.04D+04 ExpMxC= 1.57D+03 IAcc=3 IRadAn=         5 AccDes= 0.00D+00
 Harris functional with IExCor= 4639 and IRadAn=       5 diagonalized for initial guess.
 HarFok:  IExCor= 4639 AccDes= 0.00D+00 IRadAn=         5 IDoV= 1 UseB2=F ITyADJ=14
 ICtDFT=  3500011 ScaDFX=  1.000000  1.000000  1.000000  1.000000
 FoFCou: FMM=F IPFlag=           0 FMFlag=      100000 FMFlg1=           0
         NFxFlg=           0 DoJE=T BraDBF=F KetDBF=T FulRan=T
         wScrn=  0.000000 ICntrl=       500 IOpCl=  0 I1Cent=   200000004 NGrid=           0
         NMat0=    1 NMatS0=      1 NMatT0=    0 NMatD0=    1 NMtDS0=    0 NMtDT0=    0
 Petite list used in FoFCou.
     Accept linear search using points  1 and  2.
     Minimum is close to point  2 DX= -1.62D-04 DF= -2.50D-12 DXR=  1.62D-04 DFR=  2.61D-08 which will be used.
 SCF Done:  E(RwB97XD) =  -1575.91075702     a.u. after    5 cycles
            Convg  =    0.3098D-08                    28 Fock formations.
              S**2 =  0.0000                  -V/T =  2.0032
   1 Symmetry operations used in ECPInt.
 ECPInt:  NShTT=    2628 NPrTT=   11486 LenC2=    2577 LenP2D=    8557.
 LDataN:  DoStor=T MaxTD1= 5 Len=  102
 Calling FoFJK, ICntrl=      2127 FMM=F ISym2X=0 I1Cent= 0 IOpClX= 0 NMat=1 NMatS=1 NMatT=0.

 GradGradGradGradGradGradGradGradGradGradGradGradGradGradGradGradGradGrad
 Using GEDIIS/GDIIS optimizer.
 FormGI is forming the generalized inverse of G from B-inverse, IUseBI=4.
 Internal  Forces:  Max     0.000885159 RMS     0.000247447
 Step number   4 out of a maximum of   92
 All quantities printed in internal units (Hartrees-Bohrs-Radians)
 Mixed Optimization -- En-DIIS/RFO-DIIS
 Swapping is turned off.
 Trust test= 2.70D-01 RLast= 1.40D-01 DXMaxT set to 5.05D-01
 ITU=  0  1  1  0
     Eigenvalues ---    0.00309   0.00328   0.00345   0.00629   0.04528
     Eigenvalues ---    0.04816   0.05220   0.05267   0.05354   0.05542
     Eigenvalues ---    0.05607   0.05656   0.05810   0.05849   0.05937
     Eigenvalues ---    0.14618   0.15176   0.15800   0.15994   0.16000
     Eigenvalues ---    0.16000   0.16000   0.16000   0.16003   0.16027
     Eigenvalues ---    0.16366   0.22249   0.22892   0.23897   0.26101
     Eigenvalues ---    0.27642   0.27842   0.29072   0.29162   0.29402
     Eigenvalues ---    0.32361   0.34745   0.34805   0.34843   0.34888
     Eigenvalues ---    0.34917   0.35013   0.35092   0.35269   0.36841
 En-DIIS/RFO-DIIS/Sim-DIIS IScMMF=       -3 using points:     4    3
 RFO step:  Lambda=-4.07141620D-05.
 DidBck=T Rises=F RFO-DIIS coefs:    0.68540    0.31460
 Iteration  1 RMS(Cart)=  0.00882900 RMS(Int)=  0.00004456
 Iteration  2 RMS(Cart)=  0.00004541 RMS(Int)=  0.00000073
 Iteration  3 RMS(Cart)=  0.00000000 RMS(Int)=  0.00000073
 Variable       Old X    -DE/DX   Delta X   Delta X   Delta X     New X
                                 (Linear)    (Quad)   (Total)
    R1        2.90057   0.00034   0.00078  -0.00018   0.00060   2.90118
    R2        2.08308  -0.00029   0.00021  -0.00075  -0.00054   2.08254
    R3        2.08667  -0.00009   0.00037  -0.00060  -0.00023   2.08644
    R4        2.08223  -0.00010   0.00046  -0.00078  -0.00032   2.08191
    R5        2.90055   0.00089   0.00089   0.00105   0.00195   2.90250
    R6        2.90717   0.00064   0.00073   0.00066   0.00139   2.90856
    R7        2.90420   0.00031   0.00043   0.00035   0.00078   2.90498
    R8        3.39268   0.00028  -0.00000   0.00063   0.00063   3.39331
    R9        2.07857  -0.00018   0.00021  -0.00056  -0.00034   2.07823
   R10        2.07630  -0.00009   0.00021  -0.00044  -0.00023   2.07607
   R11        3.39382   0.00030   0.00020   0.00040   0.00059   3.39442
   R12        2.07682  -0.00001   0.00028  -0.00041  -0.00013   2.07668
   R13        2.08054  -0.00010   0.00021  -0.00042  -0.00021   2.08033
   R14        3.39840   0.00017   0.00004   0.00035   0.00040   3.39880
   R15        2.07762  -0.00024   0.00013  -0.00057  -0.00043   2.07718
   R16        2.07975  -0.00007   0.00030  -0.00047  -0.00018   2.07957
    A1        1.92614   0.00019   0.00000   0.00075   0.00075   1.92689
    A2        1.93320   0.00000  -0.00016   0.00010  -0.00006   1.93314
    A3        1.93523  -0.00006  -0.00013  -0.00009  -0.00022   1.93501
    A4        1.88416  -0.00008   0.00032  -0.00048  -0.00016   1.88400
    A5        1.88931  -0.00006   0.00011  -0.00020  -0.00009   1.88922
    A6        1.89434  -0.00001  -0.00013  -0.00011  -0.00023   1.89411
    A7        1.94350  -0.00025  -0.00030   0.00021  -0.00009   1.94342
    A8        1.92929   0.00039   0.00083  -0.00012   0.00071   1.93000
    A9        1.86946  -0.00014   0.00005  -0.00113  -0.00108   1.86838
   A10        1.89361  -0.00006  -0.00031   0.00071   0.00040   1.89401
   A11        1.94038   0.00048   0.00049   0.00153   0.00202   1.94240
   A12        1.88704  -0.00042  -0.00075  -0.00126  -0.00201   1.88503
   A13        1.97794   0.00064   0.00090   0.00102   0.00192   1.97986
   A14        1.92973   0.00010  -0.00018   0.00091   0.00073   1.93046
   A15        1.92381  -0.00001  -0.00060   0.00033  -0.00027   1.92354
   A16        1.85764  -0.00022   0.00066  -0.00072  -0.00005   1.85759
   A17        1.86690  -0.00046  -0.00065  -0.00125  -0.00190   1.86500
   A18        1.90490  -0.00010  -0.00012  -0.00044  -0.00056   1.90434
   A19        1.98719   0.00066   0.00126   0.00064   0.00190   1.98909
   A20        1.93832  -0.00017  -0.00056  -0.00038  -0.00094   1.93738
   A21        1.91771   0.00009  -0.00072   0.00149   0.00077   1.91849
   A22        1.86327  -0.00034  -0.00039  -0.00101  -0.00141   1.86187
   A23        1.85783  -0.00018   0.00054  -0.00010   0.00043   1.85826
   A24        1.89556  -0.00009  -0.00013  -0.00074  -0.00087   1.89470
   A25        1.99479  -0.00008   0.00047  -0.00030   0.00016   1.99495
   A26        1.91536   0.00023  -0.00000   0.00121   0.00121   1.91657
   A27        1.92988  -0.00011  -0.00071  -0.00021  -0.00092   1.92896
   A28        1.85662   0.00010   0.00050   0.00054   0.00105   1.85767
   A29        1.86088  -0.00009  -0.00012  -0.00119  -0.00131   1.85957
   A30        1.90289  -0.00005  -0.00011  -0.00008  -0.00019   1.90269
    D1       -1.02882   0.00012  -0.00553   0.00864   0.00312  -1.02570
    D2        1.07745   0.00014  -0.00556   0.00960   0.00404   1.08149
    D3        3.12945  -0.00023  -0.00598   0.00737   0.00139   3.13084
    D4       -3.11439   0.00009  -0.00583   0.00870   0.00287  -3.11152
    D5       -1.00812   0.00012  -0.00586   0.00966   0.00379  -1.00433
    D6        1.04388  -0.00026  -0.00628   0.00742   0.00114   1.04502
    D7        1.06450   0.00014  -0.00548   0.00882   0.00335   1.06785
    D8       -3.11242   0.00016  -0.00551   0.00978   0.00427  -3.10815
    D9       -1.06041  -0.00021  -0.00593   0.00755   0.00162  -1.05879
   D10       -1.05396   0.00029   0.00807  -0.00156   0.00651  -1.04746
   D11       -3.13786   0.00007   0.00674  -0.00198   0.00476  -3.13310
   D12        1.03760   0.00013   0.00741  -0.00224   0.00517   1.04277
   D13        3.10214   0.00000   0.00743  -0.00203   0.00541   3.10755
   D14        1.01824  -0.00022   0.00611  -0.00244   0.00367   1.02190
   D15       -1.08949  -0.00016   0.00678  -0.00271   0.00407  -1.08541
   D16        1.02923   0.00027   0.00826  -0.00183   0.00643   1.03566
   D17       -1.05467   0.00004   0.00693  -0.00225   0.00468  -1.04998
   D18        3.12080   0.00011   0.00760  -0.00251   0.00509   3.12589
   D19       -1.04522  -0.00025  -0.00923  -0.00419  -0.01342  -1.05864
   D20        3.13419  -0.00014  -0.00920  -0.00304  -0.01223   3.12196
   D21        1.03658   0.00003  -0.00822  -0.00284  -0.01105   1.02553
   D22        1.09053  -0.00035  -0.00928  -0.00353  -0.01282   1.07771
   D23       -1.01324  -0.00024  -0.00925  -0.00238  -0.01163  -1.02487
   D24       -3.11085  -0.00008  -0.00827  -0.00218  -0.01045  -3.12130
   D25       -3.08639  -0.00005  -0.00931  -0.00202  -0.01134  -3.09773
   D26        1.09302   0.00006  -0.00928  -0.00087  -0.01015   1.08287
   D27       -1.00459   0.00022  -0.00830  -0.00067  -0.00897  -1.01356
   D28       -3.12980   0.00018   0.00710   0.00795   0.01505  -3.11475
   D29        1.06976  -0.00006   0.00614   0.00659   0.01272   1.08249
   D30       -1.03005  -0.00008   0.00673   0.00604   0.01277  -1.01728
   D31        1.02651   0.00029   0.00714   0.00750   0.01464   1.04115
   D32       -1.05711   0.00005   0.00618   0.00613   0.01231  -1.04480
   D33        3.12626   0.00003   0.00677   0.00559   0.01236   3.13862
   D34       -1.05033   0.00034   0.00770   0.00652   0.01422  -1.03611
   D35       -3.13396   0.00010   0.00674   0.00516   0.01190  -3.12206
   D36        1.04941   0.00008   0.00734   0.00461   0.01195   1.06136
         Item               Value     Threshold  Converged?
 Maximum Force            0.000885     0.000015     NO 
 RMS     Force            0.000247     0.000010     NO 
 Maximum Displacement     0.034259     0.000060     NO 
 RMS     Displacement     0.008829     0.000040     NO 
 GradGradGradGradGradGradGradGradGradGradGradGradGradGradGradGradGradGrad

                    Distance matrix (angstroms):
                    1          2          3          4          5
     1  C    0.000000
     2  C    1.535236   0.000000
     3  C    2.536328   1.535934   0.000000
     4  Cl   3.208591   2.788816   1.795661   0.000000
     5  C    2.527288   1.539141   2.495946   4.141564   0.000000
     6  Cl   3.214827   2.800268   3.186082   4.858578   1.796248
     7  C    2.470638   1.537250   2.537107   3.200919   2.488921
     8  Cl   4.134148   2.806016   3.225330   3.979793   3.156618
     9  H    1.102034   2.179691   2.779289   3.561485   2.792481
    10  H    1.104098   2.185784   3.499113   4.217741   2.763100
    11  H    1.101698   2.185333   2.805519   2.793459   3.492213
    12  H    3.493967   2.181185   1.099752   2.356076   2.727454
    13  H    2.782912   2.175300   1.098610   2.361236   2.751308
    14  H    3.490119   2.188406   2.735448   4.421704   1.098934
    15  H    2.759632   2.176121   3.460690   4.955556   1.100865
    16  H    2.714575   2.171812   2.778486   2.756113   3.453945
    17  H    2.694072   2.181792   3.494875   4.198625   2.736312
                    6          7          8          9         10
     6  Cl   0.000000
     7  C    4.141902   0.000000
     8  Cl   4.843339   1.798568   0.000000
     9  H    2.796014   3.446794   4.970549   0.000000
    10  H    3.551986   2.711922   4.407231   1.784180   0.000000
    11  H    4.223701   2.719212   4.430685   1.785614   1.790441
    12  H    3.535627   2.792884   2.799282   3.791424   4.341716
    13  H    2.750980   3.490911   4.225905   2.572208   3.788070
    14  H    2.359475   2.753715   2.724923   3.803249   3.774162
    15  H    2.357898   2.705051   3.476652   3.135422   2.536333
    16  H    4.960859   1.099198   2.358361   3.731308   3.075121
    17  H    4.416750   1.100463   2.360753   3.714001   2.465557
                   11         12         13         14         15
    11  H    0.000000
    12  H    3.808835   0.000000
    13  H    3.159004   1.790952   0.000000
    14  H    4.343631   2.504976   3.100197   0.000000
    15  H    3.766022   3.737853   3.763492   1.785950   0.000000
    16  H    2.497744   3.140364   3.778938   3.756767   3.724760
    17  H    3.044940   3.799861   4.332271   3.117912   2.487650
                   16         17
    16  H    0.000000
    17  H    1.790958   0.000000
 Framework group  C1[X(C5H9Cl3)]
 Deg. of freedom    45
                         Standard orientation:                         
 ---------------------------------------------------------------------
 Center     Atomic      Atomic             Coordinates (Angstroms)
 Number     Number       Type             X           Y           Z
 ---------------------------------------------------------------------
      1          6           0       -0.577828   -0.870755    1.672168
      2          6           0       -0.168212   -0.018779    0.462499
      3          6           0        0.244453   -0.898481   -0.727008
      4         17           0        1.636866   -1.974727   -0.370241
      5          6           0       -1.331123    0.887293    0.020200
      6         17           0       -2.805038   -0.009226   -0.480136
      7          6           0        0.990215    0.883260    0.918030
      8         17           0        1.597756    2.004823   -0.349976
      9          1           0       -1.417199   -1.534274    1.408204
     10          1           0       -0.901674   -0.229671    2.510719
     11          1           0        0.262086   -1.496403    2.013999
     12          1           0        0.543491   -0.276355   -1.583156
     13          1           0       -0.590276   -1.546493   -1.027428
     14          1           0       -1.038850    1.514925   -0.833210
     15          1           0       -1.632104    1.543761    0.851081
     16          1           0        1.846443    0.264835    1.222430
     17          1           0        0.680136    1.509657    1.768028
 ---------------------------------------------------------------------
 Rotational constants (GHZ):           1.2024842           0.8438340           0.6043992
   142 basis functions,   272 primitive gaussians,   150 cartesian basis functions
    45 alpha electrons       45 beta electrons
       nuclear repulsion energy       634.2730384983 Hartrees.
 NAtoms=   17 NActive=   17 NUniq=   17 SFac= 1.00D+00 NAtFMM=   60 NAOKFM=F Big=F
 Nuclear repulsion after empirical dispersion term =      634.2607067964 Hartrees.
   1 Symmetry operations used in ECPInt.
 ECPInt:  NShTT=    2628 NPrTT=   11486 LenC2=    2576 LenP2D=    8556.
 LDataN:  DoStor=T MaxTD1= 4 Len=   56
 Initial guess from the checkpoint file:  "20.chk"
 B after Tr=    -0.000000   -0.000000   -0.000000
         Rot=    0.999996    0.000201   -0.001504   -0.002442 Ang=   0.33 deg.
 ExpMin= 1.22D-01 ExpMax= 1.04D+04 ExpMxC= 1.57D+03 IAcc=3 IRadAn=         5 AccDes= 0.00D+00
 Harris functional with IExCor= 4639 and IRadAn=       5 diagonalized for initial guess.
 HarFok:  IExCor= 4639 AccDes= 0.00D+00 IRadAn=         5 IDoV= 1 UseB2=F ITyADJ=14
 ICtDFT=  3500011 ScaDFX=  1.000000  1.000000  1.000000  1.000000
 FoFCou: FMM=F IPFlag=           0 FMFlag=      100000 FMFlg1=           0
         NFxFlg=           0 DoJE=T BraDBF=F KetDBF=T FulRan=T
         wScrn=  0.000000 ICntrl=       500 IOpCl=  0 I1Cent=   200000004 NGrid=           0
         NMat0=    1 NMatS0=      1 NMatT0=    0 NMatD0=    1 NMtDS0=    0 NMtDT0=    0
 Petite list used in FoFCou.
     Accept linear search using points  1 and  2.
     Minimum is close to point  2 DX= -3.44D-05 DF=  0.00D+00 DXR=  3.44D-05 DFR=  0.00D+00 which will be used.
 SCF Done:  E(RwB97XD) =  -1575.91077757     a.u. after    4 cycles
            Convg  =    0.1210D-08                    26 Fock formations.
              S**2 =  0.0000                  -V/T =  2.0032
   1 Symmetry operations used in ECPInt.
 ECPInt:  NShTT=    2628 NPrTT=   11486 LenC2=    2576 LenP2D=    8556.
 LDataN:  DoStor=T MaxTD1= 5 Len=  102
 Calling FoFJK, ICntrl=      2127 FMM=F ISym2X=0 I1Cent= 0 IOpClX= 0 NMat=1 NMatS=1 NMatT=0.

 GradGradGradGradGradGradGradGradGradGradGradGradGradGradGradGradGradGrad
 Using GEDIIS/GDIIS optimizer.
 FormGI is forming the generalized inverse of G from B-inverse, IUseBI=4.
 Internal  Forces:  Max     0.000150336 RMS     0.000045670
[...]
   xx         0.839219D+02      0.124359D+02      0.138368D+02
   yx         0.163419D+01      0.242161D+00      0.269441D+00
   yy         0.786227D+02      0.116507D+02      0.129631D+02
   zx        -0.432205D+01     -0.640462D+00     -0.712610D+00
   zy         0.692211D+00      0.102575D+00      0.114130D+00
   zz         0.700634D+02      0.103823D+02      0.115519D+02

 ----------------------------------------------------------------------
 1\1\GINC-C167\Freq\RwB97XD\def2SVPP\C5H9Cl3\PETERCHAO1\06-Feb-2023\0\\
 #T Geom=AllCheck Guess=TCheck SCRF=Check GenChk RwB97XD/def2SVPP Freq\
 \Monomer\\0,1\C,-0.5779428167,-0.900295487,1.6961877523\C,-0.174025774
 2,-0.0254220664,0.5007498232\C,0.2198308516,-0.8824006865,-0.711458370
 2\Cl,1.6034828713,-1.9813581128,-0.3898859261\C,-1.3343860921,0.898685
 0226,0.0898874378\Cl,-2.8215257013,0.0240681179,-0.4110479096\C,0.9964
 23973,0.857290405,0.96380198\Cl,1.600399427,2.0020859485,-0.2855169507
 \H,-1.4222734814,-1.554883345,1.4260587559\H,-0.8921444752,-0.27491740
 83,2.5500630033\H,0.2617827453,-1.5364943325,2.0184547533\H,0.51893304
 9,-0.2446463152,-1.5559686438\H,-0.6239347451,-1.5148952669,-1.0194106
 732\H,-1.0468289136,1.5409160423,-0.7541494718\H,-1.620526471,1.540752
 6201,0.9370348543\H,1.8508357559,0.2255270971,1.2447924789\H,0.7003581
 846,1.4667890464,1.8308622569\\Version=ES64L-G16RevB.01\State=1-A\HF=-
 1575.9107784\RMSD=1.245e-09\RMSF=2.057e-06\ZeroPoint=0.1353048\Thermal
 =0.1447881\Dipole=-0.2134211,0.2582994,0.6065762\DipoleDeriv=-0.068702
 8,-0.0453335,0.010059,-0.0103708,-0.0616122,0.0368414,-0.0400011,-0.02
 46498,0.0205351,-0.0272598,0.0272339,-0.0325487,-0.0724375,-0.0191472,
 -0.0054768,-0.0322361,0.1065601,-0.0043298,0.4031858,-0.342362,-0.0163
 214,-0.325372,0.3423889,0.0124308,0.0113824,-0.0237809,0.0637903,-0.38
 54808,0.2144155,0.009788,0.2074206,-0.3404213,-0.0261805,-0.0196588,-0
 .0034953,-0.1744517,0.6201705,0.1469398,0.1608419,0.2120828,0.1508472,
 0.0907522,0.2149014,0.0334992,0.1254223,-0.513951,-0.0847589,-0.108751
 2,-0.119317,-0.2192519,-0.0434468,-0.1109324,-0.0372341,-0.1786783,0.1
 777194,0.2190162,-0.1656783,0.2911332,0.4219118,-0.2129042,-0.1947128,
 -0.2786079,0.3035095,-0.2653081,-0.1489509,0.0741238,-0.1594668,-0.369
 9295,0.1413601,0.1105448,0.1731962,-0.2975787,0.005554,-0.0910834,0.00
 78345,-0.082253,0.0295166,-0.0059276,-0.0250448,-0.0211991,0.0450492,0
 .0661683,0.0241816,0.0504836,0.0383535,-0.0089798,-0.1084538,0.052509,
 -0.0495228,-0.0486661,-0.0140819,0.0765226,-0.0531894,0.0485019,0.0404
 831,0.0452843,-0.0257793,0.0360831,0.0745188,0.009861,0.0689666,0.0388
 585,0.0547784,0.0071536,0.0757207,0.0147265,0.0562397,0.0138636,-0.017
 5676,-0.0094118,-0.0399459,-0.0105941,0.0065495,-0.0200148,-0.0212371,
 -0.0003834,0.0749036,0.0113916,-0.0481394,0.0027992,-0.0396245,0.03039
 86,0.024368,-0.0090741,0.0504392,0.0085314,-0.0386764,0.0000165,-0.021
 4999,-0.0124572,0.0031458,-0.0635967,-0.0055422,-0.0954685,-0.0192501,
 -0.0149715,-0.006073,-0.004646,0.0064442,0.0130757,0.0830507,0.0206741
 ,0.0843605,0.0480852,0.0519492,-0.0011798,0.0877924,-0.0268217,-0.0261
 287,-0.023807,0.0594804,-0.0060362,-0.0552542\Polar=85.2789104,1.10362
 81,77.9191634,0.2440891,-2.5269699,69.4098956\Quadrupole=-3.5896799,-0
 .5172182,4.1068982,-0.224756,0.5211606,0.7198743\PG=C01 [X(C5H9Cl3)]\N
 Imag=0\\0.59274469,-0.01924118,0.56194840,0.02548490,0.05099746,0.5233
 4873,-0.08884481,-0.01539392,0.02121387,0.48706517,-0.01750454,-0.1171
 9674,0.04683109,-0.00133719,0.50420824,0.02441496,0.04738209,-0.145036
 44,0.00572528,0.00052806,0.52550069,-0.00375156,0.00371637,0.01146706,
 -0.08153314,0.00470701,0.02094759,0.47636425,-0.00452416,0.01351683,0.
 01244905,0.00468530,-0.10764982,-0.04566379,0.12708135,0.49484145,0.00
 980715,-0.01384603,-0.02848495,0.02060774,-0.04593901,-0.15154251,-0.0
 1000074,-0.03193413,0.51567142,0.00017770,0.00099352,0.00018228,-0.015
 65412,0.01253387,-0.00359807,-0.10103665,0.04761930,-0.02071158,0.1415
 7873,-0.00049537,0.00034952,0.00094767,0.01921828,-0.01578563,0.005503
 18,0.04803479,-0.07369248,0.01698872,-0.09227635,0.10171141,0.00112904
 ,-0.00060135,-0.00213179,0.01252367,-0.00869436,0.00574604,-0.01973206
 ,0.01604471,-0.04225206,0.02584966,-0.01720811,0.04080120,0.00735796,-
 0.00110435,-0.00264203,-0.12369660,0.05155779,-0.01519091,-0.01238631,
 0.01269430,0.00361094,0.00053054,-0.00066898,0.00037826,0.38680002,0.0
 1702853,-0.01568262,0.00999746,0.05347173,-0.12083678,0.01901018,0.018
 43022,-0.01541647,0.00278762,0.00113593,-0.00233405,-0.00214726,-0.029
 76625,0.49678334,-0.02154204,0.01963319,-0.01205440,-0.01172184,0.0149
 0007,-0.08840183,0.01802513,-0.01201076,0.00772600,0.00414047,-0.00570
 522,-0.00277474,-0.07808956,-0.01304224,0.58917323,0.00017856,-0.00050
 619,0.00079509,-0.02611499,-0.01787204,-0.00910648,-0.00184492,0.00064
 146,-0.00064705,0.00002211,0.00006162,-0.00007782,-0.10312945,-0.04832
 364,-0.02191994,0.16132991,0.00091793,-0.00094199,0.00155015,0.0031928
 3,0.00576187,0.00131039,0.00172738,-0.00127952,-0.00131635,0.00052603,
 0.00051177,0.00041676,-0.04604887,-0.06818298,-0.01502378,0.07462585,0
 .07813659,-0.00151611,0.00073877,-0.00032177,-0.00940461,-0.00592001,-
 0.00356895,0.00103537,-0.00094575,-0.00016829,0.00050249,0.00021300,0.
 00037397,-0.02132762,-0.01591381,-0.04501839,0.04618252,0.02445412,0.0
 4167787,-0.00968744,-0.01012569,0.00454040,-0.14014244,-0.03767228,-0.
 02991298,0.01036190,0.00022620,-0.00146986,-0.00079707,0.00150508,0.00
 001273,-0.02958242,-0.01249383,-0.00992223,-0.00356072,0.00111221,-0.0
 0158893,0.51081299,-0.01703567,-0.01655587,0.00274048,-0.03592663,-0.1
 0529387,-0.02631593,-0.01499413,-0.01819290,-0.01230321,-0.00167975,-0
 .00091664,-0.00106189,0.00745666,0.01224240,0.00248071,0.00654250,-0.0
 0045603,0.00309099,-0.10768701,0.47905429,0.01803995,0.01465980,0.0035
 2626,-0.03030827,-0.02723703,-0.08681520,-0.02216130,-0.01960456,-0.00
 994453,-0.00098576,-0.00079551,-0.00099701,-0.00954443,-0.00571747,-0.
 00346405,-0.00110614,0.00096953,-0.00078982,0.01629851,0.08120846,0.47
 867319,-0.00396657,-0.00263030,-0.00309176,-0.00595244,-0.01407834,0.0
 1918848,-0.00044286,0.00025313,0.00014218,0.00052310,-0.00015716,0.000
 01863,-0.00221287,-0.00109004,-0.00040540,-0.00003107,-0.00052474,0.00
 034470,-0.04468642,-0.01746753,0.02300277,0.05461766,-0.00487686,-0.00
 245295,-0.00395214,-0.00740556,-0.01583399,0.01881131,-0.00156554,-0.0
 0090624,0.00051098,0.00017721,0.00002580,-0.00008549,0.00078621,-0.000
 38647,0.00035292,0.00020130,0.00053685,-0.00031778,-0.01558022,-0.0741
 3399,0.04587302,0.04388860,0.10368916,0.00180973,0.00070320,0.00256075
 ,0.00397514,0.00417382,-0.00257406,-0.00066505,-0.00204455,-0.00133285
 ,-0.00010288,0.00005499,0.00044221,-0.00133362,0.00105528,-0.00018151,
 -0.00006240,-0.00046987,0.00050103,0.02083031,0.04495413,-0.09274194,-
 0.04089182,-0.08188399,0.12010766,-0.20999661,-0.12548763,-0.05304002,
 -0.00607578,-0.00424456,-0.00132428,0.00012076,-0.00040108,-0.00070984
 ,-0.00017288,0.00032773,0.00020111,-0.00031014,0.00024705,0.00000090,-
 0.00096433,0.00178225,-0.00168959,0.00008367,-0.00034667,0.00159007,-0
 .00013109,-0.00040411,-0.00002296,0.22198774,-0.12370321,-0.14374551,-
 0.04167759,-0.01334578,-0.01168213,-0.00505823,0.00068464,0.00081388,-
 0.00092250,-0.00003301,-0.00018924,0.00006998,-0.00188063,-0.00067017,
 -0.00096766,0.00105248,0.00067056,0.00009450,0.00052118,-0.00116044,0.
 00291682,-0.00101437,-0.00074347,0.00051361,0.13599806,0.15140647,-0.0
 5442575,-0.04383098,-0.06565083,0.02145277,0.01580940,0.00661078,0.000
 90214,0.00044698,0.00158698,-0.00019358,0.00002576,0.00000932,0.000583
 52,-0.00015015,0.00110216,-0.00125384,0.00062179,-0.00123383,-0.000460
 91,0.00135034,-0.00367690,0.00126739,0.00170012,-0.00046811,0.05677173
 ,0.04204599,0.06972882,-0.07027398,0.04327315,0.05767548,-0.00382340,0
 .00522767,0.00502849,-0.00047758,-0.00086997,0.00059108,0.00007623,-0.
 00036528,0.00055697,0.00050048,-0.00000664,-0.00115116,-0.00021549,0.0
 0001654,0.00014699,-0.00021966,0.00057883,0.00132340,0.00014076,0.0001
 6305,-0.00055005,0.00956307,-0.01334694,-0.01927968,0.06914135,0.04456
 993,-0.13831371,-0.12031025,-0.00567842,0.01104917,0.01550581,-0.00061
 050,-0.00285189,0.00292335,0.00003219,0.00028296,-0.00066014,-0.000204
 19,0.00128085,0.00061568,-0.00023849,0.00003116,-0.00014912,-0.0004777
 3,0.00049515,0.00123614,0.00027440,0.00035918,-0.00025122,0.00744441,-
 0.00919082,-0.01218815,-0.04629145,0.14549819,0.05751528,-0.11770014,-
 0.20575579,0.00635006,-0.01534225,-0.01928217,0.00093060,0.00496909,-0
 .00341995,-0.00013529,-0.00000361,0.00060472,0.00058372,-0.00166523,0.
 00051730,-0.00025790,0.00017656,-0.00006140,-0.00072000,-0.00117095,-0
 .00005927,-0.00032801,0.00004294,0.00048496,0.00270496,-0.00258849,-0.
 00464170,-0.06480246,0.12589343,0.22207258,-0.21144500,0.12184004,-0.0
 6222717,0.00813271,-0.00650019,0.00206081,0.00001931,0.00065679,-0.000
 35566,-0.00110867,0.00013540,0.00220306,-0.00089802,-0.00136228,0.0014
 8222,0.00020698,0.00055489,-0.00035484,0.00069855,-0.00106412,0.000560
 49,0.00020539,0.00023283,-0.00020460,-0.01465861,0.01474508,-0.0049514
 5,-0.00455048,0.00176756,-0.00231951,0.22339304,0.12053313,-0.13905006
 ,0.04525758,0.01356958,-0.01104553,0.00430487,0.00044684,-0.00026367,-
 0.00049144,0.00038045,0.00011387,-0.00158073,-0.00267411,-0.00216021,0
 .00306798,0.00001572,0.00062574,-0.00043793,0.00133150,-0.00034338,0.0
 0053220,-0.00004427,0.00057807,-0.00051675,-0.01505470,0.01368475,-0.0
 0556734,0.01188123,-0.00876770,0.00653614,-0.13033617,0.14713698,-0.05
 947721,0.04385592,-0.07074774,-0.02010833,0.01344583,-0.00651369,-0.00
 191888,0.00114980,0.00017782,0.00139936,-0.00096785,-0.00043051,0.0025
 4023,0.00232175,-0.00408230,0.00021897,-0.00001426,0.00005525,-0.00101
 078,-0.00054663,0.00032680,0.00002846,-0.00039676,0.00004982,-0.005002
 75,0.00503739,-0.00268147,0.01977792,-0.01324968,0.00944524,0.06379024
 ,-0.05180891,0.07396287,-0.00008492,0.00142937,0.00125938,-0.00126161,
 -0.00424400,0.00461484,-0.06798939,-0.05284406,0.06209493,-0.00539016,
 0.02265424,-0.01938684,0.00032355,-0.00072317,0.00108661,-0.00017173,0
 .00009355,-0.00027498,-0.00006018,0.00032387,-0.00075754,-0.00025570,-
 0.00032405,-0.00027743,0.00022042,0.00018972,-0.00026742,0.00015820,-0
 .00027529,0.00054126,-0.00007603,0.00003610,0.00019370,0.07750442,0.00
 062224,-0.00263542,-0.00281445,0.00529564,0.01220881,-0.01421917,-0.05
 185450,-0.14191237,0.12544641,0.00526115,-0.01178193,0.01024594,0.0000
 0678,0.00128369,-0.00057328,-0.00034739,0.00000885,0.00000947,0.000208
 85,0.00102493,-0.00036363,-0.00069225,-0.00131824,-0.00028776,0.000075
 59,-0.00007141,0.00007010,0.00028636,0.00067187,-0.00103277,-0.0000587
 8,-0.00004317,-0.00006519,0.04493397,0.15030480,0.00094641,-0.00441428
 ,-0.00278975,0.00763304,0.01454330,-0.01889201,0.06230353,0.12232001,-
 0.21501831,-0.00132964,0.00167731,0.00047061,-0.00055225,0.00101849,0.
 00061501,0.00006019,-0.00010840,-0.00012145,0.00089951,0.00181770,-0.0
 0101123,-0.00025366,-0.00008812,0.00147421,0.00000614,-0.00004717,0.00
 020938,0.00038945,0.00087050,-0.00114748,-0.00015612,0.00002305,0.0001
 9797,-0.06793226,-0.12996042,0.22574243,0.00050347,0.00049172,-0.00004
 793,0.00844465,0.00379614,0.00265878,-0.20956752,-0.13573581,-0.058675
 40,-0.01936739,-0.00011261,-0.00600522,0.00079944,0.00030835,-0.000156
 34,-0.00115868,0.00055590,0.00038916,-0.00070301,0.00122956,0.00187503
 ,-0.00002844,-0.00004882,-0.00017361,0.00005634,-0.00009058,-0.0000488
 9,0.00005814,0.00003672,0.00002197,-0.00004666,-0.00005914,0.00003938,
 -0.00273044,-0.00389078,-0.00228736,0.22344626,0.00040408,0.00051475,0
 .00112916,-0.01314205,-0.00872910,-0.00339329,-0.13388375,-0.14519825,
 -0.04531916,0.02512039,0.00418230,0.00759678,-0.00164518,-0.00076561,-
 0.00064826,0.00006054,0.00104751,0.00056426,0.00192556,-0.00148173,-0.
 00253287,0.00016108,0.00006843,-0.00032178,0.00008734,0.00045045,-0.00
 030739,0.00008283,-0.00003960,0.00010257,0.00009000,-0.00000288,-0.000
 05606,-0.01194606,-0.00730363,-0.00674583,0.13328782,0.15770954,-0.001
 41235,-0.00039455,0.00109956,-0.01975250,-0.01623334,-0.00729375,-0.05
 672183,-0.04527013,-0.07286629,-0.00536743,-0.00047422,-0.00038710,-0.
 00102847,0.00000799,0.00017482,0.00009514,0.00075904,0.00034915,0.0031
 4222,-0.00217830,-0.00442897,0.00016297,0.00039806,0.00079421,0.000607
 72,0.00031605,-0.00068356,0.00020797,0.00014293,0.00034872,0.00000068,
 0.00001383,-0.00010815,0.01887517,0.01325008,0.00959660,0.06218897,0.0
 5021066,0.07360836,-0.00463511,0.00242568,-0.00062615,0.00836024,0.013
 69481,-0.01812369,0.00061404,0.00003481,-0.00113193,0.00011901,-0.0003
 0722,0.00010120,-0.06151203,-0.03792416,0.06116251,-0.01656228,-0.0180
 3919,0.00977489,0.00129354,0.00069588,-0.00092914,-0.00399112,-0.00140
 505,0.00012426,-0.00004476,0.00000976,0.00013168,-0.00003371,-0.000165
 04,0.00006208,0.00037421,0.00099235,-0.00121799,-0.00021367,0.00033995
 ,0.00056031,-0.00010760,0.00003386,0.00012011,0.07662855,0.00354611,-0
 .00142068,0.00005772,-0.00414077,-0.01024109,0.01549411,-0.00057037,-0
 .00033813,0.00131559,-0.00037146,0.00061612,-0.00027886,-0.03562278,-0
 .14336805,0.12761176,-0.00945958,-0.00815164,0.00512085,-0.00058763,-0
 .00047442,0.00024446,-0.00225669,-0.00006454,-0.00090792,-0.00013243,0
 .00014783,-0.00023921,-0.00001866,0.00011106,0.00018844,-0.00039209,-0
 .00041777,0.00094594,0.00066133,-0.00033175,-0.00065901,-0.00003607,-0
 .00001230,-0.00002882,0.04383207,0.15053608,-0.00201928,0.00094701,0.0
 0018344,0.00195255,0.00300113,-0.00494508,0.00012088,-0.00122499,0.000
 59205,-0.00014841,-0.00002421,0.00002459,0.05981758,0.12695725,-0.2236
 6014,-0.00967709,-0.01083905,0.00886506,0.00030616,0.00120127,-0.00095
 141,0.00113771,-0.00046086,0.00075423,-0.00002084,0.00000310,-0.000022
 72,-0.00001846,-0.00014839,0.00040612,0.00029505,0.00046398,-0.0002232
 2,0.00016646,0.00010512,0.00034737,-0.00010059,-0.00001000,-0.00001374
 ,-0.05638650,-0.13432186,0.23299006,0.00045729,-0.00099547,0.00060158,
 -0.00668494,0.01380916,0.01845275,-0.00244154,0.00137491,-0.00262811,-
 0.00109467,0.00151738,0.00054228,-0.06195399,0.04601804,0.06107580,-0.
 00696685,-0.02089097,-0.02193093,0.00056161,0.00117745,0.00145842,0.00
 001407,-0.00017646,-0.00014679,-0.00003507,0.00006146,-0.00013446,0.00
 027693,0.00011146,-0.00054965,-0.00005002,-0.00021129,0.00005813,0.000
 05109,-0.00015313,-0.00028429,-0.00006490,0.00008609,-0.00000042,-0.00
 018951,0.00543465,0.00463419,0.07856406,-0.00043668,0.00036853,-0.0014
 3441,0.00674304,-0.01179715,-0.01589263,0.00223846,-0.00079138,0.00248
 572,0.00073805,-0.00067636,-0.00047908,0.04746446,-0.13940978,-0.12076
 327,-0.00485788,-0.00843146,-0.01011104,-0.00114244,0.00095763,-0.0004
 0469,0.00018075,-0.00020289,0.00000373,0.00001397,-0.00004209,0.000009
 93,0.00008872,-0.00026096,0.00096384,-0.00008432,0.00035301,0.00011187
 ,0.00004454,0.00007378,-0.00014315,-0.00021578,0.00013196,0.00012001,-
 0.00405020,0.01345251,0.01438208,-0.04679096,0.14584000,-0.00050414,0.
 00071618,0.00128565,-0.00312610,0.00673068,0.00682069,-0.00097675,0.00
 060340,-0.00064878,-0.00050454,0.00053231,0.00048279,0.06208898,-0.122
 30074,-0.21912767,-0.00298765,-0.00292968,-0.00095354,-0.00017369,0.00
 024764,0.00073067,0.00033396,0.00028639,-0.00003845,0.00004335,0.00008
 485,-0.00008327,-0.00011440,-0.00015391,-0.00008239,0.00005203,-0.0000
 4034,0.00011336,-0.00016452,0.00002511,0.00020676,-0.00002996,0.000095
 91,-0.00004121,0.00601247,-0.01459360,-0.01443715,-0.06023427,0.130615
 65,0.22557925,0.00044666,0.00110286,-0.00048490,-0.01868162,0.01280013
 ,-0.00583294,-0.00076072,0.00118613,0.00032547,0.00104494,0.00054891,0
 .00106975,-0.00148303,-0.00359366,-0.00076660,-0.00145199,0.00005708,-
 0.00064981,-0.22308197,0.13070194,-0.05654654,0.00846501,-0.01292148,0
 .00929098,0.00033066,-0.00008834,-0.00001801,-0.00003576,-0.00004661,-
 0.00003980,-0.00015138,-0.00087414,0.00050757,-0.00002912,-0.00011675,
 -0.00006573,-0.00007258,0.00010154,0.00008071,0.00002082,0.00001208,-0
 .00002540,0.00023455,-0.00022072,0.00010445,0.23865985,-0.00038591,0.0
 0110386,-0.00070450,-0.01548192,0.01156569,-0.00460299,-0.00020753,0.0
 0087695,-0.00011530,0.00024524,-0.00253713,-0.00150093,-0.00119372,-0.
 00254964,-0.00079124,-0.00159676,0.00004994,-0.00068875,0.13195844,-0.
 13962272,0.03588710,0.00524017,-0.01244253,0.01059135,0.00008355,0.000
 12399,-0.00008330,0.00013290,-0.00007493,0.00004581,-0.00029527,-0.000
 33749,0.00031811,0.00004756,-0.00012883,-0.00011126,0.00005240,-0.0000
 4337,0.00025077,-0.00006117,-0.00002515,-0.00007191,-0.00007332,-0.000
 08368,0.00013043,-0.13087215,0.15105949,0.00111671,0.00012994,0.000281
 65,-0.00999906,0.00578052,-0.00217423,-0.00124028,0.00132410,-0.000445
 07,0.00083280,-0.00097684,-0.00030556,-0.00055590,-0.00181515,-0.00019
 631,-0.00048705,0.00011697,0.00003817,-0.05686374,0.03344147,-0.063069
 94,-0.00839203,0.01853708,-0.01242936,0.00004999,-0.00007814,-0.000248
 29,0.00006395,-0.00016889,-0.00000426,0.00025587,0.00025172,0.00046697
 ,0.00007807,-0.00005618,-0.00004831,0.00009136,-0.00001511,0.00019725,
 0.00029483,0.00004294,0.00004505,-0.00014564,0.00022068,0.00015125,0.0
 5561105,-0.04289318,0.06841840,0.00081965,0.00021202,-0.00106008,0.006
 46311,-0.01467346,-0.02000263,-0.00524805,-0.00207860,-0.00084933,0.00
 054926,0.00037954,0.00061557,0.00085287,-0.00135620,-0.00129851,0.0004
 3494,0.00034135,0.00036130,-0.07129094,0.04749482,0.05819049,-0.002267
 39,-0.00074106,0.00840078,0.00002661,0.00024047,-0.00007523,-0.0002850
 9,-0.00024894,0.00044270,-0.00004532,0.00006693,0.00018199,0.00000527,
 0.00008306,0.00006273,0.00053892,-0.00082408,-0.00119866,-0.00012062,0
 .00010230,-0.00003399,-0.00067812,0.00028699,0.00018078,-0.00345433,0.
 01240749,0.01928907,0.07369923,0.00058161,0.00019365,-0.00106447,0.005
 67584,-0.00870195,-0.01270399,-0.00338074,-0.00155601,-0.00027126,-0.0
 0040276,0.00011971,-0.00007596,0.00084285,0.00017254,0.00086340,0.0000
 0050,0.00006277,0.00019821,0.04697781,-0.13514241,-0.12687176,-0.01004
 244,0.00322781,0.02463374,0.00001123,0.00019734,0.00028613,-0.00083235
 ,-0.00027999,0.00058462,0.00007063,-0.00006057,-0.00008128,-0.00005761
 ,-0.00004997,0.00000729,0.00043098,-0.00052850,-0.00089006,-0.00010714
 ,-0.00001808,0.00004033,-0.00029899,0.00051831,-0.00005027,0.00222317,
 -0.00693447,-0.01384195,-0.04169262,0.14877980,0.00063275,0.00102378,0
 .00068742,0.00298658,-0.00637790,-0.00763828,-0.00231541,-0.00060848,0
 .00036931,0.00017012,0.00021263,0.00032330,0.00066156,-0.00040396,-0.0
 0034720,0.00023145,0.00032608,0.00037695,0.05609329,-0.12895630,-0.215
 30665,0.00773543,0.00067231,-0.01740279,-0.00016569,0.00025750,0.00014
 322,0.00015449,0.00009193,0.00057478,-0.00013108,-0.00000791,-0.000009
 03,0.00015057,0.00022063,0.00016818,0.00026067,-0.00034962,-0.00034591
 ,0.00007105,0.00000749,0.00004548,-0.00076856,0.00031476,0.00004204,-0
 .00256025,0.00433978,0.00932259,-0.06320698,0.12923729,0.22899659\\0.0
 0000118,0.00000165,-0.00000065,-0.00000135,-0.00000087,-0.00000205,-0.
 00000131,0.00000154,0.00000295,0.00000487,-0.00000012,0.00000435,0.000
 00225,0.00000101,-0.00000065,-0.00000074,-0.00000311,-0.00000378,-0.00
 000050,-0.00000183,0.00000289,-0.00000113,0.00000073,0.00000022,0.0000
 0033,0.00000040,-0.00000115,-0.00000231,0.00000206,-0.00000047,0.00000
 002,0.00000147,0.00000182,0.00000324,-0.00000154,0.00000101,0.00000284
 ,-0.00000209,0.00000062,-0.00000088,-0.00000270,-0.00000323,-0.0000026
 2,-0.00000135,-0.00000286,-0.00000073,0.00000216,0.00000170,-0.0000031
 6,0.00000258,-0.00000073\\\@


 HE WHO LOVES TO READ, AND KNOWS HOW TO REFLECT,
 HAS LAID BY A PERPETUAL FEAST FOR HIS OLD AGE.
 -- UNCLE ESEK, "SCRIBNER'S MONTHLY", SEPT. 1880
 File lengths (MBytes):  RWF=     54 Int=      0 D2E=      0 Chk=      3 Scr=      1
 Normal termination of Gaussian 16 at Mon Feb  6 10:21:13 2023.
real 363.19
user 1355.05
sys 10.01
