 Entering Gaussian System, Link 0=g16
 Input=gaussian_test.inp
 Output=gaussian_test.log
 Initial command:
 /sw/restricted/lms/sw/Gaussian/g16_B01/g16/l1.exe "/scratch/user/peterchao1/peterchao1/8625348_1689034674000000510775978/Gau-130347.inp" -scrdir="/scratch/user/peterchao1/peterchao1/8625348_1689034674000000510775978/"
 Entering Link 1 = /sw/restricted/lms/sw/Gaussian/g16_B01/g16/l1.exe PID=    130363.
  
 Copyright (c) 1988-2017, Gaussian, Inc.  All Rights Reserved.
  
 This is part of the Gaussian(R) 16 program.  It is based on
 the Gaussian(R) 09 system (copyright 2009, Gaussian, Inc.),
 the Gaussian(R) 03 system (copyright 2003, Gaussian, Inc.),
 the Gaussian(R) 98 system (copyright 1998, Gaussian, Inc.),
 the Gaussian(R) 94 system (copyright 1995, Gaussian, Inc.),
 the Gaussian 92(TM) system (copyright 1992, Gaussian, Inc.),
 the Gaussian 90(TM) system (copyright 1990, Gaussian, Inc.),
 the Gaussian 88(TM) system (copyright 1988, Gaussian, Inc.),
 the Gaussian 86(TM) system (copyright 1986, Carnegie Mellon
 University), and the Gaussian 82(TM) system (copyright 1983,
 Carnegie Mellon University). Gaussian is a federally registered
 trademark of Gaussian, Inc.
  
 This software contains proprietary and confidential information,
 including trade secrets, belonging to Gaussian, Inc.
  
 This software is provided under written license and may be
 used, copied, transmitted, or stored only in accord with that
 written license.
  
 The following legend is applicable only to US Government
 contracts under FAR:
  
                    RESTRICTED RIGHTS LEGEND
  
 Use, reproduction and disclosure by the US Government is
 subject to restrictions as set forth in subparagraphs (a)
 and (c) of the Commercial Computer Software - Restricted
 Rights clause in FAR 52.227-19.
  
 Gaussian, Inc.
 340 Quinnipiac St., Bldg. 40, Wallingford CT 06492
  
  
 ---------------------------------------------------------------
 Warning -- This program may not be used in any manner that
 competes with the business of Gaussian, Inc. or will provide
 assistance to any competitor of Gaussian, Inc.  The licensee
 of this program is prohibited from giving any competitor of
 Gaussian, Inc. access to this program.  By using this program,
 the user acknowledges that Gaussian, Inc. is engaged in the
 business of creating and licensing software in the field of
 computational chemistry and represents and warrants to the
 licensee that it is not a competitor of Gaussian, Inc. and that
 it will not use this program in any manner prohibited above.
 ---------------------------------------------------------------
  

 Cite this work as:
 Gaussian 16, Revision B.01,
 M. J. Frisch, G. W. Trucks, H. B. Schlegel, G. E. Scuseria, 
 M. A. Robb, J. R. Cheeseman, G. Scalmani, V. Barone, 
 G. A. Petersson, H. Nakatsuji, X. Li, M. Caricato, A. V. Marenich, 
 J. Bloino, B. G. Janesko, R. Gomperts, B. Mennucci, H. P. Hratchian, 
 J. V. Ortiz, A. F. Izmaylov, J. L. Sonnenberg, D. Williams-Young, 
 F. Ding, F. Lipparini, F. Egidi, J. Goings, B. Peng, A. Petrone, 
 T. Henderson, D. Ranasinghe, V. G. Zakrzewski, J. Gao, N. Rega, 
 G. Zheng, W. Liang, M. Hada, M. Ehara, K. Toyota, R. Fukuda, 
 J. Hasegawa, M. Ishida, T. Nakajima, Y. Honda, O. Kitao, H. Nakai, 
 T. Vreven, K. Throssell, J. A. Montgomery, Jr., J. E. Peralta, 
 F. Ogliaro, M. J. Bearpark, J. J. Heyd, E. N. Brothers, K. N. Kudin, 
 V. N. Staroverov, T. A. Keith, R. Kobayashi, J. Normand, 
 K. Raghavachari, A. P. Rendell, J. C. Burant, S. S. Iyengar, 
 J. Tomasi, M. Cossi, J. M. Millam, M. Klene, C. Adamo, R. Cammi, 
 J. W. Ochterski, R. L. Martin, K. Morokuma, O. Farkas, 
 J. B. Foresman, and D. J. Fox, Gaussian, Inc., Wallingford CT, 2016.
 
 ******************************************
 Gaussian 16:  ES64L-G16RevB.01 20-Dec-2017
                10-Jul-2023 
 ******************************************
 %chk=7.chk
 %mem=8000mb
 ----------------------------------------------------------------------
 #T wB97XD/def2svpp opt=tight freq int(grid=ultrafine) scf=(verytight,q
 c)
 ----------------------------------------------------------------------
 -------
 comment
 -------
 Symbolic Z-matrix:
 Charge =  1 Multiplicity = 2
 C                     0.76274   0.       0. 
 C                    -0.76274  0.         0. 
 H                     1.16482  -0.83025  -0.60619 
 H                     1.1648   -0.10988   1.02211 
 H                     1.16483   0.94011  -0.41589 
 H                    -1.16483  -0.94011   0.41589 
 H                    -1.1648    0.10988  -1.02211 
 H                    -1.16482   0.83025   0.60619 
 

 GradGradGradGradGradGradGradGradGradGradGradGradGradGradGradGradGradGrad
 Initialization pass.
                           ----------------------------
                           !    Initial Parameters    !
                           ! (Angstroms and Degrees)  !
 --------------------------                            --------------------------
 ! Name  Definition              Value          Derivative Info.                !
 --------------------------------------------------------------------------------
 ! R1    R(1,2)                  1.5255         estimate D2E/DX2                !
 ! R2    R(1,3)                  1.1038         estimate D2E/DX2                !
 ! R3    R(1,4)                  1.1038         estimate D2E/DX2                !
 ! R4    R(1,5)                  1.1038         estimate D2E/DX2                !
 ! R5    R(2,6)                  1.1038         estimate D2E/DX2                !
 ! R6    R(2,7)                  1.1038         estimate D2E/DX2                !
 ! R7    R(2,8)                  1.1038         estimate D2E/DX2                !
 ! A1    A(2,1,3)              111.362          estimate D2E/DX2                !
 ! A2    A(2,1,4)              111.361          estimate D2E/DX2                !
 ! A3    A(2,1,5)              111.363          estimate D2E/DX2                !
 ! A4    A(3,1,4)              107.5154         estimate D2E/DX2                !
 ! A5    A(3,1,5)              107.517          estimate D2E/DX2                !
 ! A6    A(4,1,5)              107.5158         estimate D2E/DX2                !
 ! A7    A(1,2,6)              111.363          estimate D2E/DX2                !
 ! A8    A(1,2,7)              111.361          estimate D2E/DX2                !
 ! A9    A(1,2,8)              111.362          estimate D2E/DX2                !
 ! A10   A(6,2,7)              107.5158         estimate D2E/DX2                !
 ! A11   A(6,2,8)              107.517          estimate D2E/DX2                !
 ! A12   A(7,2,8)              107.5153         estimate D2E/DX2                !
 ! D1    D(3,1,2,6)             59.9981         estimate D2E/DX2                !
 ! D2    D(3,1,2,7)            -60.0016         estimate D2E/DX2                !
 ! D3    D(3,1,2,8)            180.0            estimate D2E/DX2                !
 ! D4    D(4,1,2,6)            -60.0003         estimate D2E/DX2                !
 ! D5    D(4,1,2,7)            179.9999         estimate D2E/DX2                !
 ! D6    D(4,1,2,8)             60.0015         estimate D2E/DX2                !
 ! D7    D(5,1,2,6)            179.9999         estimate D2E/DX2                !
 ! D8    D(5,1,2,7)             60.0002         estimate D2E/DX2                !
 ! D9    D(5,1,2,8)            -59.9982         estimate D2E/DX2                !
 --------------------------------------------------------------------------------
 Number of steps in this run=     38 maximum allowed number of steps=    100.
 GradGradGradGradGradGradGradGradGradGradGradGradGradGradGradGradGradGrad

                    Distance matrix (angstroms):
                    1          2          3          4          5
     1  C    0.000000
     2  C    1.525470   0.000000
     3  H    1.103834   2.184545   0.000000
     4  H    1.103827   2.184526   1.780532   0.000000
     5  H    1.103833   2.184557   1.780554   1.780536   0.000000
     6  H    2.184557   1.103832   2.546367   2.546362   3.107155
     7  H    2.184527   1.103827   2.546356   3.107108   2.546361
     8  H    2.184544   1.103833   3.107138   2.546355   2.546368
                    6          7          8
     6  H    0.000000
     7  H    1.780536   0.000000
     8  H    1.780553   1.780531   0.000000
 Framework group  CI[X(C2H6)]
 Deg. of freedom     9
                         Standard orientation:                         
 ---------------------------------------------------------------------
 Center     Atomic      Atomic             Coordinates (Angstroms)
 Number     Number       Type             X           Y           Z
 ---------------------------------------------------------------------
      1          6           0        0.762735    0.000001   -0.000001
      2          6           0       -0.762735   -0.000001    0.000001
      3          1           0        1.164817   -0.830246   -0.606194
      4          1           0        1.164797   -0.109881    1.022108
      5          1           0        1.164833    0.940109   -0.415887
      6          1           0       -1.164833   -0.940109    0.415887
      7          1           0       -1.164797    0.109881   -1.022108
      8          1           0       -1.164817    0.830246    0.606194
 ---------------------------------------------------------------------
 Rotational constants (GHZ):          79.0857541          19.9266930          19.9266149
    40 basis functions,    74 primitive gaussians,    42 cartesian basis functions
     9 alpha electrons        8 beta electrons
       nuclear repulsion energy        42.0081860479 Hartrees.
 NAtoms=    8 NActive=    8 NUniq=    4 SFac= 4.00D+00 NAtFMM=   60 NAOKFM=F Big=F
 Nuclear repulsion after empirical dispersion term =       42.0063148558 Hartrees.
   2 Symmetry operations used in ECPInt.
 ECPInt:  NShTT=     300 NPrTT=    1220 LenC2=     301 LenP2D=    1136.
 LDataN:  DoStor=T MaxTD1= 4 Len=   56
 ExpMin= 1.22D-01 ExpMax= 1.24D+03 ExpMxC= 1.86D+02 IAcc=3 IRadAn=         5 AccDes= 0.00D+00
 Harris functional with IExCor= 4639 and IRadAn=       5 diagonalized for initial guess.
 HarFok:  IExCor= 4639 AccDes= 0.00D+00 IRadAn=         5 IDoV= 1 UseB2=F ITyADJ=14
 ICtDFT=  3500011 ScaDFX=  1.000000  1.000000  1.000000  1.000000
 FoFCou: FMM=F IPFlag=           0 FMFlag=      100000 FMFlg1=           0
         NFxFlg=           0 DoJE=T BraDBF=F KetDBF=T FulRan=T
         wScrn=  0.000000 ICntrl=       500 IOpCl=  0 I1Cent=   200000004 NGrid=           0
         NMat0=    1 NMatS0=      1 NMatT0=    0 NMatD0=    1 NMtDS0=    0 NMtDT0=    0
 Petite list used in FoFCou.
 Initial guess orbital symmetries:
 Alpha Orbitals:
       Occupied  (AU) (AG) (AG) (AU) (AU) (AU) (AG) (AG) (AG)
       Virtual   (AG) (AU) (AU) (AU) (AG) (AG) (AU) (AU) (AU) (AG)
                 (AG) (AG) (AU) (AG) (AG) (AG) (AU) (AU) (AU) (AG)
                 (AU) (AU) (AU) (AG) (AG) (AG) (AU) (AU) (AG) (AG)
                 (AU)
 Beta  Orbitals:
       Occupied  (AU) (AG) (AG) (AU) (AU) (AU) (AG) (AG)
       Virtual   (AG) (AG) (AU) (AU) (AU) (AG) (AG) (AU) (AU) (AU)
                 (AG) (AG) (AG) (AU) (AG) (AG) (AG) (AU) (AU) (AU)
                 (AG) (AU) (AU) (AU) (AG) (AG) (AG) (AU) (AU) (AG)
                 (AG) (AU)
 The electronic state of the initial guess is 2-AG.
 Initial guess <Sx>= 0.0000 <Sy>= 0.0000 <Sz>= 0.5000 <S**2>= 0.7500 S= 0.5000
     Accept linear search using points  3 and  4.
     Accept linear search using points  2 and  3.
 Incorrect curvature in search direction -- initial direction reversed.
     Accept linear search using points  1 and  2.
     Minimum is close to point  2 DX=  2.22D-02 DF= -2.88D-09 DXR=  2.17D-02 DFR=  4.72D-04 which will be used.
 SCF Done:  E(UwB97XD) =  -79.2782964823     a.u. after    9 cycles
            Convg  =    0.1311D-07                    67 Fock formations.
              S**2 =  0.7531                  -V/T =  2.0099
 <Sx>= 0.0000 <Sy>= 0.0000 <Sz>= 0.5000 <S**2>= 0.7531 S= 0.5016
 <L.S>=  0.00000000000    
 Annihilation of the first spin contaminant:
 S**2 before annihilation     0.7531,   after     0.7500

 **********************************************************************

            Population analysis using the SCF Density.

 **********************************************************************

 Orbital symmetries:
 Alpha Orbitals:
       Occupied  (AG) (AU) (AG) (AU) (AU) (AU) (AG) (AG) (AG)
       Virtual   (AG) (AU) (AU) (AU) (AG) (AG) (AU) (AU) (AU) (AG)
                 (AG) (AG) (AU) (AG) (AG) (AU) (AG) (AU) (AU) (AG)
                 (AU) (AU) (AU) (AG) (AG) (AG) (AU) (AU) (AG) (AG)
                 (AU)
 Beta  Orbitals:
       Occupied  (AG) (AU) (AG) (AU) (AU) (AU) (AG) (AG)
       Virtual   (AG) (AG) (AU) (AU) (AU) (AG) (AG) (AU) (AU) (AU)
                 (AG) (AG) (AG) (AU) (AG) (AG) (AG) (AU) (AU) (AU)
                 (AG) (AU) (AU) (AU) (AG) (AG) (AG) (AU) (AU) (AG)
                 (AG) (AU)
 The electronic state is 2-AG.
 Alpha  occ. eigenvalues --  -10.58515 -10.58509  -1.14962  -1.00935  -0.83783
 Alpha  occ. eigenvalues --   -0.80955  -0.75562  -0.74068  -0.71210
 Alpha virt. eigenvalues --   -0.07412  -0.03634  -0.02006  -0.01951   0.00483
 Alpha virt. eigenvalues --    0.01354   0.04328   0.22525   0.24385   0.26152
 Alpha virt. eigenvalues --    0.37201   0.37852   0.43950   0.48910   0.51652
 Alpha virt. eigenvalues --    0.53302   0.53384   0.54258   0.55336   0.58482
 Alpha virt. eigenvalues --    0.80087   1.27695   1.28997   1.66650   1.71473
 Alpha virt. eigenvalues --    1.72053   1.92840   1.93490   2.03343   2.04835
 Alpha virt. eigenvalues --    2.33253
  Beta  occ. eigenvalues --  -10.58206 -10.58195  -1.12872  -0.97486  -0.79781
  Beta  occ. eigenvalues --   -0.77424  -0.74004  -0.69776
  Beta virt. eigenvalues --   -0.48509  -0.07011  -0.02121  -0.01445  -0.01319
  Beta virt. eigenvalues --    0.01731   0.01970   0.05226   0.24694   0.25391
  Beta virt. eigenvalues --    0.26500   0.38343   0.38455   0.45219   0.50676
  Beta virt. eigenvalues --    0.54408   0.54620   0.54627   0.55869   0.56116
  Beta virt. eigenvalues --    0.59528   0.81201   1.29557   1.30004   1.67982
  Beta virt. eigenvalues --    1.73249   1.73395   1.94906   1.95330   2.05380
  Beta virt. eigenvalues --    2.05745   2.34220
          Condensed to atoms (all electrons):
          Atomic-Atomic Spin Densities.
 Mulliken charges and spin densities:
               1          2
     1  C   -0.385542   0.201125
     2  C   -0.385542   0.201125
     3  H    0.276180   0.056624
     4  H    0.333225   0.185720
     5  H    0.276136   0.056530
     6  H    0.276136   0.056530
     7  H    0.333225   0.185720
     8  H    0.276180   0.056624
 Sum of Mulliken charges =   1.00000   1.00000
 Mulliken charges and spin densities with hydrogens summed into heavy atoms:
               1          2
     1  C    0.500000   0.500000
     2  C    0.500000   0.500000
 Electronic spatial extent (au):  <R**2>=             96.9722
 Charge=              1.0000 electrons
 Dipole moment (field-independent basis, Debye):
    X=              0.0000    Y=              0.0000    Z=              0.0000  Tot=              0.0000
                          Isotropic Fermi Contact Couplings
        Atom                 a.u.       MegaHertz       Gauss      10(-4) cm-1
     1  C(13)             -0.00937     -10.53753      -3.76005      -3.51494
     2  C(13)             -0.00937     -10.53753      -3.76005      -3.51494
     3  H(1)               0.02852     127.46597      45.48303      42.51807
     4  H(1)               0.09220     412.12653     147.05699     137.47061
     5  H(1)               0.02847     127.26385      45.41090      42.45065
     6  H(1)               0.02847     127.26385      45.41090      42.45065
     7  H(1)               0.09220     412.12653     147.05699     137.47061
     8  H(1)               0.02852     127.46597      45.48303      42.51807
 --------------------------------------------------------
       Center         ----  Spin Dipole Couplings  ----
                      3XX-RR        3YY-RR        3ZZ-RR
 --------------------------------------------------------
     1   Atom       -0.174160     -0.203974      0.378134
     2   Atom       -0.174160     -0.203974      0.378134
     3   Atom       -0.018696      0.040801     -0.022104
     4   Atom       -0.002439     -0.038195      0.040634
     5   Atom       -0.018695      0.045935     -0.027239
     6   Atom       -0.018695      0.045935     -0.027239
     7   Atom       -0.002439     -0.038195      0.040634
     8   Atom       -0.018696      0.040801     -0.022104
 --------------------------------------------------------
                        XY            XZ            YZ
 --------------------------------------------------------
     1   Atom        0.011735     -0.109368     -0.063162
     2   Atom        0.011735     -0.109368     -0.063162
     3   Atom       -0.022902     -0.007223      0.019242
     4   Atom       -0.005812      0.054013     -0.008583
     5   Atom        0.023900     -0.002189     -0.004435
     6   Atom        0.023900     -0.002189     -0.004435
     7   Atom       -0.005812      0.054013     -0.008583
     8   Atom       -0.022902     -0.007223      0.019242
 --------------------------------------------------------


 ---------------------------------------------------------------------------------
              Anisotropic Spin Dipole Couplings in Principal Axis System
 ---------------------------------------------------------------------------------

       Atom             a.u.   MegaHertz   Gauss  10(-4) cm-1        Axes

              Baa    -0.2107   -28.280   -10.091    -9.433 -0.0003  0.9943  0.1066
     1 C(13)  Bbb    -0.1950   -26.170    -9.338    -8.729  0.9825 -0.0196  0.1853
              Bcc     0.4058    54.451    19.429    18.163 -0.1863 -0.1048  0.9769
 
              Baa    -0.2107   -28.280   -10.091    -9.433 -0.0003  0.9943  0.1066
     2 C(13)  Bbb    -0.1950   -26.170    -9.338    -8.729  0.9825 -0.0196  0.1853
              Bcc     0.4058    54.451    19.429    18.163 -0.1863 -0.1048  0.9769
 
              Baa    -0.0279   -14.890    -5.313    -4.967  0.4542 -0.0966  0.8856
     3 H(1)   Bbb    -0.0262   -13.992    -4.993    -4.667  0.8341  0.3954 -0.3846
              Bcc     0.0541    28.882    10.306     9.634 -0.3130  0.9134  0.2602
 
              Baa    -0.0391   -20.872    -7.448    -6.962 -0.0093  0.9935  0.1132
     4 H(1)   Bbb    -0.0390   -20.835    -7.434    -6.950  0.8292  0.0709 -0.5544
              Bcc     0.0782    41.707    14.882    13.912  0.5589 -0.0887  0.8245
 
              Baa    -0.0279   -14.883    -5.311    -4.964  0.4561 -0.0945  0.8849
     5 H(1)   Bbb    -0.0262   -13.986    -4.991    -4.665  0.8331 -0.3044 -0.4619
              Bcc     0.0541    28.869    10.301     9.630  0.3130  0.9479 -0.0601
 
              Baa    -0.0279   -14.883    -5.311    -4.964  0.4561 -0.0945  0.8849
     6 H(1)   Bbb    -0.0262   -13.986    -4.991    -4.665  0.8331 -0.3044 -0.4619
              Bcc     0.0541    28.869    10.301     9.630  0.3130  0.9479 -0.0601
 
              Baa    -0.0391   -20.872    -7.448    -6.962 -0.0093  0.9935  0.1132
     7 H(1)   Bbb    -0.0390   -20.835    -7.434    -6.950  0.8292  0.0709 -0.5544
              Bcc     0.0782    41.707    14.882    13.912  0.5589 -0.0887  0.8245
 
              Baa    -0.0279   -14.890    -5.313    -4.967  0.4542 -0.0966  0.8856
     8 H(1)   Bbb    -0.0262   -13.992    -4.993    -4.667  0.8341  0.3954 -0.3846
              Bcc     0.0541    28.882    10.306     9.634 -0.3130  0.9134  0.2602
 

 ---------------------------------------------------------------------------------

   2 Symmetry operations used in ECPInt.
 ECPInt:  NShTT=     300 NPrTT=    1220 LenC2=     301 LenP2D=    1136.
 LDataN:  DoStor=T MaxTD1= 5 Len=  102
 Calling FoFJK, ICntrl=      2127 FMM=F ISym2X=1 I1Cent= 0 IOpClX= 1 NMat=1 NMatS=1 NMatT=0.

 GradGradGradGradGradGradGradGradGradGradGradGradGradGradGradGradGradGrad
 FormGI is forming the generalized inverse of G from B-inverse, IUseBI=4.
 Internal  Forces:  Max     0.043970457 RMS     0.015753572
 Step number   1 out of a maximum of   38
 All quantities printed in internal units (Hartrees-Bohrs-Radians)
 Mixed Optimization -- RFO/linear search
 Second derivative matrix not updated -- first step.
 ITU=  0
     Eigenvalues ---    0.00429   0.05499   0.05499   0.05500   0.05500
     Eigenvalues ---    0.16000   0.16000   0.16000   0.16000   0.16000
     Eigenvalues ---    0.16000   0.29846   0.33262   0.33262   0.33262
     Eigenvalues ---    0.33262   0.33262   0.33262
 Linear search not attempted -- first point.
 Maximum step size (   0.300) exceeded in Quadratic search.
    -- Step size scaled by   0.866
 Iteration  1 RMS(Cart)=  0.06084110 RMS(Int)=  0.00276225
 Iteration  2 RMS(Cart)=  0.00302227 RMS(Int)=  0.00057661
 Iteration  3 RMS(Cart)=  0.00000581 RMS(Int)=  0.00057659
 Iteration  4 RMS(Cart)=  0.00000000 RMS(Int)=  0.00057659
 ClnCor:  largest displacement from symmetrization is 7.58D-09 for atom     6.
 Variable       Old X    -DE/DX   Delta X   Delta X   Delta X     New X
                                 (Linear)    (Quad)   (Total)
    R1        2.88272  -0.04397   0.00000  -0.11535  -0.11535   2.76737
    R2        2.08594   0.01089   0.00000   0.02589   0.02589   2.11184
    R3        2.08593   0.03214   0.00000   0.07641   0.07641   2.16234
    R4        2.08594   0.01087   0.00000   0.02584   0.02584   2.11178
    R5        2.08594   0.01087   0.00000   0.02584   0.02584   2.11178
    R6        2.08593   0.03214   0.00000   0.07641   0.07641   2.16234
    R7        2.08594   0.01089   0.00000   0.02589   0.02589   2.11184
    A1        1.94363  -0.00312   0.00000  -0.00123  -0.00179   1.94184
    A2        1.94362   0.01801   0.00000   0.05562   0.05612   1.99973
    A3        1.94365  -0.00312   0.00000  -0.00120  -0.00176   1.94189
    A4        1.87650  -0.01361   0.00000  -0.08566  -0.08517   1.79133
    A5        1.87652   0.01464   0.00000   0.11447   0.11308   1.98960
    A6        1.87651  -0.01360   0.00000  -0.08558  -0.08509   1.79142
    A7        1.94365  -0.00312   0.00000  -0.00120  -0.00176   1.94189
    A8        1.94362   0.01801   0.00000   0.05562   0.05612   1.99973
    A9        1.94363  -0.00312   0.00000  -0.00123  -0.00179   1.94184
   A10        1.87651  -0.01360   0.00000  -0.08558  -0.08509   1.79142
   A11        1.87652   0.01464   0.00000   0.11447   0.11308   1.98960
   A12        1.87650  -0.01361   0.00000  -0.08566  -0.08517   1.79133
    D1        1.04717  -0.01437   0.00000  -0.14369  -0.14464   0.90252
    D2       -1.04723  -0.00719   0.00000  -0.07191  -0.07238  -1.11961
    D3        3.14159   0.00000   0.00000   0.00000   0.00000   3.14159
    D4       -1.04720  -0.00718   0.00000  -0.07179  -0.07226  -1.11946
    D5        3.14159  -0.00000   0.00000  -0.00000   0.00000   3.14159
    D6        1.04723   0.00719   0.00000   0.07191   0.07238   1.11961
    D7        3.14159  -0.00000   0.00000  -0.00000  -0.00000   3.14159
    D8        1.04720   0.00718   0.00000   0.07179   0.07226   1.11946
    D9       -1.04717   0.01437   0.00000   0.14369   0.14464  -0.90252
         Item               Value     Threshold  Converged?
 Maximum Force            0.043970     0.000015     NO 
 RMS     Force            0.015754     0.000010     NO 
 Maximum Displacement     0.107532     0.000060     NO 
 RMS     Displacement     0.061753     0.000040     NO 
 GradGradGradGradGradGradGradGradGradGradGradGradGradGradGradGradGradGrad

                    Distance matrix (angstroms):
                    1          2          3          4          5
     1  C    0.000000
     2  C    1.464430   0.000000
     3  H    1.117535   2.140147   0.000000
     4  H    1.144260   2.201759   1.765691   0.000000
     5  H    1.117508   2.140159   1.874422   1.765732   0.000000
     6  H    2.140159   1.117508   2.449532   2.593032   3.084421
     7  H    2.201759   1.144260   2.593062   3.188980   2.593032
     8  H    2.140147   1.117535   3.084425   2.593062   2.449532
                    6          7          8
     6  H    0.000000
     7  H    1.765732   0.000000
     8  H    1.874422   1.765691   0.000000
 Framework group  CI[X(C2H6)]
 Deg. of freedom     9
                         Standard orientation:                         
 ---------------------------------------------------------------------
 Center     Atomic      Atomic             Coordinates (Angstroms)
 Number     Number       Type             X           Y           Z
 ---------------------------------------------------------------------
      1          6           0        0.732152    0.001045   -0.009573
      2          6           0       -0.732152   -0.001045    0.009573
      3          1           0        1.131369   -0.881711   -0.566578
      4          1           0        1.221700   -0.109540    1.018748
      5          1           0        1.131367    0.981976   -0.366258
      6          1           0       -1.131367   -0.981976    0.366258
      7          1           0       -1.221700    0.109540   -1.018748
      8          1           0       -1.131369    0.881711    0.566578
 ---------------------------------------------------------------------
 Rotational constants (GHZ):          77.2293367          21.0232313          20.5630049
    40 basis functions,    74 primitive gaussians,    42 cartesian basis functions
     9 alpha electrons        8 beta electrons
       nuclear repulsion energy        42.2621794655 Hartrees.
 NAtoms=    8 NActive=    8 NUniq=    4 SFac= 4.00D+00 NAtFMM=   60 NAOKFM=F Big=F
 Nuclear repulsion after empirical dispersion term =       42.2603097735 Hartrees.
   2 Symmetry operations used in ECPInt.
 ECPInt:  NShTT=     300 NPrTT=    1220 LenC2=     301 LenP2D=    1136.
 LDataN:  DoStor=T MaxTD1= 4 Len=   56
 Initial guess from the checkpoint file:  "7.chk"
 B after Tr=    -0.000000   -0.000000    0.000000
         Rot=    0.999998   -0.000000   -0.002019   -0.000220 Ang=  -0.23 deg.
 Initial guess orbital symmetries:
 Alpha Orbitals:
       Occupied  (AG) (AU) (AG) (AU) (AU) (AU) (AG) (AG) (AG)
       Virtual   (AG) (AU) (AU) (AU) (AG) (AG) (AU) (AU) (AU) (AG)
                 (AG) (AG) (AU) (AG) (AG) (AU) (AG) (AU) (AU) (AG)
                 (AU) (AU) (AU) (AG) (AG) (AG) (AU) (AU) (AG) (AG)
                 (AU)
 Beta  Orbitals:
       Occupied  (AG) (AU) (AG) (AU) (AU) (AU) (AG) (AG)
       Virtual   (AG) (AG) (AU) (AU) (AU) (AG) (AG) (AU) (AU) (AU)
                 (AG) (AG) (AG) (AU) (AG) (AG) (AG) (AU) (AU) (AU)
                 (AG) (AU) (AU) (AU) (AG) (AG) (AG) (AU) (AU) (AG)
                 (AG) (AU)
 Initial guess <Sx>= 0.0000 <Sy>= 0.0000 <Sz>= 0.5000 <S**2>= 0.7532 S= 0.5016
 ExpMin= 1.22D-01 ExpMax= 1.24D+03 ExpMxC= 1.86D+02 IAcc=3 IRadAn=         5 AccDes= 0.00D+00
 Harris functional with IExCor= 4639 and IRadAn=       5 diagonalized for initial guess.
 HarFok:  IExCor= 4639 AccDes= 0.00D+00 IRadAn=         5 IDoV= 1 UseB2=F ITyADJ=14
 ICtDFT=  3500011 ScaDFX=  1.000000  1.000000  1.000000  1.000000
 FoFCou: FMM=F IPFlag=           0 FMFlag=      100000 FMFlg1=           0
         NFxFlg=           0 DoJE=T BraDBF=F KetDBF=T FulRan=T
         wScrn=  0.000000 ICntrl=       500 IOpCl=  0 I1Cent=   200000004 NGrid=           0
         NMat0=    1 NMatS0=      1 NMatT0=    0 NMatD0=    1 NMtDS0=    0 NMtDT0=    0
 Petite list used in FoFCou.
     Accept linear search using points  3 and  4.
     Minimum is close to point  2 DX=  3.62D-03 DF= -1.77D-09 DXR=  3.61D-03 DFR=  1.30D-05 which will be used.
     Minimum is close to point  2 DX=  2.53D-05 DF=  0.00D+00 DXR=  2.53D-05 DFR=  0.00D+00 which will be used.
 SCF Done:  E(UwB97XD) =  -79.2974224592     a.u. after    4 cycles
            Convg  =    0.4340D-07                    26 Fock formations.
              S**2 =  0.7532                  -V/T =  2.0111
 <Sx>= 0.0000 <Sy>= 0.0000 <Sz>= 0.5000 <S**2>= 0.7532 S= 0.5016
 <L.S>=  0.00000000000    
 Annihilation of the first spin contaminant:
 S**2 before annihilation     0.7532,   after     0.7500
   2 Symmetry operations used in ECPInt.
 ECPInt:  NShTT=     300 NPrTT=    1220 LenC2=     301 LenP2D=    1136.
 LDataN:  DoStor=T MaxTD1= 5 Len=  102
 Calling FoFJK, ICntrl=      2127 FMM=F ISym2X=1 I1Cent= 0 IOpClX= 1 NMat=1 NMatS=1 NMatT=0.

 GradGradGradGradGradGradGradGradGradGradGradGradGradGradGradGradGradGrad
 Using GEDIIS/GDIIS optimizer.
 FormGI is forming the generalized inverse of G from B-inverse, IUseBI=4.
 Internal  Forces:  Max     0.012416882 RMS     0.005896160
 Step number   2 out of a maximum of   38
 All quantities printed in internal units (Hartrees-Bohrs-Radians)
 Mixed Optimization -- RFO/linear search
 Trust test= 1.07D+00 RLast= 3.89D-01 DXMaxT set to 5.05D-01
 ITU=  1  0
 Use linear search instead of GDIIS.
     Eigenvalues ---    0.00429   0.04971   0.05180   0.05416   0.05416
     Eigenvalues ---    0.12657   0.16000   0.16000   0.16000   0.16000
     Eigenvalues ---    0.16127   0.30805   0.33240   0.33262   0.33262
     Eigenvalues ---    0.33262   0.33262   0.37623
 Quartic linear search produced a step of  0.60931.
 Iteration  1 RMS(Cart)=  0.07112314 RMS(Int)=  0.00349170
 Iteration  2 RMS(Cart)=  0.00317781 RMS(Int)=  0.00154110
 Iteration  3 RMS(Cart)=  0.00000414 RMS(Int)=  0.00154110
 Iteration  4 RMS(Cart)=  0.00000001 RMS(Int)=  0.00154110
 ClnCor:  largest displacement from symmetrization is 2.70D-09 for atom     8.
 Variable       Old X    -DE/DX   Delta X   Delta X   Delta X     New X
                                 (Linear)    (Quad)   (Total)
    R1        2.76737  -0.00691  -0.07028   0.03997  -0.03031   2.73706
    R2        2.11184   0.00095   0.01578  -0.01245   0.00332   2.11516
    R3        2.16234   0.00488   0.04656  -0.02693   0.01963   2.18197
    R4        2.11178   0.00095   0.01575  -0.01240   0.00334   2.11513
    R5        2.11178   0.00095   0.01575  -0.01240   0.00334   2.11513
    R6        2.16234   0.00488   0.04656  -0.02693   0.01963   2.18197
    R7        2.11184   0.00095   0.01578  -0.01245   0.00332   2.11516
    A1        1.94184  -0.00049  -0.00109   0.01101   0.00817   1.95001
    A2        1.99973   0.01242   0.03419   0.04905   0.08458   2.08431
    A3        1.94189  -0.00049  -0.00108   0.01105   0.00824   1.95012
    A4        1.79133  -0.00899  -0.05189  -0.05497  -0.10552   1.68581
    A5        1.98960   0.00614   0.06890   0.03231   0.09753   2.08713
    A6        1.79142  -0.00899  -0.05185  -0.05488  -0.10538   1.68604
    A7        1.94189  -0.00049  -0.00108   0.01105   0.00824   1.95012
    A8        1.99973   0.01242   0.03419   0.04905   0.08458   2.08431
    A9        1.94184  -0.00049  -0.00109   0.01101   0.00817   1.95001
   A10        1.79142  -0.00899  -0.05185  -0.05488  -0.10538   1.68604
   A11        1.98960   0.00614   0.06890   0.03231   0.09753   2.08713
   A12        1.79133  -0.00899  -0.05189  -0.05497  -0.10552   1.68581
    D1        0.90252  -0.00745  -0.08813  -0.06101  -0.15148   0.75104
    D2       -1.11961  -0.00373  -0.04410  -0.03058  -0.07586  -1.19547
    D3        3.14159   0.00000   0.00000  -0.00000   0.00000   3.14159
    D4       -1.11946  -0.00372  -0.04403  -0.03042  -0.07562  -1.19508
    D5        3.14159  -0.00000   0.00000  -0.00000   0.00000   3.14159
    D6        1.11961   0.00373   0.04410   0.03058   0.07586   1.19547
    D7        3.14159   0.00000   0.00000   0.00000   0.00000   3.14159
    D8        1.11946   0.00372   0.04403   0.03042   0.07562   1.19508
    D9       -0.90252   0.00745   0.08813   0.06101   0.15148  -0.75104
         Item               Value     Threshold  Converged?
 Maximum Force            0.012417     0.000015     NO 
 RMS     Force            0.005896     0.000010     NO 
 Maximum Displacement     0.168039     0.000060     NO 
 RMS     Displacement     0.072147     0.000040     NO 
 GradGradGradGradGradGradGradGradGradGradGradGradGradGradGradGradGradGrad

                    Distance matrix (angstroms):
                    1          2          3          4          5
     1  C    0.000000
     2  C    1.448390   0.000000
     3  H    1.119294   2.133296   0.000000
     4  H    1.154647   2.252582   1.697840   0.000000
     5  H    1.119276   2.133359   1.934580   1.697999   0.000000
     6  H    2.133359   1.119276   2.401528   2.688922   3.083855
     7  H    2.252582   1.154647   2.688979   3.273658   2.688922
     8  H    2.133296   1.119294   3.083781   2.688979   2.401528
                    6          7          8
     6  H    0.000000
     7  H    1.697999   0.000000
     8  H    1.934580   1.697840   0.000000
 Framework group  CI[X(C2H6)]
 Deg. of freedom     9
                         Standard orientation:                         
 ---------------------------------------------------------------------
 Center     Atomic      Atomic             Coordinates (Angstroms)
 Number     Number       Type             X           Y           Z
 ---------------------------------------------------------------------
      1          6           0        0.724060    0.001536   -0.013928
      2          6           0       -0.724060   -0.001536    0.013928
      3          1           0        1.131011   -0.918639   -0.504325
      4          1           0        1.310623   -0.104871    0.974925
      5          1           0        1.131014    1.004868   -0.297639
      6          1           0       -1.131014   -1.004868    0.297639
      7          1           0       -1.310623    0.104871   -0.974925
      8          1           0       -1.131011    0.918639    0.504325
 ---------------------------------------------------------------------
 Rotational constants (GHZ):          79.5070229          21.2345747          20.2255276
    40 basis functions,    74 primitive gaussians,    42 cartesian basis functions
     9 alpha electrons        8 beta electrons
       nuclear repulsion energy        42.2979270704 Hartrees.
 NAtoms=    8 NActive=    8 NUniq=    4 SFac= 4.00D+00 NAtFMM=   60 NAOKFM=F Big=F
 Nuclear repulsion after empirical dispersion term =       42.2961324736 Hartrees.
   2 Symmetry operations used in ECPInt.
 ECPInt:  NShTT=     300 NPrTT=    1220 LenC2=     301 LenP2D=    1136.
 LDataN:  DoStor=T MaxTD1= 4 Len=   56
 Initial guess from the checkpoint file:  "7.chk"
 B after Tr=     0.000000   -0.000000    0.000000
         Rot=    1.000000   -0.000000   -0.000916   -0.000103 Ang=  -0.11 deg.
 Initial guess orbital symmetries:
 Alpha Orbitals:
       Occupied  (AG) (AU) (AG) (AU) (AU) (AU) (AG) (AG) (AG)
       Virtual   (AG) (AU) (AU) (AU) (AG) (AG) (AU) (AU) (AG) (AU)
                 (AG) (AG) (AU) (AG) (AG) (AU) (AU) (AU) (AG) (AG)
                 (AU) (AU) (AU) (AG) (AG) (AG) (AU) (AU) (AG) (AG)
                 (AU)
 Beta  Orbitals:
       Occupied  (AG) (AU) (AG) (AU) (AU) (AU) (AG) (AG)
       Virtual   (AG) (AG) (AU) (AU) (AU) (AG) (AG) (AU) (AU) (AG)
                 (AU) (AG) (AG) (AU) (AG) (AG) (AU) (AU) (AU) (AG)
                 (AG) (AU) (AU) (AU) (AG) (AG) (AG) (AU) (AU) (AG)
                 (AG) (AU)
 Initial guess <Sx>= 0.0000 <Sy>= 0.0000 <Sz>= 0.5000 <S**2>= 0.7532 S= 0.5016
 ExpMin= 1.22D-01 ExpMax= 1.24D+03 ExpMxC= 1.86D+02 IAcc=3 IRadAn=         5 AccDes= 0.00D+00
 Harris functional with IExCor= 4639 and IRadAn=       5 diagonalized for initial guess.
 HarFok:  IExCor= 4639 AccDes= 0.00D+00 IRadAn=         5 IDoV= 1 UseB2=F ITyADJ=14
 ICtDFT=  3500011 ScaDFX=  1.000000  1.000000  1.000000  1.000000
 FoFCou: FMM=F IPFlag=           0 FMFlag=      100000 FMFlg1=           0
         NFxFlg=           0 DoJE=T BraDBF=F KetDBF=T FulRan=T
         wScrn=  0.000000 ICntrl=       500 IOpCl=  0 I1Cent=   200000004 NGrid=           0
         NMat0=    1 NMatS0=      1 NMatT0=    0 NMatD0=    1 NMtDS0=    0 NMtDT0=    0
 Petite list used in FoFCou.
     Minimum is close to point  4 DX=  5.11D-04 DF= -2.15D-10 DXR=  4.26D-04 DFR=  1.81D-07 which will be used.
     Minimum is close to point  2 DX=  4.54D-03 DF= -1.89D-09 DXR=  4.52D-03 DFR=  2.04D-05 which will be used.
 SCF Done:  E(UwB97XD) =  -79.3033129391     a.u. after    4 cycles
            Convg  =    0.1503D-07                    25 Fock formations.
              S**2 =  0.7531                  -V/T =  2.0113
 <Sx>= 0.0000 <Sy>= 0.0000 <Sz>= 0.5000 <S**2>= 0.7531 S= 0.5016
 <L.S>=  0.00000000000    
 Annihilation of the first spin contaminant:
 S**2 before annihilation     0.7531,   after     0.7500
   2 Symmetry operations used in ECPInt.
 ECPInt:  NShTT=     300 NPrTT=    1220 LenC2=     301 LenP2D=    1136.
 LDataN:  DoStor=T MaxTD1= 5 Len=  102
 Calling FoFJK, ICntrl=      2127 FMM=F ISym2X=1 I1Cent= 0 IOpClX= 1 NMat=1 NMatS=1 NMatT=0.

 GradGradGradGradGradGradGradGradGradGradGradGradGradGradGradGradGradGrad
 Using GEDIIS/GDIIS optimizer.
 FormGI is forming the generalized inverse of G from B-inverse, IUseBI=4.
 Internal  Forces:  Max     0.003194224 RMS     0.001219656
 Step number   3 out of a maximum of   38
 All quantities printed in internal units (Hartrees-Bohrs-Radians)
 Mixed Optimization -- RFO/linear search
 Trust test= 9.99D-01 RLast= 3.86D-01 DXMaxT set to 8.49D-01
 ITU=  1  1  0
 Use linear search instead of GDIIS.
     Eigenvalues ---    0.00429   0.04658   0.04673   0.05113   0.05113
     Eigenvalues ---    0.12324   0.16000   0.16000   0.16000   0.16000
     Eigenvalues ---    0.16137   0.30841   0.33258   0.33262   0.33262
     Eigenvalues ---    0.33262   0.33262   0.38791
 Quartic linear search produced a step of  0.07060.
 Iteration  1 RMS(Cart)=  0.00855093 RMS(Int)=  0.00012037
 Iteration  2 RMS(Cart)=  0.00003717 RMS(Int)=  0.00011503
 Iteration  3 RMS(Cart)=  0.00000000 RMS(Int)=  0.00011503
 ClnCor:  largest displacement from symmetrization is 6.69D-09 for atom     7.
 Variable       Old X    -DE/DX   Delta X   Delta X   Delta X     New X
                                 (Linear)    (Quad)   (Total)
    R1        2.73706   0.00318  -0.00214   0.01122   0.00908   2.74614
    R2        2.11516  -0.00103   0.00023  -0.00303  -0.00280   2.11236
    R3        2.18197  -0.00319   0.00139  -0.01014  -0.00875   2.17322
    R4        2.11513  -0.00104   0.00024  -0.00307  -0.00283   2.11229
    R5        2.11513  -0.00104   0.00024  -0.00307  -0.00283   2.11229
    R6        2.18197  -0.00319   0.00139  -0.01014  -0.00875   2.17322
    R7        2.11516  -0.00103   0.00023  -0.00303  -0.00280   2.11236
    A1        1.95001  -0.00001   0.00058   0.00118   0.00162   1.95163
    A2        2.08431   0.00087   0.00597  -0.00291   0.00315   2.08746
    A3        1.95012  -0.00001   0.00058   0.00119   0.00163   1.95175
    A4        1.68581  -0.00076  -0.00745  -0.00335  -0.01071   1.67510
    A5        2.08713   0.00061   0.00689   0.00566   0.01226   2.09939
    A6        1.68604  -0.00075  -0.00744  -0.00330  -0.01065   1.67539
    A7        1.95012  -0.00001   0.00058   0.00119   0.00163   1.95175
    A8        2.08431   0.00087   0.00597  -0.00291   0.00315   2.08746
    A9        1.95001  -0.00001   0.00058   0.00118   0.00162   1.95163
   A10        1.68604  -0.00075  -0.00744  -0.00330  -0.01065   1.67539
   A11        2.08713   0.00061   0.00689   0.00566   0.01226   2.09939
   A12        1.68581  -0.00076  -0.00745  -0.00335  -0.01071   1.67510
    D1        0.75104  -0.00088  -0.01070  -0.01075  -0.02162   0.72943
    D2       -1.19547  -0.00044  -0.00536  -0.00541  -0.01085  -1.20632
    D3        3.14159   0.00000   0.00000   0.00000  -0.00000   3.14159
    D4       -1.19508  -0.00044  -0.00534  -0.00534  -0.01077  -1.20585
    D5        3.14159   0.00000   0.00000   0.00000   0.00000   3.14159
    D6        1.19547   0.00044   0.00536   0.00541   0.01085   1.20632
    D7        3.14159   0.00000   0.00000   0.00000   0.00000   3.14159
    D8        1.19508   0.00044   0.00534   0.00534   0.01077   1.20585
    D9       -0.75104   0.00088   0.01070   0.01075   0.02162  -0.72943
         Item               Value     Threshold  Converged?
 Maximum Force            0.003194     0.000015     NO 
 RMS     Force            0.001220     0.000010     NO 
 Maximum Displacement     0.018121     0.000060     NO 
 RMS     Displacement     0.008544     0.000040     NO 
 GradGradGradGradGradGradGradGradGradGradGradGradGradGradGradGradGradGrad

                    Distance matrix (angstroms):
                    1          2          3          4          5
     1  C    0.000000
     2  C    1.453195   0.000000
     3  H    1.117814   2.137488   0.000000
     4  H    1.150017   2.255085   1.685151   0.000000
     5  H    1.117776   2.137542   1.938866   1.685338   0.000000
     6  H    2.137542   1.117776   2.401228   2.697095   3.086300
     7  H    2.255085   1.150017   2.697183   3.271715   2.697095
     8  H    2.137488   1.117814   3.086251   2.697183   2.401228
                    6          7          8
     6  H    0.000000
     7  H    1.685338   0.000000
     8  H    1.938866   1.685151   0.000000
 Framework group  CI[X(C2H6)]
 Deg. of freedom     9
                         Standard orientation:                         
 ---------------------------------------------------------------------
 Center     Atomic      Atomic             Coordinates (Angstroms)
 Number     Number       Type             X           Y           Z
 ---------------------------------------------------------------------
      1          6           0        0.726418    0.001770   -0.016039
      2          6           0       -0.726418   -0.001770    0.016039
      3          1           0        1.133646   -0.921616   -0.496696
      4          1           0        1.316576   -0.103855    0.965336
      5          1           0        1.133631    1.006154   -0.289565
      6          1           0       -1.133631   -1.006154    0.289565
      7          1           0       -1.316576    0.103855   -0.965336
      8          1           0       -1.133646    0.921616    0.496696
 ---------------------------------------------------------------------
 Rotational constants (GHZ):          80.0598748          21.1671644          20.1023206
    40 basis functions,    74 primitive gaussians,    42 cartesian basis functions
     9 alpha electrons        8 beta electrons
       nuclear repulsion energy        42.2825699033 Hartrees.
 NAtoms=    8 NActive=    8 NUniq=    4 SFac= 4.00D+00 NAtFMM=   60 NAOKFM=F Big=F
 Nuclear repulsion after empirical dispersion term =       42.2807845167 Hartrees.
   2 Symmetry operations used in ECPInt.
 ECPInt:  NShTT=     300 NPrTT=    1220 LenC2=     301 LenP2D=    1136.
 LDataN:  DoStor=T MaxTD1= 4 Len=   56
 Initial guess from the checkpoint file:  "7.chk"
 B after Tr=    -0.000000   -0.000000    0.000000
         Rot=    1.000000   -0.000000   -0.000429   -0.000048 Ang=  -0.05 deg.
 Initial guess orbital symmetries:
 Alpha Orbitals:
       Occupied  (AG) (AU) (AG) (AU) (AU) (AU) (AG) (AG) (AG)
       Virtual   (AG) (AU) (AU) (AU) (AG) (AG) (AU) (AU) (AG) (AU)
                 (AG) (AG) (AU) (AG) (AG) (AU) (AU) (AU) (AG) (AG)
                 (AU) (AU) (AU) (AG) (AG) (AG) (AU) (AU) (AG) (AG)
                 (AU)
 Beta  Orbitals:
       Occupied  (AG) (AU) (AG) (AU) (AU) (AG) (AU) (AG)
       Virtual   (AG) (AG) (AU) (AU) (AU) (AG) (AG) (AU) (AU) (AG)
                 (AU) (AG) (AG) (AU) (AG) (AG) (AU) (AU) (AU) (AG)
                 (AG) (AU) (AU) (AU) (AG) (AG) (AG) (AU) (AU) (AG)
                 (AG) (AU)
 Initial guess <Sx>= 0.0000 <Sy>= 0.0000 <Sz>= 0.5000 <S**2>= 0.7531 S= 0.5016
     Minimum is close to point  2 DX=  2.37D-04 DF= -1.82D-12 DXR=  2.37D-04 DFR=  5.62D-08 which will be used.
 SCF Done:  E(UwB97XD) =  -79.3034237128     a.u. after    3 cycles
            Convg  =    0.6721D-08                    20 Fock formations.
              S**2 =  0.7531                  -V/T =  2.0112
 <Sx>= 0.0000 <Sy>= 0.0000 <Sz>= 0.5000 <S**2>= 0.7531 S= 0.5015
 <L.S>=  0.00000000000    
 Annihilation of the first spin contaminant:
 S**2 before annihilation     0.7531,   after     0.7500
   2 Symmetry operations used in ECPInt.
 ECPInt:  NShTT=     300 NPrTT=    1220 LenC2=     301 LenP2D=    1136.
 LDataN:  DoStor=T MaxTD1= 5 Len=  102
 Calling FoFJK, ICntrl=      2127 FMM=F ISym2X=1 I1Cent= 0 IOpClX= 1 NMat=1 NMatS=1 NMatT=0.

 GradGradGradGradGradGradGradGradGradGradGradGradGradGradGradGradGradGrad
 Using GEDIIS/GDIIS optimizer.
 FormGI is forming the generalized inverse of G from B-inverse, IUseBI=4.
 Internal  Forces:  Max     0.001023302 RMS     0.000335862
 Step number   4 out of a maximum of   38
 All quantities printed in internal units (Hartrees-Bohrs-Radians)
 Mixed Optimization -- En-DIIS/RFO-DIIS
 Trust test= 1.04D+00 RLast= 4.96D-02 DXMaxT set to 8.49D-01
 ITU=  1  1  1  0
 Use linear search instead of GDIIS.
     Eigenvalues ---    0.00429   0.04583   0.05086   0.05121   0.05122
     Eigenvalues ---    0.11793   0.16000   0.16000   0.16000   0.16000
     Eigenvalues ---    0.16362   0.30859   0.33094   0.33262   0.33262
     Eigenvalues ---    0.33262   0.33262   0.35459
 Quartic linear search produced a step of  0.07837.
 Iteration  1 RMS(Cart)=  0.00189226 RMS(Int)=  0.00000311
 Iteration  2 RMS(Cart)=  0.00000137 RMS(Int)=  0.00000284
 Iteration  3 RMS(Cart)=  0.00000000 RMS(Int)=  0.00000284
 ClnCor:  largest displacement from symmetrization is 8.23D-09 for atom     6.
 Variable       Old X    -DE/DX   Delta X   Delta X   Delta X     New X
                                 (Linear)    (Quad)   (Total)
    R1        2.74614  -0.00041   0.00071  -0.00211  -0.00140   2.74474
    R2        2.11236  -0.00027  -0.00022  -0.00070  -0.00091   2.11145
    R3        2.17322  -0.00102  -0.00069  -0.00282  -0.00351   2.16971
    R4        2.11229  -0.00027  -0.00022  -0.00070  -0.00093   2.11136
    R5        2.11229  -0.00027  -0.00022  -0.00070  -0.00093   2.11136
    R6        2.17322  -0.00102  -0.00069  -0.00282  -0.00351   2.16971
    R7        2.11236  -0.00027  -0.00022  -0.00070  -0.00091   2.11145
    A1        1.95163  -0.00027   0.00013  -0.00199  -0.00187   1.94976
    A2        2.08746   0.00018   0.00025   0.00157   0.00182   2.08929
    A3        1.95175  -0.00026   0.00013  -0.00196  -0.00183   1.94992
    A4        1.67510   0.00009  -0.00084   0.00095   0.00011   1.67522
    A5        2.09939   0.00032   0.00096   0.00169   0.00264   2.10203
    A6        1.67539   0.00010  -0.00083   0.00100   0.00017   1.67556
    A7        1.95175  -0.00026   0.00013  -0.00196  -0.00183   1.94992
    A8        2.08746   0.00018   0.00025   0.00157   0.00182   2.08929
    A9        1.95163  -0.00027   0.00013  -0.00199  -0.00187   1.94976
   A10        1.67539   0.00010  -0.00083   0.00100   0.00017   1.67556
   A11        2.09939   0.00032   0.00096   0.00169   0.00264   2.10203
   A12        1.67510   0.00009  -0.00084   0.00095   0.00011   1.67522
    D1        0.72943   0.00008  -0.00169   0.00161  -0.00009   0.72933
    D2       -1.20632   0.00004  -0.00085   0.00075  -0.00010  -1.20641
    D3        3.14159  -0.00000   0.00000   0.00000  -0.00000   3.14159
    D4       -1.20585   0.00004  -0.00084   0.00085   0.00001  -1.20585
    D5        3.14159  -0.00000   0.00000   0.00000   0.00000   3.14159
    D6        1.20632  -0.00004   0.00085  -0.00075   0.00010   1.20641
    D7        3.14159   0.00000   0.00000   0.00000   0.00000   3.14159
    D8        1.20585  -0.00004   0.00084  -0.00085  -0.00001   1.20585
    D9       -0.72943  -0.00008   0.00169  -0.00161   0.00009  -0.72933
         Item               Value     Threshold  Converged?
 Maximum Force            0.001023     0.000015     NO 
 RMS     Force            0.000336     0.000010     NO 
 Maximum Displacement     0.003944     0.000060     NO 
 RMS     Displacement     0.001892     0.000040     NO 
 GradGradGradGradGradGradGradGradGradGradGradGradGradGradGradGradGradGrad

                    Distance matrix (angstroms):
                    1          2          3          4          5
     1  C    0.000000
     2  C    1.452455   0.000000
     3  H    1.117330   2.135146   0.000000
     4  H    1.148161   2.254056   1.683488   0.000000
     5  H    1.117286   2.135222   1.939487   1.683713   0.000000
     6  H    2.135222   1.117286   2.396568   2.694816   3.083079
     7  H    2.254056   1.148161   2.694914   3.269322   2.694816
     8  H    2.135146   1.117330   3.083006   2.694914   2.396568
                    6          7          8
     6  H    0.000000
     7  H    1.683713   0.000000
     8  H    1.939487   1.683488   0.000000
 Framework group  CI[X(C2H6)]
 Deg. of freedom     9
                         Standard orientation:                         
 ---------------------------------------------------------------------
 Center     Atomic      Atomic             Coordinates (Angstroms)
 Number     Number       Type             X           Y           Z
 ---------------------------------------------------------------------
      1          6           0        0.726064    0.001706   -0.015324
      2          6           0       -0.726064   -0.001706    0.015324
      3          1           0        1.131559   -0.922038   -0.495632
      4          1           0        1.316101   -0.103723    0.963969
      5          1           0        1.131545    1.006352   -0.288454
      6          1           0       -1.131545   -1.006352    0.288454
      7          1           0       -1.316101    0.103723   -0.963969
      8          1           0       -1.131559    0.922038    0.495632
 ---------------------------------------------------------------------
 Rotational constants (GHZ):          80.1595121          21.2056496          20.1268390
    40 basis functions,    74 primitive gaussians,    42 cartesian basis functions
     9 alpha electrons        8 beta electrons
       nuclear repulsion energy        42.3139534486 Hartrees.
 NAtoms=    8 NActive=    8 NUniq=    4 SFac= 4.00D+00 NAtFMM=   60 NAOKFM=F Big=F
 Nuclear repulsion after empirical dispersion term =       42.3121674529 Hartrees.
   2 Symmetry operations used in ECPInt.
 ECPInt:  NShTT=     300 NPrTT=    1220 LenC2=     301 LenP2D=    1136.
 LDataN:  DoStor=T MaxTD1= 4 Len=   56
 Initial guess from the checkpoint file:  "7.chk"
 B after Tr=     0.000000   -0.000000    0.000000
         Rot=    1.000000   -0.000000    0.000147    0.000013 Ang=  -0.02 deg.
 Initial guess orbital symmetries:
 Alpha Orbitals:
       Occupied  (AG) (AU) (AG) (AU) (AU) (AU) (AG) (AG) (AG)
       Virtual   (AG) (AU) (AU) (AU) (AG) (AG) (AU) (AU) (AG) (AU)
                 (AG) (AG) (AU) (AG) (AG) (AU) (AU) (AU) (AG) (AG)
                 (AU) (AU) (AU) (AG) (AG) (AG) (AU) (AU) (AG) (AG)
                 (AU)
 Beta  Orbitals:
       Occupied  (AG) (AU) (AG) (AU) (AU) (AG) (AU) (AG)
       Virtual   (AG) (AG) (AU) (AU) (AU) (AG) (AG) (AU) (AU) (AG)
                 (AU) (AG) (AG) (AU) (AG) (AG) (AU) (AU) (AU) (AG)
                 (AG) (AU) (AU) (AU) (AG) (AG) (AG) (AU) (AU) (AG)
                 (AG) (AU)
 Initial guess <Sx>= 0.0000 <Sy>= 0.0000 <Sz>= 0.5000 <S**2>= 0.7531 S= 0.5015
     Minimum is close to point  2 DX=  6.35D-04 DF= -1.36D-12 DXR=  6.35D-04 DFR=  4.02D-07 which will be used.
 SCF Done:  E(UwB97XD) =  -79.3034320933     a.u. after    3 cycles
            Convg  =    0.2662D-08                    19 Fock formations.
              S**2 =  0.7530                  -V/T =  2.0111
 <Sx>= 0.0000 <Sy>= 0.0000 <Sz>= 0.5000 <S**2>= 0.7530 S= 0.5015
 <L.S>=  0.00000000000    
 Annihilation of the first spin contaminant:
 S**2 before annihilation     0.7530,   after     0.7500
   2 Symmetry operations used in ECPInt.
 ECPInt:  NShTT=     300 NPrTT=    1220 LenC2=     301 LenP2D=    1136.
 LDataN:  DoStor=T MaxTD1= 5 Len=  102
 Calling FoFJK, ICntrl=      2127 FMM=F ISym2X=1 I1Cent= 0 IOpClX= 1 NMat=1 NMatS=1 NMatT=0.

 GradGradGradGradGradGradGradGradGradGradGradGradGradGradGradGradGradGrad
 Using GEDIIS/GDIIS optimizer.
 FormGI is forming the generalized inverse of G from B-inverse, IUseBI=4.
 Internal  Forces:  Max     0.000573173 RMS     0.000172090
 Step number   5 out of a maximum of   38
 All quantities printed in internal units (Hartrees-Bohrs-Radians)
 Mixed Optimization -- En-DIIS/RFO-DIIS
 Swapping is turned off.
 Trust test= 1.28D+00 RLast= 8.02D-03 DXMaxT set to 8.49D-01
 ITU=  1  1  1  1  0
     Eigenvalues ---    0.00429   0.04599   0.05114   0.05116   0.05567
     Eigenvalues ---    0.07649   0.14067   0.16000   0.16000   0.16000
     Eigenvalues ---    0.16000   0.28684   0.33262   0.33262   0.33262
     Eigenvalues ---    0.33262   0.34588   0.44951
 En-DIIS/RFO-DIIS/Sim-DIIS IScMMF=       -3 using points:     5    4
 RFO step:  Lambda=-7.88304150D-06.
 DidBck=F Rises=F RFO-DIIS coefs:    1.90674   -0.90674
 Iteration  1 RMS(Cart)=  0.00152206 RMS(Int)=  0.00000555
 Iteration  2 RMS(Cart)=  0.00000355 RMS(Int)=  0.00000418
 Iteration  3 RMS(Cart)=  0.00000000 RMS(Int)=  0.00000418
 ClnCor:  largest displacement from symmetrization is 1.12D-08 for atom     8.
 Variable       Old X    -DE/DX   Delta X   Delta X   Delta X     New X
                                 (Linear)    (Quad)   (Total)
    R1        2.74474   0.00057  -0.00127   0.00309   0.00182   2.74656
    R2        2.11145   0.00006  -0.00083   0.00065  -0.00018   2.11127
    R3        2.16971  -0.00029  -0.00318   0.00031  -0.00287   2.16684
    R4        2.11136   0.00005  -0.00084   0.00064  -0.00020   2.11116
    R5        2.11136   0.00005  -0.00084   0.00064  -0.00020   2.11116
    R6        2.16971  -0.00029  -0.00318   0.00031  -0.00287   2.16684
    R7        2.11145   0.00006  -0.00083   0.00065  -0.00018   2.11127
    A1        1.94976  -0.00017  -0.00169  -0.00099  -0.00269   1.94707
    A2        2.08929   0.00018   0.00165   0.00155   0.00320   2.09249
    A3        1.94992  -0.00017  -0.00166  -0.00096  -0.00263   1.94729
    A4        1.67522   0.00007   0.00010   0.00095   0.00106   1.67628
    A5        2.10203   0.00013   0.00239  -0.00071   0.00168   2.10371
    A6        1.67556   0.00007   0.00016   0.00102   0.00118   1.67673
    A7        1.94992  -0.00017  -0.00166  -0.00096  -0.00263   1.94729
    A8        2.08929   0.00018   0.00165   0.00155   0.00320   2.09249
    A9        1.94976  -0.00017  -0.00169  -0.00099  -0.00269   1.94707
   A10        1.67556   0.00007   0.00016   0.00102   0.00118   1.67673
   A11        2.10203   0.00013   0.00239  -0.00071   0.00168   2.10371
   A12        1.67522   0.00007   0.00010   0.00095   0.00106   1.67628
    D1        0.72933   0.00016  -0.00008   0.00310   0.00301   0.73234
    D2       -1.20641   0.00008  -0.00009   0.00150   0.00140  -1.20501
    D3        3.14159   0.00000  -0.00000   0.00000   0.00000   3.14159
    D4       -1.20585   0.00008   0.00001   0.00160   0.00161  -1.20424
    D5        3.14159   0.00000   0.00000   0.00000   0.00000   3.14159
    D6        1.20641  -0.00008   0.00009  -0.00150  -0.00140   1.20501
    D7        3.14159   0.00000   0.00000   0.00000  -0.00000   3.14159
    D8        1.20585  -0.00008  -0.00001  -0.00160  -0.00161   1.20424
    D9       -0.72933  -0.00016   0.00008  -0.00310  -0.00301  -0.73234
         Item               Value     Threshold  Converged?
 Maximum Force            0.000573     0.000015     NO 
 RMS     Force            0.000172     0.000010     NO 
 Maximum Displacement     0.002876     0.000060     NO 
 RMS     Displacement     0.001524     0.000040     NO 
 GradGradGradGradGradGradGradGradGradGradGradGradGradGradGradGradGradGrad

                    Distance matrix (angstroms):
                    1          2          3          4          5
     1  C    0.000000
     2  C    1.453416   0.000000
     3  H    1.117236   2.134009   0.000000
     4  H    1.146642   2.255715   1.683083   0.000000
     5  H    1.117178   2.134122   1.940243   1.683383   0.000000
     6  H    2.134122   1.117178   2.393286   2.694329   3.081024
     7  H    2.255715   1.146642   2.694451   3.270117   2.694329
     8  H    2.134009   1.117236   3.080910   2.694451   2.393286
                    6          7          8
     6  H    0.000000
     7  H    1.683383   0.000000
     8  H    1.940243   1.683083   0.000000
 Framework group  CI[X(C2H6)]
 Deg. of freedom     9
                         Standard orientation:                         
 ---------------------------------------------------------------------
 Center     Atomic      Atomic             Coordinates (Angstroms)
 Number     Number       Type             X           Y           Z
 ---------------------------------------------------------------------
      1          6           0        0.726575    0.001567   -0.013803
      2          6           0       -0.726575   -0.001567    0.013803
      3          1           0        1.130038   -0.922473   -0.495034
      4          1           0        1.316901   -0.103707    0.963552
      5          1           0        1.130024    1.006672   -0.287813
      6          1           0       -1.130024   -1.006672    0.287813
      7          1           0       -1.316901    0.103707   -0.963552
      8          1           0       -1.130038    0.922473    0.495034
 ---------------------------------------------------------------------
 Rotational constants (GHZ):          80.2039660          21.2024995          20.1164685
    40 basis functions,    74 primitive gaussians,    42 cartesian basis functions
     9 alpha electrons        8 beta electrons
       nuclear repulsion energy        42.3156669695 Hartrees.
 NAtoms=    8 NActive=    8 NUniq=    4 SFac= 4.00D+00 NAtFMM=   60 NAOKFM=F Big=F
 Nuclear repulsion after empirical dispersion term =       42.3138796865 Hartrees.
   2 Symmetry operations used in ECPInt.
 ECPInt:  NShTT=     300 NPrTT=    1220 LenC2=     301 LenP2D=    1136.
 LDataN:  DoStor=T MaxTD1= 4 Len=   56
 Initial guess from the checkpoint file:  "7.chk"
 B after Tr=    -0.000000    0.000000   -0.000000
         Rot=    1.000000   -0.000001    0.000319    0.000030 Ang=  -0.04 deg.
 Initial guess orbital symmetries:
 Alpha Orbitals:
       Occupied  (AG) (AU) (AG) (AU) (AU) (AU) (AG) (AG) (AG)
       Virtual   (AG) (AU) (AU) (AU) (AG) (AG) (AU) (AU) (AG) (AU)
                 (AG) (AG) (AU) (AG) (AG) (AU) (AU) (AU) (AG) (AG)
                 (AU) (AU) (AU) (AG) (AG) (AG) (AU) (AU) (AG) (AG)
                 (AU)
 Beta  Orbitals:
       Occupied  (AG) (AU) (AG) (AU) (AU) (AG) (AU) (AG)
       Virtual   (AG) (AG) (AU) (AU) (AU) (AG) (AG) (AU) (AU) (AG)
                 (AU) (AG) (AG) (AU) (AG) (AG) (AU) (AU) (AU) (AG)
                 (AG) (AU) (AU) (AU) (AG) (AG) (AG) (AU) (AU) (AG)
                 (AG) (AU)
 Initial guess <Sx>= 0.0000 <Sy>= 0.0000 <Sz>= 0.5000 <S**2>= 0.7530 S= 0.5015
     Accept linear search using points  1 and  2.
     Minimum is close to point  2 DX= -9.90D-05 DF= -5.68D-14 DXR=  9.90D-05 DFR=  8.93D-09 which will be used.
 SCF Done:  E(UwB97XD) =  -79.3034383368     a.u. after    3 cycles
            Convg  =    0.5401D-08                    18 Fock formations.
              S**2 =  0.7530                  -V/T =  2.0111
 <Sx>= 0.0000 <Sy>= 0.0000 <Sz>= 0.5000 <S**2>= 0.7530 S= 0.5015
 <L.S>=  0.00000000000    
 Annihilation of the first spin contaminant:
 S**2 before annihilation     0.7530,   after     0.7500
   2 Symmetry operations used in ECPInt.
 ECPInt:  NShTT=     300 NPrTT=    1220 LenC2=     301 LenP2D=    1136.
 LDataN:  DoStor=T MaxTD1= 5 Len=  102
 Calling FoFJK, ICntrl=      2127 FMM=F ISym2X=1 I1Cent= 0 IOpClX= 1 NMat=1 NMatS=1 NMatT=0.

 GradGradGradGradGradGradGradGradGradGradGradGradGradGradGradGradGradGrad
 Using GEDIIS/GDIIS optimizer.
 FormGI is forming the generalized inverse of G from B-inverse, IUseBI=4.
 Internal  Forces:  Max     0.000458748 RMS     0.000147339
 Step number   6 out of a maximum of   38
 All quantities printed in internal units (Hartrees-Bohrs-Radians)
 Mixed Optimization -- En-DIIS/RFO-DIIS
 Swapping is turned off.
 Trust test= 1.59D+00 RLast= 1.03D-02 DXMaxT set to 8.49D-01
 ITU=  1  1  1  1  1  0
     Eigenvalues ---    0.00429   0.02094   0.04629   0.05100   0.05100
     Eigenvalues ---    0.07334   0.14457   0.16000   0.16000   0.16000
     Eigenvalues ---    0.16000   0.31539   0.33262   0.33262   0.33262
     Eigenvalues ---    0.33262   0.36436   0.57960
 En-DIIS/RFO-DIIS/Sim-DIIS IScMMF=       -3 using points:     6    5    4
 RFO step:  Lambda=-1.13829319D-05.
 DidBck=F Rises=F RFO-DIIS coefs:    2.53784   -2.00000    0.46216
 Iteration  1 RMS(Cart)=  0.00351801 RMS(Int)=  0.00003437
 Iteration  2 RMS(Cart)=  0.00002187 RMS(Int)=  0.00002628
 Iteration  3 RMS(Cart)=  0.00000000 RMS(Int)=  0.00002628
 ClnCor:  largest displacement from symmetrization is 2.32D-08 for atom     6.
 Variable       Old X    -DE/DX   Delta X   Delta X   Delta X     New X
                                 (Linear)    (Quad)   (Total)
    R1        2.74656   0.00046   0.00344   0.00030   0.00374   2.75030
    R2        2.11127   0.00017   0.00015   0.00030   0.00045   2.11172
    R3        2.16684   0.00013  -0.00279  -0.00091  -0.00370   2.16314
    R4        2.11116   0.00016   0.00012   0.00025   0.00037   2.11153
    R5        2.11116   0.00016   0.00012   0.00025   0.00037   2.11153
    R6        2.16684   0.00013  -0.00279  -0.00091  -0.00370   2.16314
    R7        2.11127   0.00017   0.00015   0.00030   0.00045   2.11172
    A1        1.94707  -0.00014  -0.00328  -0.00303  -0.00634   1.94073
    A2        2.09249   0.00017   0.00408   0.00378   0.00789   2.10037
    A3        1.94729  -0.00014  -0.00319  -0.00293  -0.00615   1.94114
    A4        1.67628   0.00006   0.00158   0.00150   0.00310   1.67938
    A5        2.10371   0.00008   0.00136   0.00110   0.00240   2.10611
    A6        1.67673   0.00006   0.00173   0.00169   0.00343   1.68016
    A7        1.94729  -0.00014  -0.00319  -0.00293  -0.00615   1.94114
    A8        2.09249   0.00017   0.00408   0.00378   0.00789   2.10037
    A9        1.94707  -0.00014  -0.00328  -0.00303  -0.00634   1.94073
   A10        1.67673   0.00006   0.00173   0.00169   0.00343   1.68016
   A11        2.10371   0.00008   0.00136   0.00110   0.00240   2.10611
   A12        1.67628   0.00006   0.00158   0.00150   0.00310   1.67938
    D1        0.73234   0.00017   0.00467   0.00450   0.00914   0.74148
    D2       -1.20501   0.00008   0.00221   0.00209   0.00427  -1.20074
    D3        3.14159   0.00000   0.00000   0.00000   0.00000   3.14159
    D4       -1.20424   0.00009   0.00247   0.00242   0.00487  -1.19937
    D5        3.14159  -0.00000   0.00000  -0.00000   0.00000   3.14159
    D6        1.20501  -0.00008  -0.00221  -0.00209  -0.00427   1.20074
    D7        3.14159  -0.00000  -0.00000  -0.00000   0.00000  -3.14159
    D8        1.20424  -0.00009  -0.00247  -0.00242  -0.00487   1.19937
    D9       -0.73234  -0.00017  -0.00467  -0.00450  -0.00914  -0.74148
         Item               Value     Threshold  Converged?
 Maximum Force            0.000459     0.000015     NO 
 RMS     Force            0.000147     0.000010     NO 
 Maximum Displacement     0.007248     0.000060     NO 
 RMS     Displacement     0.003528     0.000040     NO 
 GradGradGradGradGradGradGradGradGradGradGradGradGradGradGradGradGradGrad

                    Distance matrix (angstroms):
                    1          2          3          4          5
     1  C    0.000000
     2  C    1.455396   0.000000
     3  H    1.117473   2.131420   0.000000
     4  H    1.144684   2.260901   1.684129   0.000000
     5  H    1.117372   2.131635   1.941942   1.684648   0.000000
     6  H    2.131635   1.117372   2.386371   2.694095   3.076784
     7  H    2.260901   1.144684   2.694290   3.275022   2.694095
     8  H    2.131420   1.117473   3.076559   2.694290   2.386371
                    6          7          8
     6  H    0.000000
     7  H    1.684648   0.000000
     8  H    1.941942   1.684129   0.000000
 Framework group  CI[X(C2H6)]
 Deg. of freedom     9
                         Standard orientation:                         
 ---------------------------------------------------------------------
 Center     Atomic      Atomic             Coordinates (Angstroms)
 Number     Number       Type             X           Y           Z
 ---------------------------------------------------------------------
      1          6           0        0.727629    0.001226   -0.009967
      2          6           0       -0.727629   -0.001226    0.009967
      3          1           0        1.126612   -0.923370   -0.494404
      4          1           0        1.319464   -0.103864    0.964194
      5          1           0        1.126592    1.007477   -0.287110
      6          1           0       -1.126592   -1.007477    0.287110
      7          1           0       -1.319464    0.103864   -0.964194
      8          1           0       -1.126612    0.923370    0.494404
 ---------------------------------------------------------------------
 Rotational constants (GHZ):          80.2057089          21.1870158          20.0917897
    40 basis functions,    74 primitive gaussians,    42 cartesian basis functions
     9 alpha electrons        8 beta electrons
       nuclear repulsion energy        42.3059918211 Hartrees.
 NAtoms=    8 NActive=    8 NUniq=    4 SFac= 4.00D+00 NAtFMM=   60 NAOKFM=F Big=F
 Nuclear repulsion after empirical dispersion term =       42.3042008554 Hartrees.
   2 Symmetry operations used in ECPInt.
 ECPInt:  NShTT=     300 NPrTT=    1220 LenC2=     301 LenP2D=    1136.
 LDataN:  DoStor=T MaxTD1= 4 Len=   56
 Initial guess from the checkpoint file:  "7.chk"
 B after Tr=     0.000000   -0.000000    0.000000
         Rot=    1.000000   -0.000002    0.000804    0.000073 Ang=  -0.09 deg.
 Initial guess orbital symmetries:
 Alpha Orbitals:
       Occupied  (AG) (AU) (AG) (AU) (AU) (AU) (AG) (AG) (AG)
       Virtual   (AG) (AU) (AU) (AU) (AG) (AG) (AU) (AU) (AG) (AU)
                 (AG) (AG) (AU) (AG) (AG) (AU) (AU) (AU) (AG) (AG)
                 (AU) (AU) (AU) (AG) (AG) (AG) (AU) (AU) (AG) (AG)
                 (AU)
 Beta  Orbitals:
       Occupied  (AG) (AU) (AG) (AU) (AU) (AG) (AU) (AG)
       Virtual   (AG) (AG) (AU) (AU) (AU) (AG) (AG) (AU) (AU) (AG)
                 (AU) (AG) (AG) (AU) (AG) (AG) (AU) (AU) (AU) (AG)
                 (AG) (AU) (AU) (AU) (AG) (AG) (AG) (AU) (AU) (AG)
                 (AG) (AU)
 Initial guess <Sx>= 0.0000 <Sy>= 0.0000 <Sz>= 0.5000 <S**2>= 0.7530 S= 0.5015
     Accept linear search using points  1 and  2.
     Minimum is close to point  2 DX= -6.09D-04 DF= -1.13D-11 DXR=  6.09D-04 DFR=  3.71D-07 which will be used.
 SCF Done:  E(UwB97XD) =  -79.3034462921     a.u. after    3 cycles
            Convg  =    0.2714D-07                    19 Fock formations.
              S**2 =  0.7529                  -V/T =  2.0111
 <Sx>= 0.0000 <Sy>= 0.0000 <Sz>= 0.5000 <S**2>= 0.7529 S= 0.5015
 <L.S>=  0.00000000000    
 Annihilation of the first spin contaminant:
 S**2 before annihilation     0.7529,   after     0.7500
   2 Symmetry operations used in ECPInt.
 ECPInt:  NShTT=     300 NPrTT=    1220 LenC2=     301 LenP2D=    1136.
 LDataN:  DoStor=T MaxTD1= 5 Len=  102
 Calling FoFJK, ICntrl=      2127 FMM=F ISym2X=1 I1Cent= 0 IOpClX= 1 NMat=1 NMatS=1 NMatT=0.

 GradGradGradGradGradGradGradGradGradGradGradGradGradGradGradGradGradGrad
 Using GEDIIS/GDIIS optimizer.
 FormGI is forming the generalized inverse of G from B-inverse, IUseBI=4.
 Internal  Forces:  Max     0.000350070 RMS     0.000131810
 Step number   7 out of a maximum of   38
 All quantities printed in internal units (Hartrees-Bohrs-Radians)
 Mixed Optimization -- En-DIIS/RFO-DIIS
 Swapping is turned off.
 Trust test= 1.48D+00 RLast= 2.51D-02 DXMaxT set to 8.49D-01
 ITU=  1  1  1  1  1  1  0
     Eigenvalues ---    0.00429   0.01542   0.04704   0.05058   0.05059
     Eigenvalues ---    0.07860   0.14505   0.16000   0.16000   0.16000
     Eigenvalues ---    0.16000   0.30852   0.33262   0.33262   0.33262
     Eigenvalues ---    0.33263   0.34344   0.55705
 En-DIIS/RFO-DIIS/Sim-DIIS IScMMF=       -3 using points:     7    6    5    4
 RFO step:  Lambda=-1.99354245D-06.
 DidBck=F Rises=F RFO-DIIS coefs:    1.50757   -0.83285    0.06136    0.26392
 Iteration  1 RMS(Cart)=  0.00119988 RMS(Int)=  0.00000505
 Iteration  2 RMS(Cart)=  0.00000257 RMS(Int)=  0.00000433
 Iteration  3 RMS(Cart)=  0.00000000 RMS(Int)=  0.00000433
 ClnCor:  largest displacement from symmetrization is 1.72D-08 for atom     6.
 Variable       Old X    -DE/DX   Delta X   Delta X   Delta X     New X
                                 (Linear)    (Quad)   (Total)
    R1        2.75030   0.00035   0.00168   0.00014   0.00182   2.75212
    R2        2.11172   0.00016   0.00053   0.00006   0.00059   2.11231
    R3        2.16314   0.00035  -0.00002   0.00026   0.00024   2.16338
    R4        2.11153   0.00015   0.00050   0.00002   0.00052   2.11205
    R5        2.11153   0.00015   0.00050   0.00002   0.00052   2.11205
    R6        2.16314   0.00035  -0.00002   0.00026   0.00024   2.16338
    R7        2.11172   0.00016   0.00053   0.00006   0.00059   2.11231
    A1        1.94073  -0.00004  -0.00185  -0.00018  -0.00204   1.93869
    A2        2.10037   0.00004   0.00248  -0.00018   0.00230   2.10268
    A3        1.94114  -0.00004  -0.00179  -0.00008  -0.00187   1.93927
    A4        1.67938   0.00002   0.00120   0.00005   0.00125   1.68063
    A5        2.10611   0.00001  -0.00003   0.00023   0.00019   2.10630
    A6        1.68016   0.00003   0.00131   0.00021   0.00152   1.68169
    A7        1.94114  -0.00004  -0.00179  -0.00008  -0.00187   1.93927
    A8        2.10037   0.00004   0.00248  -0.00018   0.00230   2.10268
    A9        1.94073  -0.00004  -0.00185  -0.00018  -0.00204   1.93869
   A10        1.68016   0.00003   0.00131   0.00021   0.00152   1.68169
   A11        2.10611   0.00001  -0.00003   0.00023   0.00019   2.10630
   A12        1.67938   0.00002   0.00120   0.00005   0.00125   1.68063
    D1        0.74148   0.00007   0.00368  -0.00008   0.00360   0.74508
    D2       -1.20074   0.00003   0.00174  -0.00018   0.00156  -1.19918
    D3        3.14159  -0.00000  -0.00000   0.00000   0.00000   3.14159
    D4       -1.19937   0.00004   0.00195   0.00010   0.00204  -1.19733
    D5        3.14159  -0.00000   0.00000  -0.00000   0.00000   3.14159
    D6        1.20074  -0.00003  -0.00174   0.00018  -0.00156   1.19918
    D7       -3.14159   0.00000   0.00000  -0.00000  -0.00000   3.14159
    D8        1.19937  -0.00004  -0.00195  -0.00010  -0.00204   1.19733
    D9       -0.74148  -0.00007  -0.00368   0.00008  -0.00360  -0.74508
         Item               Value     Threshold  Converged?
 Maximum Force            0.000350     0.000015     NO 
 RMS     Force            0.000132     0.000010     NO 
 Maximum Displacement     0.002327     0.000060     NO 
 RMS     Displacement     0.001201     0.000040     NO 
 GradGradGradGradGradGradGradGradGradGradGradGradGradGradGradGradGradGrad

                    Distance matrix (angstroms):
                    1          2          3          4          5
     1  C    0.000000
     2  C    1.456358   0.000000
     3  H    1.117784   2.131049   0.000000
     4  H    1.144814   2.263339   1.685402   0.000000
     5  H    1.117647   2.131356   1.942557   1.686095   0.000000
     6  H    2.131356   1.117647   2.384977   2.694664   3.076141
     7  H    2.263339   1.144814   2.694913   3.278051   2.694664
     8  H    2.131049   1.117784   3.075816   2.694913   2.384977
                    6          7          8
     6  H    0.000000
     7  H    1.686095   0.000000
     8  H    1.942557   1.685402   0.000000
 Framework group  CI[X(C2H6)]
 Deg. of freedom     9
                         Standard orientation:                         
 ---------------------------------------------------------------------
 Center     Atomic      Atomic             Coordinates (Angstroms)
 Number     Number       Type             X           Y           Z
 ---------------------------------------------------------------------
      1          6           0        0.728126    0.001154   -0.008736
      2          6           0       -0.728126   -0.001154    0.008736
      3          1           0        1.125805   -0.923638   -0.494588
      4          1           0        1.320620   -0.104038    0.965166
      5          1           0        1.125785    1.007829   -0.287315
      6          1           0       -1.125785   -1.007829    0.287315
      7          1           0       -1.320620    0.104038   -0.965166
      8          1           0       -1.125805    0.923638    0.494588
 ---------------------------------------------------------------------
 Rotational constants (GHZ):          80.1477643          21.1691663          20.0755320
    40 basis functions,    74 primitive gaussians,    42 cartesian basis functions
     9 alpha electrons        8 beta electrons
       nuclear repulsion energy        42.2904459606 Hartrees.
 NAtoms=    8 NActive=    8 NUniq=    4 SFac= 4.00D+00 NAtFMM=   60 NAOKFM=F Big=F
 Nuclear repulsion after empirical dispersion term =       42.2886533676 Hartrees.
   2 Symmetry operations used in ECPInt.
 ECPInt:  NShTT=     300 NPrTT=    1220 LenC2=     301 LenP2D=    1136.
 LDataN:  DoStor=T MaxTD1= 4 Len=   56
 Initial guess from the checkpoint file:  "7.chk"
 B after Tr=     0.000000    0.000000    0.000000
         Rot=    1.000000   -0.000002    0.000259    0.000016 Ang=  -0.03 deg.
 Initial guess orbital symmetries:
 Alpha Orbitals:
       Occupied  (AG) (AU) (AG) (AU) (AU) (AU) (AG) (AG) (AG)
       Virtual   (AG) (AU) (AU) (AU) (AG) (AG) (AU) (AU) (AG) (AU)
                 (AG) (AG) (AU) (AG) (AG) (AU) (AU) (AU) (AG) (AG)
                 (AU) (AU) (AU) (AG) (AG) (AG) (AU) (AU) (AG) (AG)
                 (AU)
 Beta  Orbitals:
       Occupied  (AG) (AU) (AG) (AU) (AU) (AG) (AU) (AG)
       Virtual   (AG) (AG) (AU) (AU) (AU) (AG) (AG) (AU) (AU) (AG)
                 (AU) (AG) (AG) (AU) (AG) (AG) (AU) (AU) (AU) (AG)
                 (AG) (AU) (AU) (AU) (AG) (AG) (AG) (AU) (AU) (AG)
                 (AG) (AU)
 Initial guess <Sx>= 0.0000 <Sy>= 0.0000 <Sz>= 0.5000 <S**2>= 0.7529 S= 0.5015
     Accept linear search using points  1 and  2.
     Minimum is close to point  2 DX= -3.57D-04 DF= -3.69D-13 DXR=  3.57D-04 DFR=  1.28D-07 which will be used.
 SCF Done:  E(UwB97XD) =  -79.3034476688     a.u. after    3 cycles
            Convg  =    0.2037D-08                    18 Fock formations.
              S**2 =  0.7529                  -V/T =  2.0111
 <Sx>= 0.0000 <Sy>= 0.0000 <Sz>= 0.5000 <S**2>= 0.7529 S= 0.5015
 <L.S>=  0.00000000000    
 Annihilation of the first spin contaminant:
 S**2 before annihilation     0.7529,   after     0.7500
   2 Symmetry operations used in ECPInt.
 ECPInt:  NShTT=     300 NPrTT=    1220 LenC2=     301 LenP2D=    1136.
 LDataN:  DoStor=T MaxTD1= 5 Len=  102
 Calling FoFJK, ICntrl=      2127 FMM=F ISym2X=1 I1Cent= 0 IOpClX= 1 NMat=1 NMatS=1 NMatT=0.

 GradGradGradGradGradGradGradGradGradGradGradGradGradGradGradGradGradGrad
 Using GEDIIS/GDIIS optimizer.
 FormGI is forming the generalized inverse of G from B-inverse, IUseBI=4.
 Internal  Forces:  Max     0.000050620 RMS     0.000017249
 Step number   8 out of a maximum of   38
 All quantities printed in internal units (Hartrees-Bohrs-Radians)
 Mixed Optimization -- En-DIIS/RFO-DIIS
 Swapping is turned off.
 Trust test= 1.64D+00 RLast= 8.80D-03 DXMaxT set to 8.49D-01
 ITU=  1  1  1  1  1  1  1  0
     Eigenvalues ---    0.00429   0.01633   0.04730   0.05045   0.05066
     Eigenvalues ---    0.07806   0.13597   0.16000   0.16000   0.16000
     Eigenvalues ---    0.16000   0.27156   0.33223   0.33262   0.33262
     Eigenvalues ---    0.33262   0.33623   0.42434
 En-DIIS/RFO-DIIS/Sim-DIIS IScMMF=       -3 using points:     8    7    6    5    4
 RFO step:  Lambda=-4.20448619D-08.
 DIIS inversion failure, remove point   5.
 DIIS inversion failure, remove point   4.
 RFO-DIIS uses    3 points instead of    5
 DidBck=F Rises=F RFO-DIIS coefs:    1.05304   -0.04542   -0.00762    0.00000    0.00000
 Iteration  1 RMS(Cart)=  0.00013100 RMS(Int)=  0.00000045
 Iteration  2 RMS(Cart)=  0.00000002 RMS(Int)=  0.00000045
 ClnCor:  largest displacement from symmetrization is 6.48D-10 for atom     6.
 Variable       Old X    -DE/DX   Delta X   Delta X   Delta X     New X
                                 (Linear)    (Quad)   (Total)
    R1        2.75212   0.00005   0.00012   0.00011   0.00023   2.75235
    R2        2.11231   0.00002   0.00003   0.00004   0.00007   2.11238
    R3        2.16338   0.00004  -0.00002   0.00008   0.00006   2.16345
    R4        2.11205   0.00000   0.00003  -0.00001   0.00002   2.11206
    R5        2.11205   0.00000   0.00003  -0.00001   0.00002   2.11206
    R6        2.16338   0.00004  -0.00002   0.00008   0.00006   2.16345
    R7        2.11231   0.00002   0.00003   0.00004   0.00007   2.11238
    A1        1.93869  -0.00001  -0.00016  -0.00011  -0.00027   1.93842
    A2        2.10268  -0.00000   0.00018  -0.00004   0.00014   2.10282
    A3        1.93927  -0.00001  -0.00015   0.00001  -0.00014   1.93913
    A4        1.68063   0.00000   0.00009  -0.00008   0.00001   1.68064
    A5        2.10630   0.00001   0.00003   0.00013   0.00016   2.10645
    A6        1.68169   0.00001   0.00011   0.00012   0.00023   1.68192
    A7        1.93927  -0.00001  -0.00015   0.00001  -0.00014   1.93913
    A8        2.10268  -0.00000   0.00018  -0.00004   0.00014   2.10282
    A9        1.93869  -0.00001  -0.00016  -0.00011  -0.00027   1.93842
   A10        1.68169   0.00001   0.00011   0.00012   0.00023   1.68192
   A11        2.10630   0.00001   0.00003   0.00013   0.00016   2.10645
   A12        1.68063   0.00000   0.00009  -0.00008   0.00001   1.68064
    D1        0.74508  -0.00000   0.00026  -0.00008   0.00018   0.74526
    D2       -1.19918  -0.00001   0.00012  -0.00022  -0.00011  -1.19929
    D3        3.14159   0.00000   0.00000  -0.00000  -0.00000   3.14159
    D4       -1.19733   0.00001   0.00015   0.00014   0.00028  -1.19705
    D5        3.14159  -0.00000   0.00000  -0.00000   0.00000   3.14159
    D6        1.19918   0.00001  -0.00012   0.00022   0.00011   1.19929
    D7        3.14159   0.00000  -0.00000  -0.00000   0.00000   3.14159
    D8        1.19733  -0.00001  -0.00015  -0.00014  -0.00028   1.19705
    D9       -0.74508   0.00000  -0.00026   0.00008  -0.00018  -0.74526
         Item               Value     Threshold  Converged?
 Maximum Force            0.000051     0.000015     NO 
 RMS     Force            0.000017     0.000010     NO 
 Maximum Displacement     0.000203     0.000060     NO 
 RMS     Displacement     0.000131     0.000040     NO 
 GradGradGradGradGradGradGradGradGradGradGradGradGradGradGradGradGradGrad

                    Distance matrix (angstroms):
                    1          2          3          4          5
     1  C    0.000000
     2  C    1.456481   0.000000
     3  H    1.117823   2.130995   0.000000
     4  H    1.144846   2.263565   1.685462   0.000000
     5  H    1.117656   2.131370   1.942684   1.686299   0.000000
     6  H    2.131370   1.117656   2.384784   2.694688   3.076109
     7  H    2.263565   1.144846   2.694985   3.278331   2.694688
     8  H    2.130995   1.117823   3.075711   2.694985   2.384784
                    6          7          8
     6  H    0.000000
     7  H    1.686299   0.000000
     8  H    1.942684   1.685462   0.000000
 Framework group  CI[X(C2H6)]
 Deg. of freedom     9
                         Standard orientation:                         
 ---------------------------------------------------------------------
 Center     Atomic      Atomic             Coordinates (Angstroms)
[...]
     7   1    -0.10   0.42   0.19    -0.45  -0.13   0.16     0.22  -0.38  -0.20
     8   1     0.10  -0.15   0.44     0.45   0.21   0.02     0.22  -0.12   0.42
                      4                      5                      6
                     AU                     AG                     AU
 Frequencies --    670.2435               769.9416               786.0126
 Red. masses --      1.0434                 1.2944                 1.0588
 Frc consts  --      0.2762                 0.4521                 0.3854
 IR Inten    --     17.3038                 0.0000               100.6843
  Atom  AN      X      Y      Z        X      Y      Z        X      Y      Z
     1   6    -0.00   0.02   0.04     0.00  -0.05  -0.10     0.02   0.04  -0.02
     2   6    -0.00   0.02   0.04    -0.00   0.05   0.10     0.02   0.04  -0.02
     3   1    -0.41  -0.19  -0.03    -0.05  -0.14   0.23    -0.35  -0.18   0.05
     4   1     0.42   0.12  -0.16     0.05   0.26   0.06    -0.35  -0.16   0.10
     5   1     0.00  -0.11  -0.26    -0.00   0.23   0.53     0.41  -0.11   0.05
     6   1     0.00  -0.11  -0.26     0.00  -0.23  -0.53     0.41  -0.11   0.05
     7   1     0.42   0.12  -0.16    -0.05  -0.26  -0.06    -0.35  -0.16   0.10
     8   1    -0.41  -0.19  -0.03     0.05   0.14  -0.23    -0.35  -0.18   0.05
                      7                      8                      9
                     AG                     AG                     AU
 Frequencies --   1111.7034              1169.8279              1222.6226
 Red. masses --      1.4813                 1.3601                 1.0775
 Frc consts  --      1.0787                 1.0966                 0.9490
 IR Inten    --      0.0000                 0.0000                60.3053
  Atom  AN      X      Y      Z        X      Y      Z        X      Y      Z
     1   6     0.11  -0.09   0.04     0.07   0.10  -0.04     0.00  -0.02  -0.05
     2   6    -0.11   0.09  -0.04    -0.07  -0.10   0.04     0.00  -0.02  -0.05
     3   1     0.45   0.15  -0.10     0.14  -0.05   0.34    -0.17  -0.17   0.11
     4   1     0.45   0.18  -0.04     0.14  -0.27  -0.20     0.16   0.19  -0.05
     5   1    -0.03  -0.04   0.02     0.46  -0.04   0.02    -0.00   0.24   0.55
     6   1     0.03   0.04  -0.02    -0.46   0.04  -0.02    -0.00   0.24   0.55
     7   1    -0.45  -0.18   0.04    -0.14   0.27   0.20     0.16   0.19  -0.05
     8   1    -0.45  -0.15   0.10    -0.14   0.05  -0.34    -0.17  -0.17   0.11
                     10                     11                     12
                     AG                     AU                     AG
 Frequencies --   1312.6529              1402.7908              1517.3760
 Red. masses --      1.4756                 1.1234                 1.4653
 Frc consts  --      1.4980                 1.3025                 1.9878
 IR Inten    --      0.0000                26.2425                 0.0000
  Atom  AN      X      Y      Z        X      Y      Z        X      Y      Z
     1   6     0.14   0.04  -0.02    -0.07  -0.02   0.01     0.14   0.00  -0.00
     2   6    -0.14  -0.04   0.02    -0.07  -0.02   0.01    -0.14  -0.00   0.00
     3   1    -0.21  -0.00  -0.38     0.17   0.20  -0.16    -0.09  -0.22   0.17
     4   1    -0.22   0.28   0.26     0.17   0.25  -0.03    -0.09  -0.27   0.04
     5   1     0.31  -0.01   0.00     0.50  -0.23   0.10    -0.49   0.25  -0.11
     6   1    -0.31   0.01  -0.00     0.50  -0.23   0.10     0.49  -0.25   0.11
     7   1     0.22  -0.28  -0.26     0.17   0.25  -0.03     0.09   0.27  -0.04
     8   1     0.21   0.00   0.38     0.17   0.20  -0.16     0.09   0.22  -0.17
                     13                     14                     15
                     AG                     AU                     AU
 Frequencies --   2539.0451              2604.0874              2638.8153
 Red. masses --      1.0347                 1.0670                 1.0597
 Frc consts  --      3.9300                 4.2630                 4.3476
 IR Inten    --      0.0000               228.9771               721.1318
  Atom  AN      X      Y      Z        X      Y      Z        X      Y      Z
     1   6     0.00  -0.01  -0.03     0.00  -0.02  -0.05    -0.03   0.03  -0.01
     2   6    -0.00   0.01   0.03     0.00  -0.02  -0.05    -0.03   0.03  -0.01
     3   1    -0.24   0.40   0.16    -0.23   0.41   0.17     0.18  -0.38  -0.25
     4   1     0.24  -0.16   0.40     0.23  -0.16   0.41     0.18  -0.08   0.45
     5   1     0.00  -0.03  -0.06     0.00  -0.01  -0.01     0.03   0.08  -0.03
     6   1    -0.00   0.03   0.06     0.00  -0.01  -0.01     0.03   0.08  -0.03
     7   1    -0.24   0.16  -0.40     0.23  -0.16   0.41     0.18  -0.08   0.45
     8   1     0.24  -0.40  -0.16    -0.23   0.41   0.17     0.18  -0.38  -0.25
                     16                     17                     18
                     AG                     AG                     AU
 Frequencies --   2794.4969              3202.0670              3208.1863
 Red. masses --      1.0970                 1.1029                 1.0915
 Frc consts  --      5.0472                 6.6628                 6.6187
 IR Inten    --      0.0000                 0.0000                44.8826
  Atom  AN      X      Y      Z        X      Y      Z        X      Y      Z
     1   6    -0.05   0.04  -0.02    -0.02  -0.06   0.02    -0.02  -0.05   0.02
     2   6     0.05  -0.04   0.02     0.02   0.06  -0.02    -0.02  -0.05   0.02
     3   1     0.22  -0.40  -0.18    -0.03   0.05   0.03    -0.02   0.04   0.03
     4   1     0.22  -0.14   0.42    -0.03   0.02  -0.05    -0.02   0.01  -0.04
     5   1     0.05   0.10  -0.04     0.26   0.60  -0.25     0.27   0.60  -0.25
     6   1    -0.05  -0.10   0.04    -0.26  -0.60   0.25     0.27   0.60  -0.25
     7   1    -0.22   0.14  -0.42     0.03  -0.02   0.05    -0.02   0.01  -0.04
     8   1    -0.22   0.40   0.18     0.03  -0.05  -0.03    -0.02   0.04   0.03
 
 Temperature   298.150 Kelvin.  Pressure   1.00000 Atm.
 Zero-point correction=                           0.063846 (Hartree/Particle)
 Thermal correction to Energy=                    0.068147
 Thermal correction to Enthalpy=                  0.069091
 Thermal correction to Gibbs Free Energy=         0.039690
 Sum of electronic and zero-point Energies=            -79.241652
 Sum of electronic and thermal Energies=               -79.237351
 Sum of electronic and thermal Enthalpies=             -79.236407
 Sum of electronic and thermal Free Energies=          -79.265808
 FormGI is forming the generalized inverse of G from B-inverse, IUseBI=4.

 GradGradGradGradGradGradGradGradGradGradGradGradGradGradGradGradGradGrad
 Internal  Forces:  Max     0.000000697 RMS     0.000000411
 Step number   1 out of a maximum of    2
 All quantities printed in internal units (Hartrees-Bohrs-Radians)
 Second derivative matrix not updated -- analytic derivatives used.
 ITU=  0
     Eigenvalues ---    0.00216   0.00799   0.00830   0.01392   0.03132
     Eigenvalues ---    0.04141   0.07156   0.07761   0.10645   0.11491
     Eigenvalues ---    0.15490   0.24186   0.24352   0.25203   0.27424
     Eigenvalues ---    0.35892   0.36120   0.43345
 Angle between quadratic step and forces=  48.01 degrees.
 Linear search not attempted -- first point.
 Iteration  1 RMS(Cart)=  0.00000499 RMS(Int)=  0.00000000
 Iteration  2 RMS(Cart)=  0.00000000 RMS(Int)=  0.00000000
 ClnCor:  largest displacement from symmetrization is 9.58D-09 for atom     8.
 Variable       Old X    -DE/DX   Delta X   Delta X   Delta X     New X
                                 (Linear)    (Quad)   (Total)
    R1        2.71657   0.00000   0.00000   0.00000   0.00000   2.71657
    R2        2.16918   0.00000   0.00000   0.00000   0.00000   2.16918
    R3        2.16915   0.00000   0.00000  -0.00000  -0.00000   2.16914
    R4        2.07566  -0.00000   0.00000  -0.00000  -0.00000   2.07566
    R5        2.07566  -0.00000   0.00000  -0.00000  -0.00000   2.07566
    R6        2.16915   0.00000   0.00000  -0.00000  -0.00000   2.16914
    R7        2.16918   0.00000   0.00000   0.00000   0.00000   2.16918
    A1        1.96178  -0.00000   0.00000  -0.00001  -0.00001   1.96176
    A2        1.96209  -0.00000   0.00000   0.00000   0.00000   1.96209
    A3        2.06336   0.00000   0.00000   0.00000   0.00000   2.06336
    A4        1.48825   0.00000   0.00000  -0.00000  -0.00000   1.48825
    A5        1.95434   0.00000   0.00000   0.00001   0.00001   1.95434
    A6        1.95414   0.00000   0.00000  -0.00000  -0.00000   1.95414
    A7        2.06336   0.00000   0.00000   0.00000   0.00000   2.06336
    A8        1.96209  -0.00000   0.00000   0.00000   0.00000   1.96209
    A9        1.96178  -0.00000   0.00000  -0.00001  -0.00001   1.96176
   A10        1.95414   0.00000   0.00000  -0.00000  -0.00000   1.95414
   A11        1.95434   0.00000   0.00000   0.00001   0.00001   1.95434
   A12        1.48825   0.00000   0.00000  -0.00000  -0.00000   1.48825
    D1        0.82225  -0.00000   0.00000  -0.00000  -0.00000   0.82224
    D2       -1.49714  -0.00000   0.00000  -0.00001  -0.00001  -1.49715
    D3        3.14159   0.00000   0.00000   0.00000   0.00000   3.14159
    D4       -0.82220   0.00000   0.00000   0.00000   0.00000  -0.82220
    D5       -3.14159  -0.00000   0.00000  -0.00000  -0.00000   3.14159
    D6        1.49714   0.00000   0.00000   0.00001   0.00001   1.49715
    D7        3.14159   0.00000   0.00000   0.00000  -0.00000   3.14159
    D8        0.82220  -0.00000   0.00000  -0.00000  -0.00000   0.82220
    D9       -0.82225   0.00000   0.00000   0.00000   0.00000  -0.82224
         Item               Value     Threshold  Converged?
 Maximum Force            0.000001     0.000015     YES
 RMS     Force            0.000000     0.000010     YES
 Maximum Displacement     0.000012     0.000060     YES
 RMS     Displacement     0.000005     0.000040     YES
 Optimization completed.
    -- Stationary point found.
                           ----------------------------
                           !   Optimized Parameters   !
                           ! (Angstroms and Degrees)  !
 --------------------------                            --------------------------
 ! Name  Definition              Value          Derivative Info.                !
 --------------------------------------------------------------------------------
 ! R1    R(1,2)                  1.4375         -DE/DX =    0.0                 !
 ! R2    R(1,3)                  1.1479         -DE/DX =    0.0                 !
 ! R3    R(1,4)                  1.1479         -DE/DX =    0.0                 !
 ! R4    R(1,5)                  1.0984         -DE/DX =    0.0                 !
 ! R5    R(2,6)                  1.0984         -DE/DX =    0.0                 !
 ! R6    R(2,7)                  1.1479         -DE/DX =    0.0                 !
 ! R7    R(2,8)                  1.1479         -DE/DX =    0.0                 !
 ! A1    A(2,1,3)              112.4015         -DE/DX =    0.0                 !
 ! A2    A(2,1,4)              112.4195         -DE/DX =    0.0                 !
 ! A3    A(2,1,5)              118.2216         -DE/DX =    0.0                 !
 ! A4    A(3,1,4)               85.2706         -DE/DX =    0.0                 !
 ! A5    A(3,1,5)              111.9752         -DE/DX =    0.0                 !
 ! A6    A(4,1,5)              111.9641         -DE/DX =    0.0                 !
 ! A7    A(1,2,6)              118.2216         -DE/DX =    0.0                 !
 ! A8    A(1,2,7)              112.4195         -DE/DX =    0.0                 !
 ! A9    A(1,2,8)              112.4015         -DE/DX =    0.0                 !
 ! A10   A(6,2,7)              111.9641         -DE/DX =    0.0                 !
 ! A11   A(6,2,8)              111.9752         -DE/DX =    0.0                 !
 ! A12   A(7,2,8)               85.2706         -DE/DX =    0.0                 !
 ! D1    D(3,1,2,6)             47.1114         -DE/DX =    0.0                 !
 ! D2    D(3,1,2,7)            -85.7799         -DE/DX =    0.0                 !
 ! D3    D(3,1,2,8)            180.0            -DE/DX =    0.0                 !
 ! D4    D(4,1,2,6)            -47.1087         -DE/DX =    0.0                 !
 ! D5    D(4,1,2,7)            180.0            -DE/DX =    0.0                 !
 ! D6    D(4,1,2,8)             85.7799         -DE/DX =    0.0                 !
 ! D7    D(5,1,2,6)            180.0            -DE/DX =    0.0                 !
 ! D8    D(5,1,2,7)             47.1087         -DE/DX =    0.0                 !
 ! D9    D(5,1,2,8)            -47.1114         -DE/DX =    0.0                 !
 --------------------------------------------------------------------------------
 GradGradGradGradGradGradGradGradGradGradGradGradGradGradGradGradGradGrad

 Dipole is zero, so no output in dipole orientation.

 ----------------------------------------------------------------------

 Electric dipole moment (input orientation):
 (Debye = 10**-18 statcoulomb cm , SI units = C m)
                  (au)            (Debye)         (10**-30 SI)
   Tot        0.000000D+00      0.000000D+00      0.000000D+00
   x          0.000000D+00      0.000000D+00      0.000000D+00
   y          0.000000D+00      0.000000D+00      0.000000D+00
   z          0.000000D+00      0.000000D+00      0.000000D+00

 Dipole polarizability, Alpha (input orientation).
 (esu units = cm**3 , SI units = C**2 m**2 J**-1)
 Alpha(0;0):
               (au)            (10**-24 esu)      (10**-40 SI)
   iso        0.263001D+02      0.389728D+01      0.433631D+01
   aniso      0.229946D+02      0.340744D+01      0.379129D+01
   xx         0.407131D+02      0.603305D+01      0.671268D+01
   yx        -0.399763D+01     -0.592387D+00     -0.659120D+00
   yy         0.197836D+02      0.293163D+01      0.326188D+01
   zx         0.184826D+01      0.273884D+00      0.304737D+00
   zy        -0.759897D+00     -0.112605D+00     -0.125290D+00
   zz         0.184037D+02      0.272715D+01      0.303437D+01

 ----------------------------------------------------------------------
 1\1\GINC-C272\Freq\UwB97XD\def2SVPP\C2H6(1+,2)\PETERCHAO1\10-Jul-2023\
 0\\#T Geom=AllCheck Guess=TCheck SCRF=Check GenChk UwB97XD/def2SVPP Fr
 eq\\comment\\1,2\C,0.7151370477,0.0678487293,-0.0247207508\C,-0.715137
 0477,-0.0678487293,0.0247206397\H,1.2271802009,-0.8575169887,-0.470969
 382\H,1.2187860276,-0.2448654262,0.9582011758\H,1.134839241,1.00173738
 23,-0.4224273709\H,-1.134839241,-1.0017373823,0.4224272598\H,-1.218786
 0276,0.2448654262,-0.9582012869\H,-1.2271802009,0.8575169887,0.4709692
 709\\Version=ES64L-G16RevB.01\State=2-AG\HF=-79.3054983\S2=0.753547\S2
 -1=0.\S2A=0.750008\RMSD=2.076e-09\RMSF=1.113e-06\ZeroPoint=0.0638463\T
 hermal=0.0681471\Dipole=0.,0.,0.\DipoleDeriv=-0.728531,0.1437768,-0.06
 43868,0.7937682,-0.1692067,-0.0336553,-0.3429134,-0.0375004,-0.2443801
 ,-0.728531,0.1437768,-0.0643868,0.7937682,-0.1692067,-0.0336553,-0.342
 9135,-0.0375004,-0.2443801,0.5537787,-0.1035216,-0.020393,-0.3728391,0
 .2604808,0.0428989,0.2514659,-0.0262726,0.3128663,0.5540202,-0.0560307
 ,0.0915992,-0.4377599,0.2775388,-0.0119303,0.0985446,0.0610879,0.29546
 43,0.120732,0.0157755,-0.0068194,0.0168308,0.1311871,0.0026868,-0.0070
 971,0.002685,0.1360495,0.120732,0.0157755,-0.0068194,0.0168308,0.13118
 72,0.0026868,-0.0070971,0.002685,0.1360495,0.5540202,-0.0560308,0.0915
 992,-0.4377598,0.2775388,-0.0119303,0.0985446,0.0610879,0.2954643,0.55
 37788,-0.1035216,-0.020393,-0.3728391,0.2604808,0.0428988,0.2514659,-0
 .0262726,0.3128663\Polar=40.7130726,-3.9976278,19.7836146,1.8482578,-0
 .7598968,18.4037476\Quadrupole=2.2269804,-0.8426147,-1.3843657,-1.2398
 008,0.5541819,-0.2948345\PG=CI [X(C2H6)]\NImag=0\\0.60668417,0.0500715
 6,0.54839252,-0.01900563,-0.14931460,0.26312063,-0.38777235,0.00297388
 ,-0.00380553,0.60668417,0.00297388,-0.11560224,0.06837873,0.05007156,0
 .54839252,-0.00380553,0.06837873,0.01454633,-0.01900563,-0.14931460,0.
 26312063,-0.06435741,0.06006883,0.04051613,0.00514381,0.00413524,0.012
 18714,0.06907469,0.06476717,-0.15817195,-0.03481253,-0.01683535,0.0097
 0435,-0.02580491,-0.07948671,0.17193131,0.05294619,-0.06371666,-0.0285
 3176,0.00730965,-0.01100006,-0.00417394,-0.04096068,0.06981132,0.05682
 814,-0.06299045,0.01133197,-0.07083856,0.00534582,-0.00594337,-0.01121
 598,0.00502176,0.00724997,-0.00139609,0.06763323,0.00577409,-0.0408613
 4,0.04760971,-0.01693353,0.02069470,-0.00062238,0.00618191,-0.00109248
 ,-0.01320529,-0.02455275,0.04160438,-0.08294253,0.07654134,-0.14722240
 ,0.00739018,-0.01524719,-0.01530253,-0.00396296,-0.01108899,-0.0243285
 0,0.08489258,-0.05394319,0.18856522,-0.09492926,-0.09271333,0.03929532
 ,-0.00712432,-0.02992477,0.01286710,0.00429806,0.01047517,-0.00798287,
 0.00427921,0.01290341,-0.00194050,0.09806535,-0.09142866,-0.26674512,0
 .10178934,0.00161083,0.00258910,-0.00722336,-0.00379962,-0.01088101,0.
 00634916,-0.00437200,-0.00324370,-0.00316879,0.09760282,0.27258114,0.0
 3873016,0.10179773,-0.07134776,-0.00062250,-0.00743930,-0.01108857,0.0
 0249242,-0.01037268,-0.00018324,0.00109780,0.01373660,-0.00781139,-0.0
 4137034,-0.10424240,0.07239623,-0.00712432,-0.02992477,0.01286710,-0.0
 9492926,-0.09271333,0.03929532,0.00017119,0.00030431,0.00008245,0.0001
 0242,0.00014152,-0.00031367,-0.00486267,0.00121087,-0.00063749,0.09806
 535,0.00161083,0.00258910,-0.00722336,-0.09142866,-0.26674512,0.101789
 34,-0.00275359,0.00157003,0.00066085,0.00192934,0.00114948,0.00118026,
 0.00121087,0.00298008,0.00465493,0.09760282,0.27258114,-0.00062250,-0.
 00743930,-0.01108857,0.03873016,0.10179773,-0.07134776,-0.00530578,0.0
 0157844,0.00287021,0.00561573,0.00028667,0.00335291,-0.00063749,0.0046
 5493,0.01181160,-0.04137034,-0.10424240,0.07239623,0.00534582,-0.00594
 337,-0.01121598,-0.06299045,0.01133197,-0.07083856,-0.01189170,0.00377
 524,-0.00467331,-0.00750028,0.01058161,-0.00348216,0.00010242,0.001929
 34,0.00561573,0.00427921,-0.00437200,0.00109780,0.06763323,-0.01693353
 ,0.02069470,-0.00062238,0.00577409,-0.04086134,0.04760971,0.00590373,-
 0.01050484,0.00566405,0.01058161,-0.00774620,0.00047384,0.00014152,0.0
 0114948,0.00028667,0.01290341,-0.00324370,0.01373660,-0.02455275,0.041
 60438,0.00739018,-0.01524719,-0.01530253,-0.08294253,0.07654134,-0.147
 22240,0.00035906,0.00525271,-0.00017762,-0.00348216,0.00047384,0.00292
 431,-0.00031367,0.00118026,0.00335291,-0.00194050,-0.00316879,-0.00781
 139,0.08489258,-0.05394319,0.18856522,0.00514381,0.00413524,0.01218714
 ,-0.06435741,0.06006883,0.04051613,-0.00746039,0.00975021,-0.00532534,
 -0.01189170,0.00590373,0.00035906,0.00017119,-0.00275359,-0.00530578,0
 .00429806,-0.00379962,0.00249242,0.00502176,0.00618191,-0.00396296,0.0
 6907469,-0.01683535,0.00970435,-0.02580491,0.06476717,-0.15817195,-0.0
 3481253,0.00975021,-0.00255541,0.00543663,0.00377524,-0.01050484,0.005
 25271,0.00030431,0.00157003,0.00157844,0.01047517,-0.01088101,-0.01037
 268,0.00724997,-0.00109248,-0.01108899,-0.07948671,0.17193131,0.007309
 65,-0.01100006,-0.00417394,0.05294619,-0.06371666,-0.02853176,-0.00532
 534,0.00543663,-0.00230329,-0.00467331,0.00566405,-0.00017762,0.000082
 45,0.00066085,0.00287021,-0.00798287,0.00634916,-0.00018324,-0.0013960
 9,-0.01320529,-0.02432850,-0.04096068,0.06981132,0.05682814\\-0.000000
 67,-0.00000310,0.00000143,0.00000067,0.00000310,-0.00000143,-0.0000000
 4,0.00000038,0.00000039,-0.00000037,-0.00000085,0.00000051,0.00000080,
 0.00000017,0.00000081,-0.00000080,-0.00000017,-0.00000081,0.00000037,0
 .00000085,-0.00000051,0.00000004,-0.00000038,-0.00000039\\\@


 WHEN YOU'VE SEEN ONE NUCLEAR WAR YOU'VE SEEN THEM ALL.
 Job cpu time:       0 days  0 hours  0 minutes 21.4 seconds.
 Elapsed time:       0 days  0 hours  0 minutes 21.5 seconds.
 File lengths (MBytes):  RWF=      6 Int=      0 D2E=      0 Chk=      1 Scr=      1
 Normal termination of Gaussian 16 at Mon Jul 10 19:31:44 2023.
real 830.43
user 802.15
sys 18.34
