You are running Q-Chem version: 5.3.2

#
# job setting
#
local host:  c163.cluster
current dir: /scratch/user/peterchao1/peterchao1/6959990_1675471587000000869389414
input file:  qchem_test.inp
output file: 
nprocs     : 0
nthreads   : 8
#
# qchem installation setting
#
QC:          /sw/restricted/qchem/sw/5.3.2
QCAUX:       /sw/restricted/qchem/sw/5.3.2/qcaux
QCPROG:      /sw/restricted/qchem/sw/5.3.2/exe/qcprog.exe_s
QCPROG_S:    /sw/restricted/qchem/sw/5.3.2/exe/qcprog.exe_s
PARALLEL:    -DSERIAL
QCMPI:       seq
#
# qchem directory setting
#
qcrun:       qchem97988
QCSCRATCH:   /scratch/user/peterchao1/peterchao1/6959990_1675471587000000869389414
QCLOCALSCR:  
QCTMPDIR:    /scratch/user/peterchao1/peterchao1/6959990_1675471587000000869389414
QCFILEPREF:  /scratch/user/peterchao1/peterchao1/6959990_1675471587000000869389414/qchem97988
QCSAVEDIR:   
workdirs:    /scratch/user/peterchao1/peterchao1/6959990_1675471587000000869389414/qchem97988
workdir0:    /scratch/user/peterchao1/peterchao1/6959990_1675471587000000869389414/qchem97988
partmpdirs =  
#
# parallel setting
#
QCRSH:           ssh
QCMPI:           seq
QCMPIRUN:        
QCMACHINEFILE:   /scratch/user/peterchao1/peterchao1/6959990_1675471587000000869389414/qchem97988/hostfile

#
# env setting
#
exported envs:   QC QCAUX QCSCRATCH QCRUNNAME QCFILEPREF QCPROG QCPROG_S GUIFILE

Running Job 1 of 1 qchem_test.inp
qchem qchem_test.inp_97988.0 /scratch/user/peterchao1/peterchao1/6959990_1675471587000000869389414/qchem97988/ 0
/sw/restricted/qchem/sw/5.3.2/exe/qcprog.exe_s qchem_test.inp_97988.0 /scratch/user/peterchao1/peterchao1/6959990_1675471587000000869389414/qchem97988/
                  Welcome to Q-Chem
     A Quantum Leap Into The Future Of Chemistry


 Q-Chem 5.3, Q-Chem, Inc., Pleasanton, CA (2020)

 License issued to: MRG Daniel Tabor and Mike Hall, Texas A&M University

 Yihan Shao,  Zhengting Gan,  E. Epifanovsky,  A. T. B. Gilbert,  M. Wormit,  
 J. Kussmann,  A. W. Lange,  A. Behn,  Jia Deng,  Xintian Feng,  D. Ghosh,  
 M. Goldey,  P. R. Horn,  L. D. Jacobson,  I. Kaliman,  T. Kus,  A. Landau,  
 Jie Liu,  E. I. Proynov,  R. M. Richard,  R. P. Steele,  E. J. Sundstrom,  
 H. L. Woodcock III,  P. M. Zimmerman,  D. Zuev,  B. Alam,  B. Albrecht,  
 A. Aldossary,  E. Alguire,  S. A. Baeppler,  D. Barton,  Z. Benda,  
 Y. A. Bernard,  E. J. Berquist,  K. B. Bravaya,  H. Burton,  K. Carter-Fenk,  
 D. Casanova,  Chun-Min Chang,  Yunqing Chen,  A. Chien,  K. D. Closser,  
 M. P. Coons,  S. Coriani,  S. Dasgupta,  A. L. Dempwolff,  M. Diedenhofen,  
 Hainam Do,  R. G. Edgar,  Po-Tung Fang,  S. Faraji,  S. Fatehi,  
 Qingguo Feng,  J. Fosso-Tande,  J. Gayvert,  Qinghui Ge,  A. Ghysels,  
 G. Gidofalvi,  J. Gomes,  J. Gonthier,  S. Gulania,  A. Gunina,  D. Hait,  
 M. W. D. Hanson-Heine,  S. Hammes-Schiffer,  P. H. P. Harbach,  
 A. W. Hauser,  M. F. Herbst,  J. E. Herr,  E. G. Hohenstein,  Z. C. Holden,  
 S. Houck,  Kerwin Hui,  B. C. Huynh,  M. Ivanov,  T.-C. Jagau,  Hyunjun Ji,  
 B. Kaduk,  K. Khistyaev,  Jaehoon Kim,  P. Klunzinger,  K. Koh,  
 D. Kosenkov,  L. Koulias,  T. Kowalczyk,  C. M. Krauter,  A. Kunitsa,  
 Ka Un Lao,  A. Laurent,  K. V. Lawler,  Joonho Lee,  D. Lefrancois,  
 S. Lehtola,  D. S. Levine,  Yi-Pei Li,  You-Sheng Lin,  Fenglai Liu,  
 Kuan-Yu Liu,  E. Livshits,  M. Loipersberger,  A. Luenser,  A. Manjanath,  
 P. Manohar,  E. Mansoor,  S. F. Manzer,  Shan-Ping Mao,  Yuezhi Mao,  
 N. Mardirossian,  A. V. Marenich,  T. Markovich,  L. A. Martinez-Martinez,  
 S. A. Maurer,  N. J. Mayhall,  S. C. McKenzie,  J.-M. Mewes,  P. Morgante,  
 A. F. Morrison,  J. W. Mullinax,  K. Nanda,  T. S. Nguyen-Beck,  
 R. Olivares-Amaya,  K. J. Oosterbaan,  J. A. Parkhill,  S. K. Paul,  
 F. Pavosevic,  Zheng Pei,  T. M. Perrine,  F. Plasser,  P. Pokhilko,  
 S. Prager,  A. Prociuk,  E. Ramos,  B. Rana,  D. R. Rehn,  F. Rob,  
 E. Rossomme,  M. Scheurer,  M. Schneider,  N. Sergueev,  S. M. Sharada,  
 S. Sharma,  W. Skomorowski,  D. W. Small,  T. Stauch,  C. J. Stein,  
 T. Stein,  Yu-Chuan Su,  S. P. Veccham,  Zhen Tao,  A. J. W. Thom,  
 A. Tkatchenko,  T. Tsuchimochi,  N. M. Tubman,  L. Vogt,  M. L. Vidal,  
 O. Vydrov,  M. A. Watson,  J. Wenzel,  M. de Wergifosse,  T. A. Wesolowski,  
 A. White,  J. Witte,  A. Yamada,  Jun Yang,  K. Yao,  S. Yeganeh,  
 S. R. Yost,  Zhi-Qiang You,  A. Zech,  Igor Ying Zhang,  Xing Zhang,  
 Yan Zhao,  Ying Zhu,  B. R. Brooks,  G. K. L. Chan,  C. J. Cramer,  
 M. S. Gordon,  W. J. Hehre,  A. Klamt,  M. W. Schmidt,  C. D. Sherrill,  
 D. G. Truhlar,  A. Aspuru-Guzik,  R. Baer,  A. T. Bell,  N. A. Besley,  
 Jeng-Da Chai,  A. E. DePrince, III,  R. A. DiStasio Jr.,  A. Dreuw,  
 B. D. Dunietz,  T. R. Furlani,  Chao-Ping Hsu,  Yousung Jung,  Jing Kong,  
 D. S. Lambrecht,  WanZhen Liang,  C. Ochsenfeld,  V. A. Rassolov,  
 L. V. Slipchenko,  J. E. Subotnik,  T. Van Voorhis,  J. M. Herbert,  
 A. I. Krylov,  P. M. W. Gill,  M. Head-Gordon

 Contributors to earlier versions of Q-Chem not listed above: 
 R. D. Adamson,  B. Austin,  J. Baker,  G. J. O. Beran,  K. Brandhorst,  
 S. T. Brown,  E. F. C. Byrd,  A. K. Chakraborty,  C.-L. Cheng,  
 Siu Hung Chien,  D. M. Chipman,  D. L. Crittenden,  H. Dachsel,  
 R. J. Doerksen,  A. D. Dutoi,  L. Fusti-Molnar,  W. A. Goddard III,  
 A. Golubeva-Zadorozhnaya,  S. R. Gwaltney,  G. Hawkins,  A. Heyden,  
 S. Hirata,  G. Kedziora,  F. J. Keil,  C. Kelley,  Jihan Kim,  R. A. King,  
 R. Z. Khaliullin,  P. P. Korambath,  W. Kurlancheek,  A. M. Lee,  M. S. Lee,  
 S. V. Levchenko,  Ching Yeh Lin,  D. Liotard,  R. C. Lochan,  I. Lotan,  
 P. E. Maslen,  N. Nair,  D. P. O'Neill,  D. Neuhauser,  E. Neuscamman,  
 C. M. Oana,  R. Olson,  B. Peters,  R. Peverati,  P. A. Pieniazek,  
 Y. M. Rhee,  J. Ritchie,  M. A. Rohrdanz,  E. Rosta,  N. J. Russ,  
 H. F. Schaefer III,  N. E. Schultz,  N. Shenvi,  A. C. Simmonett,  A. Sodt,  
 D. Stuck,  K. S. Thanthiriwatte,  V. Vanovschi,  Tao Wang,  A. Warshel,  
 C. F. Williams,  Q. Wu,  X. Xu,  W. Zhang

 Please cite Q-Chem as follows:
 Y. Shao et al., Mol. Phys. 113, 184-215 (2015)
 DOI: 10.1080/00268976.2014.952696

 Q-Chem 5.3.2 for Intel X86 EM64T Linux

 Parts of Q-Chem use Armadillo 9.800.1 (Horizon Scraper).
 http://arma.sourceforge.net/

 Q-Chem begins on Fri Feb  3 18:46:28 2023  

Host: 
0

     Scratch files written to /scratch/user/peterchao1/peterchao1/6959990_1675471587000000869389414/qchem97988//
 Dec820 |scratch|qcdevops|jenkins|workspace|build_RNUM -1
Processing $rem in /sw/restricted/qchem/sw/5.3.2/config/preferences:
Processing $rem in /home/peterchao1/.qchemrc:

 Q-Chem warning in module libgen/rem_setup.C, line 2945:

 Neither GIA nor STOLL is specified by user. Use STOLL as the default


Checking the input file for inconsistencies... 	...done.

--------------------------------------------------------------
User input:
--------------------------------------------------------------
$molecule
0 1
--
0 1
C       -1.102182   -1.591784    1.964798
C       -1.601252   -0.393594    1.156983
C       -2.621905   -0.693256    0.026705
C       -1.869624   -1.360799   -1.139640
C       -3.676046   -1.692387    0.537221
C       -3.313099    0.653112   -0.451346
C       -2.283895    1.784080   -0.637370
C       -4.033571    0.464736   -1.799858
C       -4.359761    1.136341    0.570081
H       -1.900484   -2.033690    2.584433
H       -0.294517   -1.275980    2.647835
H       -0.694513   -2.393016    1.324481
H       -0.728610    0.111155    0.708647
H       -2.035834    0.331278    1.868085
H       -1.264660   -2.209621   -0.778106
H       -1.179601   -0.661750   -1.643130
H       -2.562657   -1.760763   -1.898436
H       -3.226734   -2.689881    0.680019
H       -4.505506   -1.813232   -0.180194
H       -4.107521   -1.383584    1.504590
H       -1.446664    1.484927   -1.290519
H       -1.860758    2.124865    0.322061
H       -2.769468    2.657514   -1.107897
H       -4.726835   -0.394005   -1.789566
H       -3.322968    0.318992   -2.630509
H       -4.630194    1.364204   -2.034390
H       -3.947708    1.206686    1.591641
H       -5.239920    0.472663    0.604180
H       -4.719425    2.142902    0.291743
--
0 1
C        1.348458    2.077458    1.677872
C        2.116324    0.799298    1.340385
C        2.731163    0.710047   -0.082629
C        1.707496    1.208999   -1.117880
C        3.954414    1.642982   -0.145669
C        3.149060   -0.788344   -0.397115
C        1.914083   -1.654555   -0.707736
C        4.089050   -0.864984   -1.614801
C        3.885450   -1.432362    0.792950
H        1.960202    2.985601    1.537529
H        1.030498    2.056554    2.734576
H        0.438180    2.187715    1.065361
H        1.432769   -0.053211    1.496244
H        2.926054    0.675837    2.080623
H        1.551295    2.296784   -1.021740
H        0.726014    0.722665   -0.991465
H        2.047234    1.022042   -2.150804
H        3.690657    2.652369    0.213780
H        4.328627    1.757973   -1.176596
H        4.787354    1.278576    0.480299
H        1.455974   -1.391113   -1.675636
H        1.134830   -1.564442    0.067792
H        2.203748   -2.719183   -0.761680
H        5.082861   -0.439155   -1.397095
H        3.678861   -0.340367   -2.494980
H        4.241255   -1.920033   -1.904240
H        3.215554   -1.608706    1.650729
H        4.732268   -0.816570    1.142523
H        4.295358   -2.412933    0.492100
$end

$rem
JOBTYPE           eda
EDA2              2
METHOD            wB97x-D
BASIS             def2-SV(P)
SCF_CONVERGENCE   8
THRESH            14
SYMMETRY          false
DISP_FREE_X       wB97X-D
DISP_FREE_C       none
EDA_BSSE          true
$end
--------------------------------------------------------------
 ----------------------------------------------------------------
             Standard Nuclear Orientation (Angstroms)
    I     Atom           X                Y                Z
 ----------------------------------------------------------------
    1      C       1.1021820020     1.5917838522     1.9647981090
    2      C       1.6012519831     0.3935938966     1.1569830315
    3      C       2.6219049618     0.6932559578     0.0267050285
    4      C       1.8696239408     1.3607990257    -1.1396399191
    5      C       3.6760459744     1.6923869262     0.5372210644
    6      C       3.3130989489    -0.6531120170    -0.4513460611
    7      C       2.2838949423    -1.7840800037    -0.6373701050
    8      C       4.0335709231    -0.4647359426    -1.7998580646
    9      C       4.3597609676    -1.1363410775     0.5700808911
   10      H       1.9004840153     2.0336898151     2.5844331184
   11      H       0.2945170146     1.2759798157     2.6478351069
   12      H       0.6945129916     2.3930158895     1.3244811623
   13      H       0.7286099730    -0.1111550758     0.7086470200
   14      H       2.0358339951    -0.3312781448     1.8680849820
   15      H       1.2646599501     2.2096210069    -0.7781058592
   16      H       1.1796009291     0.6617500560    -1.6431299451
   17      H       2.5626569270     1.7607630668    -1.8984359100
   18      H       3.2267339798     2.6898809193     0.6800191296
   19      H       4.5055059607     1.8132319646    -0.1801939450
   20      H       4.1075209925     1.3835838703     1.5045900385
   21      H       1.4466639303    -1.4849269646    -1.2905190717
   22      H       1.8607579602    -2.1248650569     0.3220608840
   23      H       2.7694679308    -2.6575139784    -1.1078971638
   24      H       4.7268349255     0.3940050550    -1.7895660296
   25      H       3.3229679072    -0.3189918938    -2.6305090424
   26      H       4.6301939161    -1.3642039309    -2.0343901271
   27      H       3.9477079874    -1.2066861342     1.5916408952
   28      H       5.2399199700    -0.4726630817     0.6041799114
   29      H       4.7194249595    -2.1429020627     0.2917428271
   30      C      -1.3484580132    -2.0774581251     1.6778719494
   31      C      -2.1163240164    -0.7992981040     1.3403850367
   32      C      -2.7311630440    -0.7100470219    -0.0826289462
   33      C      -1.7074960656    -1.2089989661    -1.1178799944
   34      C      -3.9544140477    -1.6429820152    -0.1456689751
   35      C      -3.1490600462     0.7883439969    -0.3971148533
   36      C      -1.9140830500     1.6545550113    -0.7077358285
   37      C      -4.0890500698     0.8649840683    -1.6148008306
   38      C      -3.8854500213     1.4323619316     0.7929501975
   39      H      -1.9602020183    -2.9856011156     1.5375289100
   40      H      -1.0304979925    -2.0565541857     2.7345759444
   41      H      -0.4381800255    -2.1877150929     1.0653609254
   42      H      -1.4327690112     0.0532108854     1.4962440716
   43      H      -2.9260540016    -0.6758371437     2.0806230595
   44      H      -1.5512950665    -2.2967839719    -1.0217400590
   45      H      -0.7260140618    -0.7226649758    -0.9914649861
   46      H      -2.0472340853    -1.0220419068    -2.1508039772
   47      H      -3.6906570433    -2.6523690362     0.2137799627
   48      H      -4.3286270682    -1.7579729559    -1.1765959742
   49      H      -4.7873540345    -1.2785760484     0.4802990618
   50      H      -1.4559740696     1.3911130648    -1.6756358523
   51      H      -1.1348300351     1.5644419654     0.0677921512
   52      H      -2.2037480483     2.7191830151    -0.7616797626
   53      H      -5.0828610667     0.4391550586    -1.3970948353
   54      H      -3.6788610884     0.3403671170    -2.4949798683
   55      H      -4.2412550727     1.9200330850    -1.9042397680
   56      H      -3.2155540040     1.6087058813     1.6507291943
   57      H      -4.7322680161     0.8165699141     1.1425231792
   58      H      -4.2953580246     2.4129329497     0.4921002609
 ----------------------------------------------------------------
 Molecular Point Group                 C1    NOp =  1
 Largest Abelian Subgroup              C1    NOp =  1
 Nuclear Repulsion Energy =        1548.66702198 hartrees
 There are       74 alpha and       74 beta electrons
 Requested basis set is def2-SV(P)
 There are 188 shells and 332 basis functions

 Total QAlloc Memory Limit   7500 MB
 Mega-Array Size       188 MB
 MEM_STATIC part       192 MB
 A cutoff of  1.0D-14 yielded  15236 shell pairs
 There are     45920 function pairs (     50474 Cartesian)
 Smallest overlap matrix eigenvalue = 9.48E-04

 Scale SEOQF with 1.000000e-02/1.000000e-01/1.000000e-01

 Standard Electronic Orientation quadrupole field applied
 Nucleus-field energy     =     0.0000000019 hartrees

 -----------------------------------------------------------------------
  General SCF calculation program by
  Eric Jon Sundstrom, Paul Horn, Yuezhi Mao, Dmitri Zuev, Alec White,
  David Stuck, Shaama M.S., Shane Yost, Joonho Lee, David Small,
  Daniel Levine, Susi Lehtola, Hugh Burton, Evgeny Epifanovsky,
  Bang C. Huynh
 -----------------------------------------------------------------------
================================================================
                 ALMO-EDA with the EDA2 driver                  
================================================================
 The second-generation ALMO-EDA (for DFT):                      
 P. R. Horn, Y. Mao and M. Head-Gordon, PCCP, 18, 23067 (2016)  
 Decomposition of the frozen energy:                            
 P. R. Horn, Y. Mao and M. Head-Gordon, JCP, 144, 114107 (2016) 
Using eda2 option set 2
Option set summary: Frozen orbital wavefunction, initial wavefunction decomposition, and traditional AO-based POL.
--------------------------------
Printing EDA Options
--------------------------------
eda_child_super_basis      0
fragmo_guess_mode          0
child_mp                   0
child_mp_orders            0
cls_elec                   1
cls_disp                   0
scfmi_mode                 1
scfmi_occs                 0
scfmi_virts                0
frz_relax                  0
frz_relax_method           0
dc_pen_start               0
dc_pen_conv                0
dc_pen_increment           0
dc_pen_steps               0
dc_pen_thresh_factor       0
dc_pen_pre_newton_thresh   0
frz_ortho_decomp           1
frz_ortho_decomp_conv      6
plot_mo_ortho_frz          0
frgm_method                2
scfmi_freeze_ss            0
separate_rehyb             0
plot_diff_den              0
eda_nocv                   0
eda_vct_relax              1
disp_free_x                -110
disp_free_c                0
eda_bsse                   1
eda_pct_a                  0
eda_covp                   0
--------------------------------
Attempting to make child job directory: /scratch/user/peterchao1/peterchao1/6959990_1675471587000000869389414/qchem97988//Frg1/
Attempting to make child job directory: /scratch/user/peterchao1/peterchao1/6959990_1675471587000000869389414/qchem97988//Frg2/
Creating input file /scratch/user/peterchao1/peterchao1/6959990_1675471587000000869389414/qchem97988/Frg1.input
using default PutDataFrgm: nothing
calling putenv with: QCSCRATCH=/scratch/user/peterchao1/peterchao1/6959990_1675471587000000869389414/qchem97988/ 
Spawning Job For Fragment 0
Done Job For Fragment 0
calling putenv with: QCSCRATCH=/scratch/user/peterchao1/peterchao1/6959990_1675471587000000869389414 
calling putenv with: QCTHREADS=8 
Creating input file /scratch/user/peterchao1/peterchao1/6959990_1675471587000000869389414/qchem97988/Frg2.input
using default PutDataFrgm: nothing
calling putenv with: QCSCRATCH=/scratch/user/peterchao1/peterchao1/6959990_1675471587000000869389414/qchem97988/ 
Spawning Job For Fragment 1
Done Job For Fragment 1
calling putenv with: QCSCRATCH=/scratch/user/peterchao1/peterchao1/6959990_1675471587000000869389414 
calling putenv with: QCTHREADS=8 
Doing General SCFMI
 Exchange:     0.2220 Hartree-Fock + 1.0000 wB97X-D + LR-HF
 Correlation:  1.0000 wB97X-D
 Using SG-2 standard quadrature grid
 Dispersion:   Grimme D
performing fock build before subrot guess so that all methods have access
Printing subrot_rss_gen Method Specification:
Occupied Subspace Method is 0
Virtual Subspace Method is 0
Energy of the unrelaxed supersystem initial determinant -709.243175155586
write pseudocanon occs and virts to disk
write pseudocanon orbital energies to disk
Tolerance of ortho_decomp_scf: 1.00e-06
GDM subspace size: 20
Beginning the Orthogonal Decomposition of the Initial Supersystem Wavefunction
    1    -709.2131809028      1.21e-02     ortho_decomp Preconditoned Steepest Descent
    2    -709.2146001145      2.87e-04     ortho_decomp BFGS Step
    3    -709.2146042812      2.21e-05     ortho_decomp BFGS Step
    4    -709.2146042895      8.92e-07     ortho_decomp 00000 Convergence criterion met
 Exchange:     0.2220 Hartree-Fock + 1.0000 wB97X-D + LR-HF
 Correlation:  1.0000 wB97X-D
 Using SG-2 standard quadrature grid
 Dispersion:   Grimme D
 Long-range K will be added via erf
 Coulomb attenuation parameter = 0.2 bohr**(-1)
 Exchange:     0.2220 Hartree-Fock + 1.0000 wB97X-D + LR-HF
 Correlation:  1.0000 wB97X-D
 Using SG-2 standard quadrature grid
 Dispersion:   Grimme D
 Long-range K will be added via erf
 Coulomb attenuation parameter = 0.2 bohr**(-1)
 Exchange:     0.2220 Hartree-Fock + 1.0000 wB97X-D + LR-HF
 Correlation:  1.0000 wB97X-D
 Using SG-2 standard quadrature grid
 Dispersion:   Grimme D
 Long-range K will be added via erf
 Coulomb attenuation parameter = 0.2 bohr**(-1)
Doing General SCFMI
 Exchange:     0.2220 Hartree-Fock + 1.0000 wB97X-D + LR-HF
 Correlation:  1.0000 wB97X-D
 Using SG-2 standard quadrature grid
 Dispersion:   Grimme D
performing fock build at end of subrot_r(subrot) constructor so that all methods have access
<S^2> of initial wavefunction before polarization iterations 0.0000000000
Beginning iterations for the determination of the polarized wavefunction
Energy prior to optimization (guess energy) = -709.243175155586
Begin Timing: Total SCF Calculation
begin iterations for algorithm: DIIS         
the SCF tolerance is set to 1.00e-08
    1    -709.2431751556      7.24e-05     00000 
    2    -709.2433975856      2.45e-05     00000 
    3    -709.2434148554      1.29e-05     00000 
    4    -709.2434204041      2.70e-06     00000 
    5    -709.2434206623      9.22e-07     00000 
    6    -709.2434206996      2.71e-07     00000 
    7    -709.2434207024      7.99e-08     00000 
    8    -709.2434207027      1.71e-08     00000 
    9    -709.2434207027      5.33e-09     00000 Convergence criterion met
write pseudocanon occs and virts to disk
write pseudocanon orbital energies to disk
Timing for Total SCF: 65.00s (wall), 496.93s (cpu)
<S^2> of polarized wavefunction after polarization iterations 0.0000000000
relaxing scfmi constraint to allow all rotations in the entire AO span
Doing General SCFMI
 Exchange:     0.2220 Hartree-Fock + 1.0000 wB97X-D + LR-HF
 Correlation:  1.0000 wB97X-D
 Using SG-2 standard quadrature grid
 Dispersion:   Grimme D
performing fock build at end of subrot_r(subrot) constructor so that all methods have access
<S^2> of polarized wavefunction before ct-allowed iterations 0.0000000000
Beginning iterations for the determination of the CT-Allowed wavefunction
Energy prior to optimization (guess energy) = -709.243420702728
Begin Timing: Total SCF Calculation
begin iterations for algorithm: DIIS         
the SCF tolerance is set to 1.00e-08
    1    -709.2434207027      2.53e-04     00000 
    2    -709.2472793159      2.84e-05     00000 
    3    -709.2474049896      4.56e-06     00000 
    4    -709.2474085568      1.49e-06     00000 
    5    -709.2474086913      4.71e-07     00000 
    6    -709.2474087063      1.36e-07     00000 
    7    -709.2474087075      1.90e-08     00000 
    8    -709.2474087075      9.35e-09     00000 Convergence criterion met
write pseudocanon occs and virts to disk
write pseudocanon orbital energies to disk
Timing for Total SCF: 59.00s (wall), 454.17s (cpu)
<S^2> of ct_allowed wavefunction after ct-allowed iterations 0.0000000000
Attempting to make child job directory: /scratch/user/peterchao1/peterchao1/6959990_1675471587000000869389414/qchem97988//FrgBSSE1/
Attempting to make child job directory: /scratch/user/peterchao1/peterchao1/6959990_1675471587000000869389414/qchem97988//FrgBSSE2/
Creating input file /scratch/user/peterchao1/peterchao1/6959990_1675471587000000869389414/qchem97988/FrgBSSE1.input
calling putenv with: QCSCRATCH=/scratch/user/peterchao1/peterchao1/6959990_1675471587000000869389414/qchem97988/ 
Spawning Job For Fragment 0
Done Job For Fragment 0
calling putenv with: QCSCRATCH=/scratch/user/peterchao1/peterchao1/6959990_1675471587000000869389414 
calling putenv with: QCTHREADS=8 
Creating input file /scratch/user/peterchao1/peterchao1/6959990_1675471587000000869389414/qchem97988/FrgBSSE2.input
calling putenv with: QCSCRATCH=/scratch/user/peterchao1/peterchao1/6959990_1675471587000000869389414/qchem97988/ 
Spawning Job For Fragment 1
Done Job For Fragment 1
calling putenv with: QCSCRATCH=/scratch/user/peterchao1/peterchao1/6959990_1675471587000000869389414 
calling putenv with: QCTHREADS=8 
====================================================================
   Evaluating the BSSE with fragment SCF in the supersystem basis
   Fragment contributions (kJ/mol) 
   Frgm 1: 2.6268
   Frgm 2: 3.1965
   BSSE (kJ/mol) = 5.8233
====================================================================

================================
        Results of EDA2         
================================
Basic EDA Quantities
--------------------
Fragment Energies (Ha):
1 -354.6189998927
2 -354.6188881087
--------------------
  E_prp (kJ/mol) = 0.0000
  E_frz (kJ/mol) = -13.8816
  E_pol (kJ/mol) = -0.6447
  E_vct (kJ/mol) = -4.6473 (CP-corrected)
  E_int (kJ/mol) = -19.1736 (CP-corrected)
--------------------


Decomposition of frozen interaction energy
--------------------
  --------------------
  Orthogonal Frozen Decomposition:
  --------------------
     E_elec   (ELEC)   (kJ/mol) = -24.9594
     E_pauli  (PAULI)  (kJ/mol) = 40.7491
     E_disp   (DISP)   (kJ/mol) = -29.6713
  --------------------
  Classical Frozen Decomposition:
  --------------------
     E_cls_elec  (CLS ELEC)  (kJ/mol) = -6.9022
     E_mod_pauli (MOD PAULI) (kJ/mol) = 22.6918 (FRZ - CLS ELEC - DISP)
     E_disp      (DISP)      (kJ/mol) = -29.6713
  --------------------
--------------------

Simplified EDA Summary (kJ/mol)
--------------------
 PREPARATION      0.0000
 FROZEN           -13.8816 (ELEC + PAULI + DISP)
[ELEC + PAULI = 15.7897, DISP = -29.6713]
 POLARIZATION    -0.6447
 CHARGE TRANSFER -4.6473     (counterpoise-corrected)
 TOTAL           -19.1736     (PRP + FRZ + POL + CT)
--------------------
 
 --------------------------------------------------------------
 
                    Orbital Energies (a.u.)
 --------------------------------------------------------------
 
 Alpha MOs
 -- Occupied --
-10.3049 -10.3042 -10.3041 -10.3035 -10.2834 -10.2820 -10.2794 -10.2777
-10.2753 -10.2753 -10.2753 -10.2750 -10.2750 -10.2748 -10.2746 -10.2746
-10.2744 -10.2742  -0.9327  -0.9314  -0.8679  -0.8666  -0.8178  -0.8147
 -0.7837  -0.7801  -0.7688  -0.7678  -0.7536  -0.7515  -0.7179  -0.7168
 -0.6595  -0.6582  -0.5899  -0.5880  -0.5667  -0.5661  -0.5505  -0.5372
 -0.5352  -0.5308  -0.5213  -0.5188  -0.5170  -0.5140  -0.4878  -0.4846
 -0.4836  -0.4827  -0.4684  -0.4671  -0.4561  -0.4543  -0.4519  -0.4507
 -0.4450  -0.4437  -0.4430  -0.4417  -0.4388  -0.4373  -0.4314  -0.4266
 -0.4190  -0.4169  -0.4104  -0.4097  -0.3813  -0.3800  -0.3753  -0.3740
 -0.3727  -0.3719
 -- Virtual --
  0.1146   0.1333   0.1446   0.1480   0.1613   0.1677   0.1718   0.1733
  0.1756   0.1783   0.1801   0.1860   0.1890   0.1952   0.1974   0.2088
  0.2104   0.2132   0.2197   0.2210   0.2231   0.2302   0.2324   0.2386
  0.2399   0.2424   0.2447   0.2491   0.2548   0.2590   0.2633   0.2658
  0.2718   0.2789   0.2822   0.2867   0.2883   0.2925   0.2961   0.3039
  0.3056   0.3108   0.3146   0.3231   0.3255   0.3283   0.3343   0.3398
  0.3418   0.3557   0.3644   0.3766   0.3792   0.3858   0.3924   0.4112
  0.4832   0.4930   0.4999   0.5007   0.5080   0.5136   0.5159   0.5244
  0.5305   0.5338   0.5468   0.5490   0.5590   0.5730   0.5937   0.6211
  0.6286   0.6422   0.6453   0.6580   0.6633   0.6682   0.6765   0.6802
  0.6870   0.6969   0.7017   0.7066   0.7081   0.7141   0.7171   0.7436
  0.7476   0.7505   0.7598   0.7604   0.7662   0.7670   0.7687   0.7729
  0.7744   0.7771   0.7840   0.7869   0.7899   0.7910   0.7941   0.7976
  0.7994   0.8016   0.8042   0.8062   0.8075   0.8119   0.8127   0.8159
  0.8207   0.8227   0.8269   0.8332   0.8357   0.8371   0.8401   0.8417
  0.8481   0.8533   0.8573   0.8605   0.8656   0.8692   0.8727   0.8774
  0.8785   0.8854   0.8903   0.8906   0.8991   0.9068   0.9134   0.9272
  0.9444   0.9614   0.9725   0.9789   0.9817   0.9955   1.0089   1.0160
  1.0388   1.0453   1.0679   1.0836   1.0989   1.1034   1.1178   1.1213
  1.1313   1.1504   1.1696   1.1893   1.2094   1.2201   1.2373   1.2451
  1.2568   1.2708   1.2952   1.3060   1.3914   1.4044   1.4152   1.4293
  1.4501   1.4551   1.4621   1.4731   1.6169   1.6176   1.6518   1.6547
  1.7693   1.7713   1.7815   1.7899   1.8263   1.8297   1.8638   1.8661
  1.9216   1.9239   1.9422   1.9460   1.9543   1.9578   1.9635   1.9674
  1.9703   1.9817   2.0126   2.0144   2.0335   2.0367   2.0425   2.0506
  2.1025   2.1061   2.1110   2.1130   2.1353   2.1423   2.1477   2.1539
  2.1568   2.1637   2.1692   2.1735   2.1856   2.1991   2.2037   2.2217
  2.2350   2.2367   2.2593   2.2669   2.2703   2.2764   2.2803   2.2858
  2.2906   2.3013   2.3057   2.3117   2.3258   2.3423   2.3453   2.3497
  2.3547   2.3647   2.3855   2.3933   2.4554   2.4632   2.4781   2.4817
  2.5040   2.5161   2.6042   2.6057   2.6163   2.6246   2.6956   2.7057
  2.8201   2.8224   2.8306   2.8393   2.8432   2.8492   2.8699   2.8730
  2.8780   2.8826
 --------------------------------------------------------------
 
          Ground-State Mulliken Net Atomic Charges

     Atom                 Charge (a.u.)
  ----------------------------------------
      1 C                    -0.328708
      2 C                    -0.241067
      3 C                    -0.178148
      4 C                    -0.304244
      5 C                    -0.285682
      6 C                    -0.204958
      7 C                    -0.303717
      8 C                    -0.273872
      9 C                    -0.276740
     10 H                     0.121897
     11 H                     0.130535
     12 H                     0.131351
     13 H                     0.131807
     14 H                     0.104689
     15 H                     0.121935
     16 H                     0.127981
     17 H                     0.118007
     18 H                     0.118393
     19 H                     0.116418
     20 H                     0.119515
     21 H                     0.122570
     22 H                     0.137647
     23 H                     0.111484
     24 H                     0.115740
     25 H                     0.117178
     26 H                     0.111162
     27 H                     0.117508
     28 H                     0.117343
     29 H                     0.111176
     30 C                    -0.326674
     31 C                    -0.216712
     32 C                    -0.178569
     33 C                    -0.332991
     34 C                    -0.281530
     35 C                    -0.200858
     36 C                    -0.304516
     37 C                    -0.274113
     38 C                    -0.271294
     39 H                     0.117592
     40 H                     0.117224
     41 H                     0.137077
     42 H                     0.118456
     43 H                     0.102511
     44 H                     0.122331
     45 H                     0.156138
     46 H                     0.116091
     47 H                     0.114650
     48 H                     0.117327
     49 H                     0.114168
     50 H                     0.122574
     51 H                     0.127078
     52 H                     0.110823
     53 H                     0.117531
     54 H                     0.115077
     55 H                     0.110899
     56 H                     0.116914
     57 H                     0.114726
     58 H                     0.110869
  ----------------------------------------
  Sum of atomic charges =     0.000000

 -----------------------------------------------------------------
                    Cartesian Multipole Moments
 -----------------------------------------------------------------
    Charge (ESU x 10^10)
                -0.0000
    Dipole Moment (Debye)
         X       0.0936      Y       0.0113      Z       0.0979
       Tot       0.1359
    Quadrupole Moments (Debye-Ang)
        XX    -124.4164     XY       0.0186     YY    -124.1098
        XZ       0.0102     YZ      -0.0492     ZZ    -123.8473
    Octopole Moments (Debye-Ang^2)
       XXX       2.0131    XXY      -0.1071    XYY       0.3007
       YYY       0.9132    XXZ       0.5027    XYZ       1.3647
       YYZ      -1.6583    XZZ       0.2774    YZZ      -1.3915
       ZZZ       3.0491
    Hexadecapole Moments (Debye-Ang^3)
      XXXX   -6853.9724   XXXY       2.7603   XXYY   -1397.6992
      XYYY     -13.9090   YYYY   -1559.2839   XXXZ     -20.1087
      XXYZ      -1.8314   XYYZ      -2.8991   YYYZ      -1.2430
      XXZZ   -1352.1024   XYZZ       7.6508   YYZZ    -471.3585
      XZZZ       9.6581   YZZZ      -0.5007   ZZZZ   -1210.5731
 -----------------------------------------------------------------
Archival summary:
1\1\c163.cluster\SP\ProcedureUnspecified\BasisUnspecified\1840\petercha\FriFeb318:53:372023FriFeb318:53:372023\0\\#,ProcedureUnspecified,BasisUnspecified,\\0,1\C\C,1,1.53951\H,2,1.1033,1,110.538\H,2,1.10331,1,111.73,3,-118.958,0\H,2,1.10333,1,112.14,3,119.798,0\C,1,1.5401,2,107.716,3,47.7707,0\H,6,1.10274,1,111.798,2,51.5052,0\H,6,1.10326,1,110.68,2,-67.5739,0\H,6,1.10377,1,112.105,2,172.925,0\C,1,1.55211,2,109.517,3,-69.8048,0\H,10,1.1033,1,108.211,2,166.022,0\H,10,1.10452,1,109.682,2,-78.989,0\C,10,1.52882,1,116.624,2,43.614,0\H,13,1.10296,10,111.998,1,-67.884,0\H,13,1.10371,10,112.518,1,53.4863,0\H,13,1.1039,10,109.973,1,172.963,0\C,1,1.58713,2,110.624,3,168.794,0\C,17,1.54024,1,111.244,2,45.7013,0\H,18,1.10286,17,111.964,1,-69.1422,0\H,18,1.10378,17,112.339,1,52.4844,0\H,18,1.10453,17,109.881,1,171.806,0\C,17,1.54044,1,111.606,2,166,0\H,22,1.10258,17,112.225,1,-69.1512,0\H,22,1.1032,17,112.3,1,52.6449,0\H,22,1.10456,17,109.773,1,171.803,0\C,17,1.54047,1,111.323,2,-74.1996,0\H,26,1.10281,17,111.972,1,-69.545,0\H,26,1.1037,17,112.38,1,52.2178,0\H,26,1.10454,17,109.811,1,171.488,0\H,11,2.30627,10,124.741,1,-149.578,0\C,30,1.10377,11,118.497,10,-150.516,0\H,31,1.10402,30,105.852,11,159.91,0\C,31,1.52879,30,107.669,11,44.2593,0\H,33,1.10269,31,112.061,30,-57.8765,0\H,33,1.1037,31,109.89,30,61.2113,0\H,33,1.10393,31,112.419,30,-179.391,0\C,31,1.55273,30,109.283,11,-83.4002,0\C,37,1.53902,31,109.54,30,78.5239,0\H,38,1.10264,37,111.836,31,-50.4878,0\H,38,1.10314,37,110.809,31,69.2969,0\H,38,1.10332,37,111.716,31,-171.499,0\C,37,1.5397,31,108.499,30,-164.128,0\H,42,1.10276,37,111.781,31,-170.061,0\H,42,1.10346,37,110.55,31,-51.1403,0\H,42,1.10382,37,112.102,31,68.5492,0\C,37,1.58705,31,109.885,30,-42.8742,0\C,46,1.54012,37,111.09,31,75.2931,0\H,47,1.10277,46,112.072,37,69.9647,0\H,47,1.10309,46,112.255,37,-51.3996,0\H,47,1.10465,46,109.976,37,-170.852,0\C,46,1.5402,37,111.367,31,-164.813,0\H,51,1.1029,46,112.004,37,69.4643,0\H,51,1.10372,46,112.334,37,-52.2757,0\H,51,1.10457,46,109.803,37,-171.508,0\C,46,1.54055,37,111.561,31,-44.8858,0\H,55,1.10256,46,112.174,37,69.4837,0\H,55,1.10386,46,112.218,37,-52.3096,0\H,55,1.10456,46,109.761,37,-171.48,0\\\@

 Total job time:  428.91s(wall), 2106.46s(cpu) 
 Fri Feb  3 18:53:37 2023

        *************************************************************
        *                                                           *
        *  Thank you very much for using Q-Chem.  Have a nice day.  *
        *                                                           *
        *************************************************************


remove work dirs /scratch/user/peterchao1/peterchao1/6959990_1675471587000000869389414/qchem97988.0 -- /scratch/user/peterchao1/peterchao1/6959990_1675471587000000869389414/qchem97988.-1
rm -rf /scratch/user/peterchao1/peterchao1/6959990_1675471587000000869389414/qchem97988
real 429.47
user 3144.29
sys 91.47
