 Entering Gaussian System, Link 0=g16
 Input=gaussian_test.inp
 Output=gaussian_test.log
 Initial command:
 /sw/restricted/lms/sw/Gaussian/g16_B01/g16/l1.exe "/scratch/user/peterchao1/peterchao1/7003903_1675700091000000851010051/Gau-28360.inp" -scrdir="/scratch/user/peterchao1/peterchao1/7003903_1675700091000000851010051/"
 Entering Link 1 = /sw/restricted/lms/sw/Gaussian/g16_B01/g16/l1.exe PID=     28361.
  
 Copyright (c) 1988-2017, Gaussian, Inc.  All Rights Reserved.
  
 This is part of the Gaussian(R) 16 program.  It is based on
 the Gaussian(R) 09 system (copyright 2009, Gaussian, Inc.),
 the Gaussian(R) 03 system (copyright 2003, Gaussian, Inc.),
 the Gaussian(R) 98 system (copyright 1998, Gaussian, Inc.),
 the Gaussian(R) 94 system (copyright 1995, Gaussian, Inc.),
 the Gaussian 92(TM) system (copyright 1992, Gaussian, Inc.),
 the Gaussian 90(TM) system (copyright 1990, Gaussian, Inc.),
 the Gaussian 88(TM) system (copyright 1988, Gaussian, Inc.),
 the Gaussian 86(TM) system (copyright 1986, Carnegie Mellon
 University), and the Gaussian 82(TM) system (copyright 1983,
 Carnegie Mellon University). Gaussian is a federally registered
 trademark of Gaussian, Inc.
  
 This software contains proprietary and confidential information,
 including trade secrets, belonging to Gaussian, Inc.
  
 This software is provided under written license and may be
 used, copied, transmitted, or stored only in accord with that
 written license.
  
 The following legend is applicable only to US Government
 contracts under FAR:
  
                    RESTRICTED RIGHTS LEGEND
  
 Use, reproduction and disclosure by the US Government is
 subject to restrictions as set forth in subparagraphs (a)
 and (c) of the Commercial Computer Software - Restricted
 Rights clause in FAR 52.227-19.
  
 Gaussian, Inc.
 340 Quinnipiac St., Bldg. 40, Wallingford CT 06492
  
  
 ---------------------------------------------------------------
 Warning -- This program may not be used in any manner that
 competes with the business of Gaussian, Inc. or will provide
 assistance to any competitor of Gaussian, Inc.  The licensee
 of this program is prohibited from giving any competitor of
 Gaussian, Inc. access to this program.  By using this program,
 the user acknowledges that Gaussian, Inc. is engaged in the
 business of creating and licensing software in the field of
 computational chemistry and represents and warrants to the
 licensee that it is not a competitor of Gaussian, Inc. and that
 it will not use this program in any manner prohibited above.
 ---------------------------------------------------------------
  

 Cite this work as:
 Gaussian 16, Revision B.01,
 M. J. Frisch, G. W. Trucks, H. B. Schlegel, G. E. Scuseria, 
 M. A. Robb, J. R. Cheeseman, G. Scalmani, V. Barone, 
 G. A. Petersson, H. Nakatsuji, X. Li, M. Caricato, A. V. Marenich, 
 J. Bloino, B. G. Janesko, R. Gomperts, B. Mennucci, H. P. Hratchian, 
 J. V. Ortiz, A. F. Izmaylov, J. L. Sonnenberg, D. Williams-Young, 
 F. Ding, F. Lipparini, F. Egidi, J. Goings, B. Peng, A. Petrone, 
 T. Henderson, D. Ranasinghe, V. G. Zakrzewski, J. Gao, N. Rega, 
 G. Zheng, W. Liang, M. Hada, M. Ehara, K. Toyota, R. Fukuda, 
 J. Hasegawa, M. Ishida, T. Nakajima, Y. Honda, O. Kitao, H. Nakai, 
 T. Vreven, K. Throssell, J. A. Montgomery, Jr., J. E. Peralta, 
 F. Ogliaro, M. J. Bearpark, J. J. Heyd, E. N. Brothers, K. N. Kudin, 
 V. N. Staroverov, T. A. Keith, R. Kobayashi, J. Normand, 
 K. Raghavachari, A. P. Rendell, J. C. Burant, S. S. Iyengar, 
 J. Tomasi, M. Cossi, J. M. Millam, M. Klene, C. Adamo, R. Cammi, 
 J. W. Ochterski, R. L. Martin, K. Morokuma, O. Farkas, 
 J. B. Foresman, and D. J. Fox, Gaussian, Inc., Wallingford CT, 2016.
 
 ******************************************
 Gaussian 16:  ES64L-G16RevB.01 20-Dec-2017
                 6-Feb-2023 
 ******************************************
 %nprocshared=4
 Will use up to    4 processors via shared memory.
 %mem=8000mb
 %chk=8.chk
 %nprocshared=4
 Will use up to    4 processors via shared memory.
 %mem=8000mb
 ----------------------------------------------------------------------
 #T wB97XD/def2svpp opt=tight freq int(grid=ultrafine) scf=(verytight,q
 c) Volume=tight
 ----------------------------------------------------------------------
 -------
 Monomer
 -------
 Symbolic Z-matrix:
 Charge =  0 Multiplicity = 1
 C                    -1.27503   0.25151   0.01578 
 C                     0.01457  -0.56109  -0.03275 
 O                     1.16868   0.24147   0.05631 
 H                    -2.13445  -0.41306   0.00703 
 H                    -1.34043   0.91591  -0.84502 
 H                    -1.30325   0.85281   0.92139 
 H                     0.03987  -1.16397  -0.95317 
 H                     0.06838  -1.23796   0.82289 
 H                     1.13911   0.90243  -0.64466 
 

 GradGradGradGradGradGradGradGradGradGradGradGradGradGradGradGradGradGrad
 Initialization pass.
                           ----------------------------
                           !    Initial Parameters    !
                           ! (Angstroms and Degrees)  !
 --------------------------                            --------------------------
 ! Name  Definition              Value          Derivative Info.                !
 --------------------------------------------------------------------------------
 ! R1    R(1,2)                  1.525          estimate D2E/DX2                !
 ! R2    R(1,4)                  1.0864         estimate D2E/DX2                !
 ! R3    R(1,5)                  1.0893         estimate D2E/DX2                !
 ! R4    R(1,6)                  1.0874         estimate D2E/DX2                !
 ! R5    R(2,3)                  1.4085         estimate D2E/DX2                !
 ! R6    R(2,7)                  1.1006         estimate D2E/DX2                !
 ! R7    R(2,8)                  1.0923         estimate D2E/DX2                !
 ! R8    R(3,9)                  0.9639         estimate D2E/DX2                !
 ! A1    A(2,1,4)              110.043          estimate D2E/DX2                !
 ! A2    A(2,1,5)              110.5242         estimate D2E/DX2                !
 ! A3    A(2,1,6)              110.0644         estimate D2E/DX2                !
 ! A4    A(4,1,5)              108.6161         estimate D2E/DX2                !
 ! A5    A(4,1,6)              108.931          estimate D2E/DX2                !
 ! A6    A(5,1,6)              108.6192         estimate D2E/DX2                !
 ! A7    A(1,2,3)              112.7838         estimate D2E/DX2                !
 ! A8    A(1,2,7)              109.7512         estimate D2E/DX2                !
 ! A9    A(1,2,8)              110.2983         estimate D2E/DX2                !
 ! A10   A(3,2,7)              110.2523         estimate D2E/DX2                !
 ! A11   A(3,2,8)              105.2587         estimate D2E/DX2                !
 ! A12   A(7,2,8)              108.332          estimate D2E/DX2                !
 ! A13   A(2,3,9)              108.6384         estimate D2E/DX2                !
 ! D1    D(4,1,2,3)           -176.4544         estimate D2E/DX2                !
 ! D2    D(4,1,2,7)             60.1968         estimate D2E/DX2                !
 ! D3    D(4,1,2,8)            -59.0859         estimate D2E/DX2                !
 ! D4    D(5,1,2,3)             63.5845         estimate D2E/DX2                !
 ! D5    D(5,1,2,7)            -59.7644         estimate D2E/DX2                !
 ! D6    D(5,1,2,8)           -179.0471         estimate D2E/DX2                !
 ! D7    D(6,1,2,3)            -56.3944         estimate D2E/DX2                !
 ! D8    D(6,1,2,7)           -179.7432         estimate D2E/DX2                !
 ! D9    D(6,1,2,8)             60.9741         estimate D2E/DX2                !
 ! D10   D(1,2,3,9)            -55.7287         estimate D2E/DX2                !
 ! D11   D(7,2,3,9)             67.3415         estimate D2E/DX2                !
 ! D12   D(8,2,3,9)           -176.0334         estimate D2E/DX2                !
 --------------------------------------------------------------------------------
 Number of steps in this run=     43 maximum allowed number of steps=    100.
 GradGradGradGradGradGradGradGradGradGradGradGradGradGradGradGradGradGrad

                    Distance matrix (angstroms):
                    1          2          3          4          5
     1  C    0.000000
     2  C    1.525041   0.000000
     3  O    2.444067   1.408543   0.000000
     4  H    1.086425   2.154472   3.367705   0.000000
     5  H    1.089345   2.162714   2.750071   1.767086   0.000000
     6  H    1.087419   2.155485   2.689332   1.768999   1.767927
     7  H    2.161350   1.100581   2.066036   2.492690   2.498568
     8  H    2.162110   1.092328   1.996752   2.489684   3.066894
     9  H    2.586107   1.944460   0.963901   3.587667   2.487658
                    6          7          8          9
     6  H    0.000000
     7  H    3.063549   0.000000
     8  H    2.502469   1.777834   0.000000
     9  H    2.901733   2.360835   2.807395   0.000000
 Framework group  C1[X(C2H6O)]
 Deg. of freedom    21
                         Standard orientation:                         
 ---------------------------------------------------------------------
 Center     Atomic      Atomic             Coordinates (Angstroms)
 Number     Number       Type             X           Y           Z
 ---------------------------------------------------------------------
      1          6           0       -1.211396   -0.237924   -0.022551
      2          6           0        0.089052    0.555567    0.047862
      3          8           0        1.231298   -0.254741   -0.102699
      4          1           0       -2.062031    0.435390    0.035645
      5          1           0       -1.271638   -0.946464    0.802685
      6          1           0       -1.261568   -0.789679   -0.958248
      7          1           0        0.136570    1.108155    0.998476
      8          1           0        0.137947    1.276426   -0.771376
      9          1           0        1.204397   -0.951760    0.562542
 ---------------------------------------------------------------------
 Rotational constants (GHZ):          34.5925551           9.2825656           8.1861622
    54 basis functions,    99 primitive gaussians,    57 cartesian basis functions
    13 alpha electrons       13 beta electrons
       nuclear repulsion energy        81.9550605268 Hartrees.
 NAtoms=    9 NActive=    9 NUniq=    9 SFac= 1.00D+00 NAtFMM=   60 NAOKFM=F Big=F
 Nuclear repulsion after empirical dispersion term =       81.9524766025 Hartrees.
   1 Symmetry operations used in ECPInt.
 ECPInt:  NShTT=     465 NPrTT=    1887 LenC2=     466 LenP2D=    1699.
 LDataN:  DoStor=T MaxTD1= 4 Len=   56
 ExpMin= 1.22D-01 ExpMax= 2.27D+03 ExpMxC= 3.41D+02 IAcc=3 IRadAn=         5 AccDes= 0.00D+00
 Harris functional with IExCor= 4639 and IRadAn=       5 diagonalized for initial guess.
 HarFok:  IExCor= 4639 AccDes= 0.00D+00 IRadAn=         5 IDoV= 1 UseB2=F ITyADJ=14
 ICtDFT=  3500011 ScaDFX=  1.000000  1.000000  1.000000  1.000000
 FoFCou: FMM=F IPFlag=           0 FMFlag=      100000 FMFlg1=           0
         NFxFlg=           0 DoJE=T BraDBF=F KetDBF=T FulRan=T
         wScrn=  0.000000 ICntrl=       500 IOpCl=  0 I1Cent=   200000004 NGrid=           0
         NMat0=    1 NMatS0=      1 NMatT0=    0 NMatD0=    1 NMtDS0=    0 NMtDT0=    0
 Petite list used in FoFCou.
     Minimum is close to point  3 DX=  4.84D-03 DF= -1.60D-06 DXR=  7.99D-03 DFR=  6.34D-05 which will be used.
     Accept linear search using points  2 and  3.
     Accept linear search using points  1 and  2.
     Minimum is close to point  2 DX=  2.16D-04 DF= -7.96D-13 DXR=  2.16D-04 DFR=  4.68D-08 which will be used.
 SCF Done:  E(RwB97XD) =  -154.855224403     a.u. after    7 cycles
            Convg  =    0.2792D-09                    32 Fock formations.
              S**2 =  0.0000                  -V/T =  2.0082

 **********************************************************************

            Population analysis using the SCF Density.

 **********************************************************************

 Orbital symmetries:
       Occupied  (A) (A) (A) (A) (A) (A) (A) (A) (A) (A) (A) (A)
                 (A)
       Virtual   (A) (A) (A) (A) (A) (A) (A) (A) (A) (A) (A) (A)
                 (A) (A) (A) (A) (A) (A) (A) (A) (A) (A) (A) (A)
                 (A) (A) (A) (A) (A) (A) (A) (A) (A) (A) (A) (A)
                 (A) (A) (A) (A) (A)
 The electronic state is 1-A.
 Alpha  occ. eigenvalues --  -19.24082 -10.33230 -10.28071  -1.10587  -0.83843
 Alpha  occ. eigenvalues --   -0.71461  -0.58945  -0.54252  -0.52067  -0.46638
 Alpha  occ. eigenvalues --   -0.45724  -0.40424  -0.34950
 Alpha virt. eigenvalues --    0.13527   0.17636   0.19437   0.20544   0.22081
 Alpha virt. eigenvalues --    0.24273   0.29391   0.31939   0.51756   0.53667
 Alpha virt. eigenvalues --    0.56552   0.59533   0.67182   0.70544   0.74521
 Alpha virt. eigenvalues --    0.76219   0.78853   0.80705   0.81392   0.82252
 Alpha virt. eigenvalues --    0.83439   0.99712   1.12065   1.16504   1.25135
 Alpha virt. eigenvalues --    1.56160   1.58449   1.69015   1.92718   2.00240
 Alpha virt. eigenvalues --    2.00578   2.21308   2.23036   2.28225   2.33001
 Alpha virt. eigenvalues --    2.58230   2.72109   2.92447   3.03773   3.10585
 Alpha virt. eigenvalues --    3.44723
          Condensed to atoms (all electrons):
 Mulliken charges:
               1
     1  C   -0.359353
     2  C   -0.004511
     3  O   -0.497020
     4  H    0.118472
     5  H    0.107405
     6  H    0.128441
     7  H    0.089993
     8  H    0.108253
     9  H    0.308318
 Sum of Mulliken charges =   0.00000
 Mulliken charges with hydrogens summed into heavy atoms:
               1
     1  C   -0.005034
     2  C    0.193736
     3  O   -0.188701
 Electronic spatial extent (au):  <R**2>=            193.1301
 Charge=              0.0000 electrons
 Dipole moment (field-independent basis, Debye):
    X=             -1.2559    Y=             -0.3327    Z=              1.1594  Tot=              1.7413
 Evaluate density.
 Using the total density.
 Monte-Carlo method of calculating molar volume:
 based on  0.001 e/bohr**3 density envelope.
 Number of points per bohr**3 =  100 CutOff= 1.00D-04
 Using the SCF density.
 There are      1454 points.  Will hold      1454 in memory.
 LenV=  1048484168 MDV=  1048576000.
 Box volume = 3077.067 fraction occupied=0.157
 Integrated density= 1.5919533742575020D+01 error=-1.0080466257424980D+01
 Molar volume =  482.511 bohr**3/mol ( 43.059 cm**3/mol)
 Recommended a0 for SCRF calculation =  3.33 angstrom (  6.30 bohr)
   1 Symmetry operations used in ECPInt.
 ECPInt:  NShTT=     465 NPrTT=    1887 LenC2=     466 LenP2D=    1699.
 LDataN:  DoStor=T MaxTD1= 5 Len=  102
 Calling FoFJK, ICntrl=      2127 FMM=F ISym2X=0 I1Cent= 0 IOpClX= 0 NMat=1 NMatS=1 NMatT=0.

 GradGradGradGradGradGradGradGradGradGradGradGradGradGradGradGradGradGrad
 FormGI is forming the generalized inverse of G from B-inverse, IUseBI=4.
 Internal  Forces:  Max     0.011803257 RMS     0.003763259
 Step number   1 out of a maximum of   43
 All quantities printed in internal units (Hartrees-Bohrs-Radians)
 Mixed Optimization -- RFO/linear search
 Second derivative matrix not updated -- first step.
 ITU=  0
     Eigenvalues ---    0.00435   0.01579   0.04863   0.05695   0.05732
     Eigenvalues ---    0.05801   0.11800   0.14008   0.16000   0.16000
     Eigenvalues ---    0.16000   0.16000   0.22069   0.29886   0.33618
     Eigenvalues ---    0.34545   0.34888   0.35113   0.35229   0.44234
     Eigenvalues ---    0.54643
 Linear search not attempted -- first point.
 Iteration  1 RMS(Cart)=  0.01318898 RMS(Int)=  0.00012657
 Iteration  2 RMS(Cart)=  0.00010892 RMS(Int)=  0.00004029
 Iteration  3 RMS(Cart)=  0.00000002 RMS(Int)=  0.00004029
 Variable       Old X    -DE/DX   Delta X   Delta X   Delta X     New X
                                 (Linear)    (Quad)   (Total)
    R1        2.88191  -0.00009   0.00000  -0.00031  -0.00031   2.88160
    R2        2.05305   0.01180   0.00000   0.03336   0.03336   2.08641
    R3        2.05856   0.01067   0.00000   0.03045   0.03045   2.08902
    R4        2.05492   0.01056   0.00000   0.02995   0.02995   2.08487
    R5        2.66176   0.00077   0.00000   0.00174   0.00174   2.66350
    R6        2.07980   0.00599   0.00000   0.01773   0.01773   2.09753
    R7        2.06420   0.00619   0.00000   0.01783   0.01783   2.08203
    R8        1.82151   0.00237   0.00000   0.00432   0.00432   1.82583
    A1        1.92061   0.00247   0.00000   0.01603   0.01599   1.93660
    A2        1.92901   0.00081   0.00000   0.00355   0.00354   1.93255
    A3        1.92099   0.00024   0.00000   0.00220   0.00217   1.92315
    A4        1.89571  -0.00186   0.00000  -0.01298  -0.01300   1.88271
    A5        1.90120  -0.00105   0.00000  -0.00365  -0.00372   1.89749
    A6        1.89576  -0.00070   0.00000  -0.00571  -0.00571   1.89005
    A7        1.96845  -0.00036   0.00000   0.00308   0.00304   1.97149
    A8        1.91552   0.00004   0.00000   0.00071   0.00057   1.91609
    A9        1.92507  -0.00045   0.00000  -0.00838  -0.00841   1.91666
   A10        1.92427   0.00128   0.00000   0.01831   0.01825   1.94252
   A11        1.83711   0.00071   0.00000   0.00627   0.00630   1.84341
   A12        1.89075  -0.00126   0.00000  -0.02103  -0.02112   1.86963
   A13        1.89610  -0.00016   0.00000  -0.00101  -0.00101   1.89509
    D1       -3.07971   0.00012   0.00000  -0.00126  -0.00126  -3.08097
    D2        1.05063  -0.00132   0.00000  -0.02766  -0.02765   1.02299
    D3       -1.03124   0.00049   0.00000   0.00301   0.00297  -1.02827
    D4        1.10976   0.00033   0.00000   0.00232   0.00233   1.11209
    D5       -1.04309  -0.00110   0.00000  -0.02408  -0.02406  -1.06715
    D6       -3.12496   0.00070   0.00000   0.00660   0.00656  -3.11840
    D7       -0.98427   0.00053   0.00000   0.00576   0.00578  -0.97848
    D8       -3.13711  -0.00090   0.00000  -0.02064  -0.02060   3.12547
    D9        1.06420   0.00090   0.00000   0.01003   0.01001   1.07421
   D10       -0.97265  -0.00067   0.00000  -0.02605  -0.02610  -0.99875
   D11        1.17533   0.00007   0.00000  -0.00935  -0.00929   1.16604
   D12       -3.07236  -0.00038   0.00000  -0.02160  -0.02161  -3.09398
         Item               Value     Threshold  Converged?
 Maximum Force            0.011803     0.000015     NO 
 RMS     Force            0.003763     0.000010     NO 
 Maximum Displacement     0.034976     0.000060     NO 
 RMS     Displacement     0.013194     0.000040     NO 
 GradGradGradGradGradGradGradGradGradGradGradGradGradGradGradGradGradGrad

                    Distance matrix (angstroms):
                    1          2          3          4          5
     1  C    0.000000
     2  C    1.524877   0.000000
     3  O    2.447139   1.409462   0.000000
     4  H    1.104078   2.179143   3.393730   0.000000
     5  H    1.105460   2.177260   2.765063   1.786092   0.000000
     6  H    1.103266   2.168787   2.699076   1.793874   1.790199
     7  H    2.168652   1.109966   2.086886   2.510281   2.523864
     8  H    2.162921   1.101764   2.009154   2.508612   3.086822
     9  H    2.600733   1.946261   0.966186   3.620042   2.508657
                    6          7          8          9
     6  H    0.000000
     7  H    3.087114   0.000000
     8  H    2.513631   1.779323   0.000000
     9  H    2.928455   2.378813   2.821706   0.000000
 Framework group  C1[X(C2H6O)]
 Deg. of freedom    21
                         Standard orientation:                         
 ---------------------------------------------------------------------
 Center     Atomic      Atomic             Coordinates (Angstroms)
 Number     Number       Type             X           Y           Z
 ---------------------------------------------------------------------
      1          6           0       -1.211329   -0.237691   -0.022340
      2          6           0        0.090266    0.553644    0.047573
      3          8           0        1.234395   -0.255492   -0.103588
      4          1           0       -2.085565    0.433957    0.037586
      5          1           0       -1.277685   -0.956421    0.814958
      6          1           0       -1.263093   -0.802646   -0.968565
      7          1           0        0.127821    1.132205    0.994083
      8          1           0        0.130016    1.281017   -0.779005
      9          1           0        1.219725   -0.939889    0.578247
 ---------------------------------------------------------------------
 Rotational constants (GHZ):          34.3007114           9.2261203           8.1425263
    54 basis functions,    99 primitive gaussians,    57 cartesian basis functions
    13 alpha electrons       13 beta electrons
       nuclear repulsion energy        81.6068024089 Hartrees.
 NAtoms=    9 NActive=    9 NUniq=    9 SFac= 1.00D+00 NAtFMM=   60 NAOKFM=F Big=F
 Nuclear repulsion after empirical dispersion term =       81.6042169870 Hartrees.
   1 Symmetry operations used in ECPInt.
 ECPInt:  NShTT=     465 NPrTT=    1887 LenC2=     466 LenP2D=    1696.
 LDataN:  DoStor=T MaxTD1= 4 Len=   56
 Initial guess from the checkpoint file:  "8.chk"
 B after Tr=    -0.000000   -0.000000    0.000000
         Rot=    0.999996    0.002673    0.000010   -0.001048 Ang=   0.33 deg.
 ExpMin= 1.22D-01 ExpMax= 2.27D+03 ExpMxC= 3.41D+02 IAcc=3 IRadAn=         5 AccDes= 0.00D+00
 Harris functional with IExCor= 4639 and IRadAn=       5 diagonalized for initial guess.
 HarFok:  IExCor= 4639 AccDes= 0.00D+00 IRadAn=         5 IDoV= 1 UseB2=F ITyADJ=14
 ICtDFT=  3500011 ScaDFX=  1.000000  1.000000  1.000000  1.000000
 FoFCou: FMM=F IPFlag=           0 FMFlag=      100000 FMFlg1=           0
         NFxFlg=           0 DoJE=T BraDBF=F KetDBF=T FulRan=T
         wScrn=  0.000000 ICntrl=       500 IOpCl=  0 I1Cent=   200000004 NGrid=           0
         NMat0=    1 NMatS0=      1 NMatT0=    0 NMatD0=    1 NMtDS0=    0 NMtDT0=    0
 Petite list used in FoFCou.
     Accept linear search using points  3 and  4.
     Minimum is close to point  2 DX=  5.46D-05 DF= -1.42D-13 DXR=  5.46D-05 DFR=  2.88D-09 which will be used.
 SCF Done:  E(RwB97XD) =  -154.855992824     a.u. after    4 cycles
            Convg  =    0.7208D-09                    26 Fock formations.
              S**2 =  0.0000                  -V/T =  2.0088
   1 Symmetry operations used in ECPInt.
 ECPInt:  NShTT=     465 NPrTT=    1887 LenC2=     466 LenP2D=    1696.
 LDataN:  DoStor=T MaxTD1= 5 Len=  102
 Calling FoFJK, ICntrl=      2127 FMM=F ISym2X=0 I1Cent= 0 IOpClX= 0 NMat=1 NMatS=1 NMatT=0.

 GradGradGradGradGradGradGradGradGradGradGradGradGradGradGradGradGradGrad
 Using GEDIIS/GDIIS optimizer.
 FormGI is forming the generalized inverse of G from B-inverse, IUseBI=4.
 Internal  Forces:  Max     0.002364951 RMS     0.000522258
 Step number   2 out of a maximum of   43
 All quantities printed in internal units (Hartrees-Bohrs-Radians)
 Mixed Optimization -- En-DIIS/RFO-DIIS
 Trust test= 1.00D+00 RLast= 9.04D-02 DXMaxT set to 3.00D-01
 ITU=  1  0
 Use linear search instead of GDIIS.
     Eigenvalues ---    0.00434   0.01552   0.04843   0.05600   0.05668
     Eigenvalues ---    0.05813   0.11824   0.14039   0.15535   0.16000
     Eigenvalues ---    0.16000   0.16058   0.21951   0.29595   0.33480
     Eigenvalues ---    0.34410   0.34726   0.35145   0.35639   0.45984
     Eigenvalues ---    0.54578
 Quartic linear search produced a step of  0.02436.
 Iteration  1 RMS(Cart)=  0.00593081 RMS(Int)=  0.00004215
 Iteration  2 RMS(Cart)=  0.00003869 RMS(Int)=  0.00000233
 Iteration  3 RMS(Cart)=  0.00000000 RMS(Int)=  0.00000233
 Variable       Old X    -DE/DX   Delta X   Delta X   Delta X     New X
                                 (Linear)    (Quad)   (Total)
    R1        2.88160  -0.00100  -0.00001  -0.00344  -0.00345   2.87815
    R2        2.08641  -0.00020   0.00081  -0.00044   0.00037   2.08678
    R3        2.08902   0.00022   0.00074   0.00077   0.00151   2.09053
    R4        2.08487  -0.00010   0.00073  -0.00019   0.00054   2.08541
    R5        2.66350  -0.00236   0.00004  -0.00547  -0.00543   2.65807
    R6        2.09753   0.00019   0.00043   0.00064   0.00107   2.09860
    R7        2.08203   0.00013   0.00043   0.00047   0.00090   2.08293
    R8        1.82583   0.00029   0.00011   0.00057   0.00067   1.82650
    A1        1.93660   0.00029   0.00039   0.00189   0.00228   1.93887
    A2        1.93255   0.00062   0.00009   0.00374   0.00382   1.93637
    A3        1.92315   0.00032   0.00005   0.00230   0.00235   1.92550
    A4        1.88271  -0.00053  -0.00032  -0.00396  -0.00428   1.87843
    A5        1.89749  -0.00027  -0.00009  -0.00131  -0.00141   1.89608
    A6        1.89005  -0.00047  -0.00014  -0.00298  -0.00313   1.88692
    A7        1.97149  -0.00040   0.00007  -0.00149  -0.00141   1.97007
    A8        1.91609   0.00035   0.00001   0.00156   0.00157   1.91767
    A9        1.91666   0.00036  -0.00020   0.00340   0.00319   1.91985
   A10        1.94252  -0.00010   0.00044  -0.00216  -0.00172   1.94080
   A11        1.84341   0.00015   0.00015   0.00204   0.00220   1.84561
   A12        1.86963  -0.00035  -0.00051  -0.00339  -0.00390   1.86573
   A13        1.89509  -0.00034  -0.00002  -0.00220  -0.00223   1.89286
    D1       -3.08097  -0.00018  -0.00003  -0.00811  -0.00814  -3.08911
    D2        1.02299  -0.00001  -0.00067  -0.00539  -0.00606   1.01693
    D3       -1.02827  -0.00000   0.00007  -0.00421  -0.00414  -1.03241
    D4        1.11209  -0.00011   0.00006  -0.00684  -0.00678   1.10531
    D5       -1.06715   0.00006  -0.00059  -0.00411  -0.00470  -1.07184
    D6       -3.11840   0.00007   0.00016  -0.00294  -0.00278  -3.12118
    D7       -0.97848  -0.00012   0.00014  -0.00700  -0.00686  -0.98534
    D8        3.12547   0.00005  -0.00050  -0.00428  -0.00478   3.12069
    D9        1.07421   0.00006   0.00024  -0.00310  -0.00286   1.07135
   D10       -0.99875  -0.00016  -0.00064  -0.01415  -0.01479  -1.01354
   D11        1.16604  -0.00009  -0.00023  -0.01488  -0.01510   1.15094
   D12       -3.09398  -0.00048  -0.00053  -0.01881  -0.01933  -3.11331
         Item               Value     Threshold  Converged?
 Maximum Force            0.002365     0.000015     NO 
 RMS     Force            0.000522     0.000010     NO 
 Maximum Displacement     0.016864     0.000060     NO 
 RMS     Displacement     0.005926     0.000040     NO 
 GradGradGradGradGradGradGradGradGradGradGradGradGradGradGradGradGradGrad

                    Distance matrix (angstroms):
                    1          2          3          4          5
     1  C    0.000000
     2  C    1.523052   0.000000
     3  O    2.442097   1.406590   0.000000
     4  H    1.104274   2.179324   3.390419   0.000000
     5  H    1.106261   2.179025   2.760946   1.784109   0.000000
     6  H    1.103553   2.169106   2.699295   1.793362   1.789055
     7  H    2.168632   1.110532   2.083631   2.510137   2.529307
     8  H    2.164007   1.102240   2.008702   2.513542   3.090201
     9  H    2.600027   1.942508   0.966540   3.617010   2.507346
                    6          7          8          9
     6  H    0.000000
     7  H    3.088497   0.000000
     8  H    2.516051   1.777593   0.000000
     9  H    2.938634   2.368157   2.820866   0.000000
 Framework group  C1[X(C2H6O)]
 Deg. of freedom    21
                         Standard orientation:                         
 ---------------------------------------------------------------------
 Center     Atomic      Atomic             Coordinates (Angstroms)
 Number     Number       Type             X           Y           Z
 ---------------------------------------------------------------------
      1          6           0       -1.209341   -0.236256   -0.022389
      2          6           0        0.091454    0.552902    0.047247
      3          8           0        1.231273   -0.257136   -0.104890
      4          1           0       -2.084597    0.433512    0.046595
      5          1           0       -1.276573   -0.962110    0.809735
      6          1           0       -1.267631   -0.796134   -0.971582
      7          1           0        0.132583    1.130092    0.995108
      8          1           0        0.132762    1.284985   -0.775724
      9          1           0        1.220588   -0.933136    0.585841
 ---------------------------------------------------------------------
 Rotational constants (GHZ):          34.3124953           9.2533135           8.1661982
    54 basis functions,    99 primitive gaussians,    57 cartesian basis functions
    13 alpha electrons       13 beta electrons
       nuclear repulsion energy        81.6808419521 Hartrees.
 NAtoms=    9 NActive=    9 NUniq=    9 SFac= 1.00D+00 NAtFMM=   60 NAOKFM=F Big=F
 Nuclear repulsion after empirical dispersion term =       81.6782614057 Hartrees.
   1 Symmetry operations used in ECPInt.
 ECPInt:  NShTT=     465 NPrTT=    1887 LenC2=     466 LenP2D=    1696.
 LDataN:  DoStor=T MaxTD1= 4 Len=   56
 Initial guess from the checkpoint file:  "8.chk"
 B after Tr=    -0.000000   -0.000000   -0.000000
         Rot=    0.999999   -0.000946   -0.000330    0.000485 Ang=  -0.13 deg.
     Minimum is close to point  2 DX=  1.82D-05 DF= -2.84D-14 DXR=  1.82D-05 DFR=  6.64D-10 which will be used.
 SCF Done:  E(RwB97XD) =  -154.856020198     a.u. after    3 cycles
            Convg  =    0.6210D-09                    22 Fock formations.
              S**2 =  0.0000                  -V/T =  2.0088
   1 Symmetry operations used in ECPInt.
 ECPInt:  NShTT=     465 NPrTT=    1887 LenC2=     466 LenP2D=    1696.
 LDataN:  DoStor=T MaxTD1= 5 Len=  102
 Calling FoFJK, ICntrl=      2127 FMM=F ISym2X=0 I1Cent= 0 IOpClX= 0 NMat=1 NMatS=1 NMatT=0.

 GradGradGradGradGradGradGradGradGradGradGradGradGradGradGradGradGradGrad
 Using GEDIIS/GDIIS optimizer.
 FormGI is forming the generalized inverse of G from B-inverse, IUseBI=4.
 Internal  Forces:  Max     0.000260038 RMS     0.000126561
 Step number   3 out of a maximum of   43
 All quantities printed in internal units (Hartrees-Bohrs-Radians)
 Mixed Optimization -- En-DIIS/RFO-DIIS
 Swapping is turned off.
 Trust test= 1.22D+00 RLast= 3.52D-02 DXMaxT set to 3.00D-01
 ITU=  1  1  0
     Eigenvalues ---    0.00429   0.01042   0.04982   0.05487   0.05633
     Eigenvalues ---    0.05682   0.12060   0.14052   0.15094   0.16000
     Eigenvalues ---    0.16013   0.17051   0.22627   0.29506   0.33566
     Eigenvalues ---    0.34579   0.35002   0.35199   0.37614   0.47219
     Eigenvalues ---    0.54817
 En-DIIS/RFO-DIIS/Sim-DIIS IScMMF=       -3 using points:     3    2
 RFO step:  Lambda=-1.28782606D-05.
 DidBck=F Rises=F RFO-DIIS coefs:    1.84383   -0.84383
 Iteration  1 RMS(Cart)=  0.00485463 RMS(Int)=  0.00004428
 Iteration  2 RMS(Cart)=  0.00003848 RMS(Int)=  0.00000209
 Iteration  3 RMS(Cart)=  0.00000000 RMS(Int)=  0.00000209
 Variable       Old X    -DE/DX   Delta X   Delta X   Delta X     New X
                                 (Linear)    (Quad)   (Total)
    R1        2.87815  -0.00022  -0.00291   0.00119  -0.00172   2.87643
    R2        2.08678  -0.00024   0.00031  -0.00070  -0.00039   2.08639
    R3        2.09053  -0.00023   0.00128  -0.00141  -0.00013   2.09040
    R4        2.08541  -0.00026   0.00046  -0.00091  -0.00045   2.08496
    R5        2.65807  -0.00010  -0.00458   0.00308  -0.00150   2.65657
    R6        2.09860  -0.00001   0.00090  -0.00047   0.00043   2.09903
    R7        2.08293  -0.00012   0.00076  -0.00076  -0.00000   2.08293
    R8        1.82650  -0.00006   0.00057  -0.00051   0.00006   1.82655
    A1        1.93887   0.00016   0.00192   0.00027   0.00219   1.94106
    A2        1.93637  -0.00003   0.00323  -0.00279   0.00043   1.93680
    A3        1.92550   0.00009   0.00198  -0.00064   0.00134   1.92684
    A4        1.87843  -0.00008  -0.00361   0.00180  -0.00182   1.87661
    A5        1.89608  -0.00009  -0.00119   0.00056  -0.00063   1.89545
    A6        1.88692  -0.00007  -0.00264   0.00094  -0.00170   1.88522
    A7        1.97007   0.00013  -0.00119   0.00211   0.00092   1.97099
    A8        1.91767  -0.00006   0.00133  -0.00123   0.00010   1.91776
    A9        1.91985  -0.00007   0.00270  -0.00312  -0.00043   1.91942
   A10        1.94080   0.00005  -0.00145   0.00292   0.00147   1.94227
   A11        1.84561  -0.00002   0.00185  -0.00126   0.00060   1.84621
   A12        1.86573  -0.00005  -0.00329   0.00041  -0.00289   1.86285
   A13        1.89286   0.00023  -0.00188   0.00320   0.00132   1.89417
    D1       -3.08911   0.00001  -0.00687   0.00465  -0.00222  -3.09133
    D2        1.01693  -0.00011  -0.00511   0.00022  -0.00489   1.01203
    D3       -1.03241   0.00003  -0.00349   0.00232  -0.00118  -1.03359
    D4        1.10531   0.00002  -0.00572   0.00406  -0.00166   1.10364
    D5       -1.07184  -0.00010  -0.00396  -0.00037  -0.00434  -1.07618
    D6       -3.12118   0.00004  -0.00235   0.00172  -0.00062  -3.12180
    D7       -0.98534   0.00006  -0.00579   0.00510  -0.00069  -0.98603
    D8        3.12069  -0.00006  -0.00403   0.00067  -0.00336   3.11734
    D9        1.07135   0.00008  -0.00241   0.00277   0.00036   1.07171
   D10       -1.01354  -0.00020  -0.01248  -0.00620  -0.01868  -1.03222
   D11        1.15094  -0.00014  -0.01274  -0.00398  -0.01672   1.13422
   D12       -3.11331  -0.00019  -0.01631  -0.00275  -0.01907  -3.13237
         Item               Value     Threshold  Converged?
 Maximum Force            0.000260     0.000015     NO 
 RMS     Force            0.000127     0.000010     NO 
 Maximum Displacement     0.014367     0.000060     NO 
 RMS     Displacement     0.004855     0.000040     NO 
 GradGradGradGradGradGradGradGradGradGradGradGradGradGradGradGradGradGrad

                    Distance matrix (angstroms):
                    1          2          3          4          5
     1  C    0.000000
     2  C    1.522140   0.000000
     3  O    2.441415   1.405797   0.000000
     4  H    1.104070   2.179938   3.390452   0.000000
     5  H    1.106194   2.178482   2.760163   1.782702   0.000000
     6  H    1.103314   2.169096   2.700312   1.792593   1.787701
     7  H    2.168077   1.110760   2.084147   2.509513   2.530641
     8  H    2.162893   1.102239   2.008471   2.514544   3.089462
     9  H    2.608576   1.942704   0.966570   3.623322   2.515936
                    6          7          8          9
     6  H    0.000000
     7  H    3.088515   0.000000
     8  H    2.516011   1.775872   0.000000
     9  H    2.952904   2.363686   2.821354   0.000000
 Framework group  C1[X(C2H6O)]
 Deg. of freedom    21
                         Standard orientation:                         
 ---------------------------------------------------------------------
 Center     Atomic      Atomic             Coordinates (Angstroms)
 Number     Number       Type             X           Y           Z
 ---------------------------------------------------------------------
      1          6           0       -1.209277   -0.235958   -0.022154
      2          6           0        0.091345    0.551765    0.047021
      3          8           0        1.230598   -0.257501   -0.106144
      4          1           0       -2.085306    0.432138    0.049894
      5          1           0       -1.276116   -0.963533    0.808406
      6          1           0       -1.270225   -0.795106   -0.971333
      7          1           0        0.132388    1.130693    0.994093
      8          1           0        0.131716    1.284884   -0.775073
      9          1           0        1.230351   -0.923909    0.593969
 ---------------------------------------------------------------------
 Rotational constants (GHZ):          34.3656830           9.2512773           8.1695139
    54 basis functions,    99 primitive gaussians,    57 cartesian basis functions
    13 alpha electrons       13 beta electrons
       nuclear repulsion energy        81.6978489827 Hartrees.
 NAtoms=    9 NActive=    9 NUniq=    9 SFac= 1.00D+00 NAtFMM=   60 NAOKFM=F Big=F
 Nuclear repulsion after empirical dispersion term =       81.6952719939 Hartrees.
   1 Symmetry operations used in ECPInt.
 ECPInt:  NShTT=     465 NPrTT=    1887 LenC2=     466 LenP2D=    1694.
 LDataN:  DoStor=T MaxTD1= 4 Len=   56
 Initial guess from the checkpoint file:  "8.chk"
 B after Tr=     0.000000    0.000000    0.000000
         Rot=    1.000000    0.000324   -0.000290   -0.000219 Ang=   0.06 deg.
     Minimum is close to point  2 DX=  3.68D-05 DF= -5.68D-14 DXR=  3.68D-05 DFR=  1.50D-09 which will be used.
 SCF Done:  E(RwB97XD) =  -154.856028538     a.u. after    3 cycles
            Convg  =    0.7472D-09                    21 Fock formations.
              S**2 =  0.0000                  -V/T =  2.0088
   1 Symmetry operations used in ECPInt.
 ECPInt:  NShTT=     465 NPrTT=    1887 LenC2=     466 LenP2D=    1694.
 LDataN:  DoStor=T MaxTD1= 5 Len=  102
 Calling FoFJK, ICntrl=      2127 FMM=F ISym2X=0 I1Cent= 0 IOpClX= 0 NMat=1 NMatS=1 NMatT=0.

 GradGradGradGradGradGradGradGradGradGradGradGradGradGradGradGradGradGrad
 Using GEDIIS/GDIIS optimizer.
 FormGI is forming the generalized inverse of G from B-inverse, IUseBI=4.
 Internal  Forces:  Max     0.000255080 RMS     0.000093482
 Step number   4 out of a maximum of   43
 All quantities printed in internal units (Hartrees-Bohrs-Radians)
 Mixed Optimization -- En-DIIS/RFO-DIIS
 Swapping is turned off.
 Trust test= 1.29D+00 RLast= 3.30D-02 DXMaxT set to 3.00D-01
 ITU=  1  1  1  0
     Eigenvalues ---    0.00422   0.00574   0.05014   0.05585   0.05642
     Eigenvalues ---    0.06222   0.12099   0.14056   0.15962   0.16000
     Eigenvalues ---    0.16840   0.17346   0.22588   0.31504   0.33749
     Eigenvalues ---    0.34543   0.34950   0.35160   0.35476   0.51731
     Eigenvalues ---    0.55631
 En-DIIS/RFO-DIIS/Sim-DIIS IScMMF=       -3 using points:     4    3    2
 RFO step:  Lambda=-5.18540930D-06.
 DidBck=F Rises=F RFO-DIIS coefs:    1.65155   -0.52957   -0.12199
 Iteration  1 RMS(Cart)=  0.00378262 RMS(Int)=  0.00002877
 Iteration  2 RMS(Cart)=  0.00002518 RMS(Int)=  0.00000089
 Iteration  3 RMS(Cart)=  0.00000000 RMS(Int)=  0.00000089
 Variable       Old X    -DE/DX   Delta X   Delta X   Delta X     New X
                                 (Linear)    (Quad)   (Total)
    R1        2.87643   0.00022  -0.00154   0.00147  -0.00007   2.87636
    R2        2.08639  -0.00010  -0.00021  -0.00012  -0.00033   2.08606
    R3        2.09040  -0.00015   0.00010  -0.00037  -0.00027   2.09013
    R4        2.08496  -0.00009  -0.00023  -0.00009  -0.00032   2.08464
    R5        2.65657   0.00026  -0.00164   0.00119  -0.00045   2.65612
    R6        2.09903  -0.00010   0.00041  -0.00048  -0.00007   2.09896
    R7        2.08293  -0.00006   0.00011  -0.00017  -0.00006   2.08287
    R8        1.82655  -0.00012   0.00012  -0.00027  -0.00015   1.82641
    A1        1.94106  -0.00013   0.00170  -0.00168   0.00002   1.94108
    A2        1.93680  -0.00009   0.00075  -0.00067   0.00008   1.93688
    A3        1.92684  -0.00004   0.00116  -0.00090   0.00026   1.92710
    A4        1.87661   0.00013  -0.00171   0.00178   0.00007   1.87668
    A5        1.89545   0.00007  -0.00059   0.00055  -0.00004   1.89541
    A6        1.88522   0.00007  -0.00149   0.00108  -0.00041   1.88481
    A7        1.97099   0.00005   0.00042  -0.00026   0.00017   1.97116
    A8        1.91776  -0.00006   0.00026  -0.00040  -0.00015   1.91761
    A9        1.91942  -0.00000   0.00011   0.00025   0.00036   1.91978
   A10        1.94227  -0.00001   0.00075  -0.00069   0.00006   1.94233
   A11        1.84621  -0.00005   0.00066  -0.00068  -0.00002   1.84618
   A12        1.86285   0.00006  -0.00236   0.00193  -0.00043   1.86241
   A13        1.89417   0.00006   0.00059  -0.00009   0.00050   1.89467
    D1       -3.09133   0.00002  -0.00244   0.00171  -0.00073  -3.09206
    D2        1.01203   0.00004  -0.00393   0.00311  -0.00082   1.01121
    D3       -1.03359  -0.00001  -0.00127   0.00086  -0.00042  -1.03401
    D4        1.10364  -0.00000  -0.00191   0.00102  -0.00089   1.10275
    D5       -1.07618   0.00001  -0.00340   0.00242  -0.00098  -1.07716
    D6       -3.12180  -0.00003  -0.00074   0.00017  -0.00058  -3.12238
    D7       -0.98603  -0.00000  -0.00128   0.00069  -0.00059  -0.98662
    D8        3.11734   0.00001  -0.00277   0.00209  -0.00068   3.11665
    D9        1.07171  -0.00003  -0.00012  -0.00016  -0.00028   1.07143
   D10       -1.03222  -0.00009  -0.01397  -0.00086  -0.01483  -1.04705
   D11        1.13422  -0.00013  -0.01274  -0.00212  -0.01486   1.11936
   D12       -3.13237  -0.00009  -0.01478  -0.00057  -0.01535   3.13546
         Item               Value     Threshold  Converged?
 Maximum Force            0.000255     0.000015     NO 
 RMS     Force            0.000093     0.000010     NO 
 Maximum Displacement     0.010809     0.000060     NO 
 RMS     Displacement     0.003783     0.000040     NO 
 GradGradGradGradGradGradGradGradGradGradGradGradGradGradGradGradGradGrad

                    Distance matrix (angstroms):
                    1          2          3          4          5
     1  C    0.000000
     2  C    1.522103   0.000000
     3  O    2.441323   1.405559   0.000000
     4  H    1.103897   2.179788   3.390169   0.000000
     5  H    1.106049   2.178398   2.759761   1.782494   0.000000
     6  H    1.103146   2.169127   2.700714   1.792291   1.787180
     7  H    2.167907   1.110723   2.083954   2.508960   2.530819
     8  H    2.163096   1.102206   2.008226   2.514882   3.089504
     9  H    2.615162   1.942765   0.966492   3.627826   2.522520
                    6          7          8          9
     6  H    0.000000
     7  H    3.088355   0.000000
     8  H    2.516299   1.775531   0.000000
     9  H    2.963477   2.358451   2.821298   0.000000
 Framework group  C1[X(C2H6O)]
 Deg. of freedom    21
                         Standard orientation:                         
 ---------------------------------------------------------------------
 Center     Atomic      Atomic             Coordinates (Angstroms)
 Number     Number       Type             X           Y           Z
 ---------------------------------------------------------------------
      1          6           0       -1.209621   -0.235952   -0.021930
      2          6           0        0.091280    0.551271    0.046901
      3          8           0        1.230113   -0.257990   -0.107213
      4          1           0       -2.085249    0.432217    0.051643
      5          1           0       -1.275916   -0.964456    0.807667
      6          1           0       -1.271802   -0.794176   -0.971378
      7          1           0        0.132847    1.129736    0.994190
      8          1           0        0.131662    1.285079   -0.774533
      9          1           0        1.237605   -0.916393    0.600288
 ---------------------------------------------------------------------
 Rotational constants (GHZ):          34.3870099           9.2475446           8.1700655
    54 basis functions,    99 primitive gaussians,    57 cartesian basis functions
    13 alpha electrons       13 beta electrons
       nuclear repulsion energy        81.7002879903 Hartrees.
 NAtoms=    9 NActive=    9 NUniq=    9 SFac= 1.00D+00 NAtFMM=   60 NAOKFM=F Big=F
 Nuclear repulsion after empirical dispersion term =       81.6977127128 Hartrees.
   1 Symmetry operations used in ECPInt.
 ECPInt:  NShTT=     465 NPrTT=    1887 LenC2=     466 LenP2D=    1694.
 LDataN:  DoStor=T MaxTD1= 4 Len=   56
 Initial guess from the checkpoint file:  "8.chk"
 B after Tr=    -0.000000    0.000000   -0.000000
         Rot=    1.000000    0.000170   -0.000207   -0.000101 Ang=   0.03 deg.
     Accept linear search using points  1 and  2.
     Minimum is close to point  2 DX= -6.05D-07 DF=  0.00D+00 DXR=  6.05D-07 DFR=  0.00D+00 which will be used.
 SCF Done:  E(RwB97XD) =  -154.856031828     a.u. after    3 cycles
            Convg  =    0.4740D-09                    20 Fock formations.
              S**2 =  0.0000                  -V/T =  2.0088
   1 Symmetry operations used in ECPInt.
 ECPInt:  NShTT=     465 NPrTT=    1887 LenC2=     466 LenP2D=    1694.
 LDataN:  DoStor=T MaxTD1= 5 Len=  102
 Calling FoFJK, ICntrl=      2127 FMM=F ISym2X=0 I1Cent= 0 IOpClX= 0 NMat=1 NMatS=1 NMatT=0.

 GradGradGradGradGradGradGradGradGradGradGradGradGradGradGradGradGradGrad
 Using GEDIIS/GDIIS optimizer.
 FormGI is forming the generalized inverse of G from B-inverse, IUseBI=4.
 Internal  Forces:  Max     0.000419630 RMS     0.000104800
 Step number   5 out of a maximum of   43
 All quantities printed in internal units (Hartrees-Bohrs-Radians)
 Mixed Optimization -- En-DIIS/RFO-DIIS
 Swapping is turned off.
 Trust test= 1.29D+00 RLast= 2.61D-02 DXMaxT set to 3.00D-01
 ITU=  1  1  1  1  0
     Eigenvalues ---    0.00385   0.00442   0.05022   0.05580   0.05642
     Eigenvalues ---    0.06192   0.12148   0.14064   0.15969   0.16003
     Eigenvalues ---    0.16819   0.17094   0.22542   0.30417   0.33501
     Eigenvalues ---    0.34583   0.34918   0.35188   0.37190   0.54248
     Eigenvalues ---    0.55485
 En-DIIS/RFO-DIIS/Sim-DIIS IScMMF=       -3 using points:     5    4    3    2
 RFO step:  Lambda=-2.76084778D-06.
 DidBck=F Rises=F RFO-DIIS coefs:    2.59086   -2.00000    0.18376    0.22538
 Iteration  1 RMS(Cart)=  0.00325657 RMS(Int)=  0.00002195
 Iteration  2 RMS(Cart)=  0.00001946 RMS(Int)=  0.00000089
 Iteration  3 RMS(Cart)=  0.00000000 RMS(Int)=  0.00000089
 Variable       Old X    -DE/DX   Delta X   Delta X   Delta X     New X
                                 (Linear)    (Quad)   (Total)
    R1        2.87636   0.00025   0.00137  -0.00024   0.00113   2.87749
    R2        2.08606   0.00003  -0.00045   0.00047   0.00003   2.08609
    R3        2.09013  -0.00007  -0.00072   0.00036  -0.00037   2.08976
    R4        2.08464   0.00001  -0.00044   0.00038  -0.00006   2.08459
    R5        2.65612   0.00042   0.00112   0.00001   0.00113   2.65725
    R6        2.09896  -0.00008  -0.00053   0.00014  -0.00039   2.09857
    R7        2.08287  -0.00004  -0.00030   0.00011  -0.00019   2.08268
    R8        1.82641  -0.00007  -0.00041   0.00021  -0.00020   1.82621
    A1        1.94108  -0.00013  -0.00138   0.00014  -0.00123   1.93985
    A2        1.93688  -0.00012  -0.00091   0.00009  -0.00082   1.93606
    A3        1.92710  -0.00008  -0.00066  -0.00019  -0.00085   1.92625
    A4        1.87668   0.00015   0.00183  -0.00017   0.00166   1.87834
    A5        1.89541   0.00009   0.00051   0.00003   0.00055   1.89596
    A6        1.88481   0.00010   0.00074   0.00009   0.00083   1.88564
    A7        1.97116   0.00003   0.00021  -0.00039  -0.00018   1.97097
    A8        1.91761  -0.00005  -0.00063   0.00033  -0.00031   1.91731
    A9        1.91978  -0.00003   0.00002  -0.00021  -0.00019   1.91959
   A10        1.94233   0.00000  -0.00012  -0.00001  -0.00012   1.94221
   A11        1.84618  -0.00003  -0.00078   0.00032  -0.00045   1.84573
   A12        1.86241   0.00008   0.00137  -0.00003   0.00135   1.86376
   A13        1.89467   0.00001   0.00075  -0.00074   0.00001   1.89468
    D1       -3.09206   0.00003   0.00158   0.00025   0.00183  -3.09023
    D2        1.01121   0.00004   0.00206   0.00030   0.00237   1.01358
    D3       -1.03401  -0.00001   0.00075   0.00027   0.00102  -1.03299
    D4        1.10275   0.00001   0.00079   0.00031   0.00110   1.10385
    D5       -1.07716   0.00002   0.00128   0.00036   0.00163  -1.07553
    D6       -3.12238  -0.00003  -0.00004   0.00032   0.00029  -3.12209
    D7       -0.98662   0.00000   0.00088   0.00026   0.00114  -0.98549
    D8        3.11665   0.00001   0.00136   0.00031   0.00167   3.11832
    D9        1.07143  -0.00003   0.00005   0.00027   0.00032   1.07176
   D10       -1.04705  -0.00005  -0.01262  -0.00073  -0.01335  -1.06040
   D11        1.11936  -0.00009  -0.01339  -0.00060  -0.01399   1.10537
   D12        3.13546  -0.00001  -0.01226  -0.00046  -0.01272   3.12274
         Item               Value     Threshold  Converged?
 Maximum Force            0.000420     0.000015     NO 
 RMS     Force            0.000105     0.000010     NO 
 Maximum Displacement     0.010234     0.000060     NO 
 RMS     Displacement     0.003259     0.000040     NO 
 GradGradGradGradGradGradGradGradGradGradGradGradGradGradGradGradGradGrad

                    Distance matrix (angstroms):
                    1          2          3          4          5
     1  C    0.000000
     2  C    1.522702   0.000000
     3  O    2.442173   1.406157   0.000000
     4  H    1.103912   2.179441   3.390439   0.000000
     5  H    1.105856   2.178189   2.760170   1.783434   0.000000
     6  H    1.103116   2.169013   2.700186   1.792631   1.787540
     7  H    2.168054   1.110518   2.084227   2.508935   2.529581
     8  H    2.163410   1.102107   2.008324   2.513792   3.089180
     9  H    2.621573   1.943225   0.966389   3.632661   2.529003
                    6          7          8          9
     6  H    0.000000
     7  H    3.088014   0.000000
     8  H    2.516008   1.776175   0.000000
     9  H    2.971568   2.353678   2.821248   0.000000
 Framework group  C1[X(C2H6O)]
 Deg. of freedom    21
                         Standard orientation:                         
 ---------------------------------------------------------------------
 Center     Atomic      Atomic             Coordinates (Angstroms)
 Number     Number       Type             X           Y           Z
 ---------------------------------------------------------------------
      1          6           0       -1.210396   -0.236420   -0.021653
      2          6           0        0.090953    0.551242    0.046891
      3          8           0        1.230144   -0.258371   -0.108188
      4          1           0       -2.085268    0.432883    0.050837
      5          1           0       -1.275892   -0.964082    0.808489
      6          1           0       -1.271603   -0.794836   -0.971015
      7          1           0        0.132845    1.128673    0.994556
      8          1           0        0.131033    1.284681   -0.774754
      9          1           0        1.244394   -0.909282    0.605968
 ---------------------------------------------------------------------
 Rotational constants (GHZ):          34.3848425           9.2388370           8.1660247
    54 basis functions,    99 primitive gaussians,    57 cartesian basis functions
    13 alpha electrons       13 beta electrons
       nuclear repulsion energy        81.6813577089 Hartrees.
 NAtoms=    9 NActive=    9 NUniq=    9 SFac= 1.00D+00 NAtFMM=   60 NAOKFM=F Big=F
 Nuclear repulsion after empirical dispersion term =       81.6787824046 Hartrees.
   1 Symmetry operations used in ECPInt.
 ECPInt:  NShTT=     465 NPrTT=    1887 LenC2=     466 LenP2D=    1694.
 LDataN:  DoStor=T MaxTD1= 4 Len=   56
 Initial guess from the checkpoint file:  "8.chk"
 B after Tr=    -0.000000   -0.000000    0.000000
         Rot=    1.000000    0.000413   -0.000130   -0.000189 Ang=   0.05 deg.
     Accept linear search using points  1 and  2.
     Minimum is close to point  2 DX= -3.28D-05 DF= -2.84D-14 DXR=  3.28D-05 DFR=  1.57D-09 which will be used.
 SCF Done:  E(RwB97XD) =  -154.856033874     a.u. after    3 cycles
            Convg  =    0.4050D-09                    20 Fock formations.
              S**2 =  0.0000                  -V/T =  2.0088
   1 Symmetry operations used in ECPInt.
 ECPInt:  NShTT=     465 NPrTT=    1887 LenC2=     466 LenP2D=    1694.
 LDataN:  DoStor=T MaxTD1= 5 Len=  102
 Calling FoFJK, ICntrl=      2127 FMM=F ISym2X=0 I1Cent= 0 IOpClX= 0 NMat=1 NMatS=1 NMatT=0.

 GradGradGradGradGradGradGradGradGradGradGradGradGradGradGradGradGradGrad
 Using GEDIIS/GDIIS optimizer.
 FormGI is forming the generalized inverse of G from B-inverse, IUseBI=4.
 Internal  Forces:  Max     0.000050010 RMS     0.000011737
 Step number   6 out of a maximum of   43
 All quantities printed in internal units (Hartrees-Bohrs-Radians)
 Mixed Optimization -- En-DIIS/RFO-DIIS
 Swapping is turned off.
 Trust test= 2.24D+00 RLast= 2.38D-02 DXMaxT set to 3.00D-01
 ITU=  1  1  1  1  1  0
     Eigenvalues ---    0.00393   0.00433   0.05018   0.05530   0.05651
     Eigenvalues ---    0.05817   0.12062   0.14086   0.14703   0.16009
     Eigenvalues ---    0.16090   0.17165   0.22739   0.29054   0.33468
     Eigenvalues ---    0.34580   0.34946   0.35191   0.38507   0.46155
     Eigenvalues ---    0.54763
 En-DIIS/RFO-DIIS/Sim-DIIS IScMMF=       -3 using points:     6    5    4    3    2
 RFO step:  Lambda=-1.37019410D-08.
 DIIS inversion failure, remove point   5.
 RFO-DIIS uses    4 points instead of    5
 DidBck=F Rises=F RFO-DIIS coefs:    1.09671   -0.15687    0.06575   -0.00559    0.00000
 Iteration  1 RMS(Cart)=  0.00015196 RMS(Int)=  0.00000004
 Iteration  2 RMS(Cart)=  0.00000003 RMS(Int)=  0.00000003
 Variable       Old X    -DE/DX   Delta X   Delta X   Delta X     New X
                                 (Linear)    (Quad)   (Total)
    R1        2.87749   0.00002   0.00010  -0.00003   0.00008   2.87757
    R2        2.08609   0.00001   0.00002   0.00002   0.00004   2.08613
    R3        2.08976   0.00001  -0.00002   0.00004   0.00002   2.08979
    R4        2.08459   0.00001   0.00001   0.00000   0.00001   2.08460
    R5        2.65725   0.00005   0.00013   0.00001   0.00014   2.65739
    R6        2.09857  -0.00001  -0.00003   0.00000  -0.00003   2.09855
    R7        2.08268   0.00000  -0.00001   0.00002   0.00001   2.08269
    R8        1.82621   0.00002  -0.00001   0.00004   0.00003   1.82624
    A1        1.93985   0.00001  -0.00011   0.00014   0.00003   1.93988
    A2        1.93606   0.00001  -0.00008   0.00014   0.00006   1.93612
    A3        1.92625  -0.00002  -0.00009  -0.00007  -0.00016   1.92608
    A4        1.87834  -0.00001   0.00015  -0.00013   0.00001   1.87836
    A5        1.89596   0.00000   0.00005  -0.00004   0.00002   1.89597
    A6        1.88564   0.00001   0.00010  -0.00004   0.00005   1.88569
    A7        1.97097  -0.00001  -0.00002  -0.00004  -0.00006   1.97091
    A8        1.91731   0.00001  -0.00002   0.00012   0.00010   1.91740
    A9        1.91959   0.00000  -0.00004   0.00007   0.00003   1.91962
   A10        1.94221  -0.00001  -0.00001  -0.00009  -0.00009   1.94211
   A11        1.84573   0.00000  -0.00004   0.00001  -0.00003   1.84569
   A12        1.86376  -0.00000   0.00014  -0.00007   0.00007   1.86383
   A13        1.89468  -0.00000  -0.00002  -0.00001  -0.00003   1.89465
    D1       -3.09023   0.00000   0.00021   0.00003   0.00024  -3.08999
    D2        1.01358   0.00001   0.00025   0.00008   0.00033   1.01391
    D3       -1.03299  -0.00000   0.00012   0.00006   0.00018  -1.03281
    D4        1.10385  -0.00000   0.00015   0.00001   0.00017   1.10402
    D5       -1.07553   0.00000   0.00019   0.00007   0.00026  -1.07527
    D6       -3.12209  -0.00000   0.00006   0.00004   0.00010  -3.12199
    D7       -0.98549  -0.00000   0.00014   0.00003   0.00017  -0.98531
    D8        3.11832   0.00000   0.00018   0.00008   0.00026   3.11859
    D9        1.07176  -0.00000   0.00005   0.00006   0.00011   1.07186
   D10       -1.06040  -0.00000  -0.00050   0.00000  -0.00050  -1.06091
   D11        1.10537   0.00000  -0.00055   0.00006  -0.00049   1.10487
   D12        3.12274  -0.00000  -0.00041  -0.00007  -0.00048   3.12226
         Item               Value     Threshold  Converged?
 Maximum Force            0.000050     0.000015     NO 
 RMS     Force            0.000012     0.000010     NO 
 Maximum Displacement     0.000349     0.000060     NO 
 RMS     Displacement     0.000152     0.000040     NO 
 GradGradGradGradGradGradGradGradGradGradGradGradGradGradGradGradGradGrad

                    Distance matrix (angstroms):
                    1          2          3          4          5
     1  C    0.000000
     2  C    1.522743   0.000000
     3  O    2.442218   1.406231   0.000000
     4  H    1.103934   2.179516   3.390530   0.000000
     5  H    1.105867   2.178274   2.760318   1.783471   0.000000
     6  H    1.103123   2.168936   2.699989   1.792665   1.787589
     7  H    2.168148   1.110502   2.084213   2.509208   2.529650
     8  H    2.163469   1.102110   2.008364   2.513827   3.089265
     9  H    2.621797   1.943278   0.966404   3.632913   2.529349
                    6          7          8          9
     6  H    0.000000
     7  H    3.088005   0.000000
     8  H    2.515975   1.776210   0.000000
     9  H    2.971677   2.353462   2.821280   0.000000
 Framework group  C1[X(C2H6O)]
 Deg. of freedom    21
                         Standard orientation:                         
 ---------------------------------------------------------------------
 Center     Atomic      Atomic             Coordinates (Angstroms)
 Number     Number       Type             X           Y           Z
 ---------------------------------------------------------------------
      1          6           0       -1.210433   -0.236439   -0.021638
      2          6           0        0.090930    0.551280    0.046904
      3          8           0        1.230150   -0.258409   -0.108229
      4          1           0       -2.085362    0.432850    0.050634
      5          1           0       -1.276027   -0.964030    0.808573
      6          1           0       -1.271399   -0.794910   -0.970992
      7          1           0        0.132959    1.128645    0.994585
      8          1           0        0.131031    1.284707   -0.774755
      9          1           0        1.244613   -0.909041    0.606196
 ---------------------------------------------------------------------
 Rotational constants (GHZ):          34.3825022           9.2383899           8.1656807
    54 basis functions,    99 primitive gaussians,    57 cartesian basis functions
    13 alpha electrons       13 beta electrons
       nuclear repulsion energy        81.6793236412 Hartrees.
 NAtoms=    9 NActive=    9 NUniq=    9 SFac= 1.00D+00 NAtFMM=   60 NAOKFM=F Big=F
 Nuclear repulsion after empirical dispersion term =       81.6767483704 Hartrees.
   1 Symmetry operations used in ECPInt.
 ECPInt:  NShTT=     465 NPrTT=    1887 LenC2=     466 LenP2D=    1694.
 LDataN:  DoStor=T MaxTD1= 4 Len=   56
 Initial guess from the checkpoint file:  "8.chk"
 B after Tr=     0.000000    0.000000   -0.000000
         Rot=    1.000000    0.000022    0.000002   -0.000005 Ang=   0.00 deg.
     Accept linear search using points  1 and  2.
     Minimum is close to point  2 DX= -2.17D-06 DF=  0.00D+00 DXR=  2.17D-06 DFR=  0.00D+00 which will be used.
 SCF Done:  E(RwB97XD) =  -154.856033889     a.u. after    2 cycles
            Convg  =    0.1041D-07                    10 Fock formations.
              S**2 =  0.0000                  -V/T =  2.0088
   1 Symmetry operations used in ECPInt.
 ECPInt:  NShTT=     465 NPrTT=    1887 LenC2=     466 LenP2D=    1694.
 LDataN:  DoStor=T MaxTD1= 5 Len=  102
 Calling FoFJK, ICntrl=      2127 FMM=F ISym2X=0 I1Cent= 0 IOpClX= 0 NMat=1 NMatS=1 NMatT=0.

 GradGradGradGradGradGradGradGradGradGradGradGradGradGradGradGradGradGrad
 Using GEDIIS/GDIIS optimizer.
 FormGI is forming the generalized inverse of G from B-inverse, IUseBI=4.
 Internal  Forces:  Max     0.000008739 RMS     0.000002900
 Step number   7 out of a maximum of   43
 All quantities printed in internal units (Hartrees-Bohrs-Radians)
 Mixed Optimization -- En-DIIS/RFO-DIIS
 Swapping is turned off.
 Trust test= 1.42D+00 RLast= 1.11D-03 DXMaxT set to 3.00D-01
 ITU=  0  1  1  1  1  1  0
     Eigenvalues ---    0.00371   0.00413   0.04909   0.05474   0.05636
     Eigenvalues ---    0.05728   0.11819   0.13548   0.14588   0.15066
     Eigenvalues ---    0.16204   0.17129   0.22057   0.30726   0.33259
     Eigenvalues ---    0.34586   0.34998   0.35224   0.37286   0.43833
     Eigenvalues ---    0.54739
 En-DIIS/RFO-DIIS/Sim-DIIS IScMMF=       -3 using points:     7    6    5    4    3    2
 RFO step:  Lambda=-1.18077877D-09.
 DIIS inversion failure, remove point   6.
 DIIS inversion failure, remove point   5.
 DIIS inversion failure, remove point   4.
 DIIS inversion failure, remove point   3.
 RFO-DIIS uses    2 points instead of    6
 DidBck=F Rises=F RFO-DIIS coefs:    1.20307   -0.20307    0.00000    0.00000    0.00000
                  RFO-DIIS coefs:    0.00000
 Iteration  1 RMS(Cart)=  0.00005416 RMS(Int)=  0.00000000
 Iteration  2 RMS(Cart)=  0.00000000 RMS(Int)=  0.00000000
 Variable       Old X    -DE/DX   Delta X   Delta X   Delta X     New X
                                 (Linear)    (Quad)   (Total)
    R1        2.87757  -0.00001   0.00002  -0.00004  -0.00002   2.87754
    R2        2.08613   0.00000   0.00001  -0.00000   0.00000   2.08614
    R3        2.08979   0.00000   0.00000  -0.00000   0.00000   2.08979
    R4        2.08460   0.00000   0.00000   0.00000   0.00000   2.08460
    R5        2.65739   0.00001   0.00003   0.00001   0.00003   2.65743
    R6        2.09855  -0.00000  -0.00001  -0.00000  -0.00001   2.09854
    R7        2.08269  -0.00000   0.00000  -0.00000  -0.00000   2.08268
    R8        1.82624   0.00000   0.00001  -0.00000   0.00000   1.82624
    A1        1.93988   0.00000   0.00001   0.00002   0.00003   1.93990
    A2        1.93612   0.00000   0.00001  -0.00000   0.00001   1.93613
    A3        1.92608  -0.00000  -0.00003  -0.00000  -0.00004   1.92605
    A4        1.87836  -0.00000   0.00000  -0.00002  -0.00001   1.87834
    A5        1.89597  -0.00000   0.00000  -0.00000   0.00000   1.89597
    A6        1.88569   0.00000   0.00001  -0.00000   0.00001   1.88570
    A7        1.97091  -0.00001  -0.00001  -0.00003  -0.00004   1.97087
    A8        1.91740   0.00001   0.00002   0.00003   0.00005   1.91746
    A9        1.91962   0.00000   0.00001  -0.00001  -0.00001   1.91961
   A10        1.94211   0.00000  -0.00002   0.00001  -0.00001   1.94211
   A11        1.84569   0.00000  -0.00001  -0.00001  -0.00001   1.84568
   A12        1.86383  -0.00000   0.00001  -0.00000   0.00001   1.86384
   A13        1.89465  -0.00000  -0.00001  -0.00003  -0.00004   1.89461
    D1       -3.08999   0.00000   0.00005   0.00007   0.00012  -3.08987
    D2        1.01391   0.00000   0.00007   0.00004   0.00011   1.01402
    D3       -1.03281  -0.00000   0.00004   0.00003   0.00007  -1.03274
    D4        1.10402   0.00000   0.00003   0.00007   0.00011   1.10412
    D5       -1.07527   0.00000   0.00005   0.00005   0.00010  -1.07516
    D6       -3.12199  -0.00000   0.00002   0.00004   0.00006  -3.12193
    D7       -0.98531   0.00000   0.00003   0.00008   0.00011  -0.98520
    D8        3.11859   0.00000   0.00005   0.00005   0.00011   3.11870
    D9        1.07186  -0.00000   0.00002   0.00004   0.00007   1.07193
   D10       -1.06091  -0.00000  -0.00010   0.00004  -0.00006  -1.06096
   D11        1.10487   0.00000  -0.00010   0.00008  -0.00002   1.10485
   D12        3.12226   0.00000  -0.00010   0.00008  -0.00002   3.12225
         Item               Value     Threshold  Converged?
 Maximum Force            0.000009     0.000015     YES
 RMS     Force            0.000003     0.000010     YES
 Maximum Displacement     0.000155     0.000060     NO 
 RMS     Displacement     0.000054     0.000040     NO 
 GradGradGradGradGradGradGradGradGradGradGradGradGradGradGradGradGradGrad

                    Distance matrix (angstroms):
                    1          2          3          4          5
     1  C    0.000000
     2  C    1.522731   0.000000
     3  O    2.442190   1.406249   0.000000
     4  H    1.103936   2.179526   3.390528   0.000000
     5  H    1.105868   2.178272   2.760335   1.783466   0.000000
     6  H    1.103125   2.168900   2.699870   1.792670   1.787597
     7  H    2.168173   1.110498   2.084222   2.509307   2.529655
     8  H    2.163451   1.102108   2.008368   2.513807   3.089256
     9  H    2.621762   1.943272   0.966406   3.632912   2.529358
                    6          7          8          9
     6  H    0.000000
     7  H    3.088005   0.000000
     8  H    2.515951   1.776213   0.000000
     9  H    2.971557   2.353439   2.821271   0.000000
 Framework group  C1[X(C2H6O)]
 Deg. of freedom    21
                         Standard orientation:                         
 ---------------------------------------------------------------------
 Center     Atomic      Atomic             Coordinates (Angstroms)
 Number     Number       Type             X           Y           Z
 ---------------------------------------------------------------------
      1          6           0       -1.210416   -0.236444   -0.021634
      2          6           0        0.090918    0.551299    0.046907
      3          8           0        1.230139   -0.258419   -0.108232
      4          1           0       -2.085382    0.432814    0.050514
      5          1           0       -1.276055   -0.963964    0.808637
      6          1           0       -1.271281   -0.794996   -0.970950
      7          1           0        0.132984    1.128689    0.994566
      8          1           0        0.131017    1.284689   -0.774782
      9          1           0        1.244594   -0.909006    0.606238
 ---------------------------------------------------------------------
 Rotational constants (GHZ):          34.3815705           9.2385678           8.1657867
    54 basis functions,    99 primitive gaussians,    57 cartesian basis functions
    13 alpha electrons       13 beta electrons
       nuclear repulsion energy        81.6793858120 Hartrees.
 NAtoms=    9 NActive=    9 NUniq=    9 SFac= 1.00D+00 NAtFMM=   60 NAOKFM=F Big=F
 Nuclear repulsion after empirical dispersion term =       81.6768105446 Hartrees.
   1 Symmetry operations used in ECPInt.
 ECPInt:  NShTT=     465 NPrTT=    1887 LenC2=     466 LenP2D=    1694.
 LDataN:  DoStor=T MaxTD1= 4 Len=   56
 Initial guess from the checkpoint file:  "8.chk"
 B after Tr=     0.000000   -0.000000    0.000000
         Rot=    1.000000    0.000019    0.000003   -0.000002 Ang=   0.00 deg.
 SCF Done:  E(RwB97XD) =  -154.856033891     a.u. after    2 cycles
            Convg  =    0.4147D-08                     9 Fock formations.
              S**2 =  0.0000                  -V/T =  2.0088
   1 Symmetry operations used in ECPInt.
 ECPInt:  NShTT=     465 NPrTT=    1887 LenC2=     466 LenP2D=    1694.
 LDataN:  DoStor=T MaxTD1= 5 Len=  102
 Calling FoFJK, ICntrl=      2127 FMM=F ISym2X=0 I1Cent= 0 IOpClX= 0 NMat=1 NMatS=1 NMatT=0.

 GradGradGradGradGradGradGradGradGradGradGradGradGradGradGradGradGradGrad
 Using GEDIIS/GDIIS optimizer.
 FormGI is forming the generalized inverse of G from B-inverse, IUseBI=4.
 Internal  Forces:  Max     0.000001924 RMS     0.000000652
 Step number   8 out of a maximum of   43
 All quantities printed in internal units (Hartrees-Bohrs-Radians)
 Mixed Optimization -- En-DIIS/RFO-DIIS
 Swapping is turned off.
 Trust test= 2.34D+00 RLast= 3.16D-04 DXMaxT set to 3.00D-01
 ITU=  0  0  1  1  1  1  1  0
     Eigenvalues ---    0.00370   0.00406   0.05318   0.05441   0.05676
     Eigenvalues ---    0.05774   0.10875   0.13219   0.14406   0.15123
     Eigenvalues ---    0.16281   0.17222   0.21966   0.30042   0.33039
     Eigenvalues ---    0.34626   0.35051   0.35223   0.36676   0.43281
     Eigenvalues ---    0.54904
 En-DIIS/RFO-DIIS/Sim-DIIS IScMMF=       -3 using points:     8    7    6    5    4    3    2
 RFO step:  Lambda=-7.09019367D-11.
 DIIS inversion failure, remove point   7.
 DIIS inversion failure, remove point   6.
 DIIS inversion failure, remove point   5.
 DIIS inversion failure, remove point   4.
 DIIS inversion failure, remove point   3.
 DIIS inversion failure, remove point   2.
 Use linear search instead of GDIIS.
 Quartic linear search produced a step of  0.01304.
 Iteration  1 RMS(Cart)=  0.00001254 RMS(Int)=  0.00000000
 Iteration  2 RMS(Cart)=  0.00000000 RMS(Int)=  0.00000000
 Variable       Old X    -DE/DX   Delta X   Delta X   Delta X     New X
                                 (Linear)    (Quad)   (Total)
    R1        2.87754  -0.00000  -0.00000  -0.00001  -0.00001   2.87754
    R2        2.08614  -0.00000   0.00000  -0.00000  -0.00000   2.08614
    R3        2.08979  -0.00000   0.00000  -0.00000  -0.00000   2.08979
    R4        2.08460  -0.00000   0.00000  -0.00000  -0.00000   2.08460
    R5        2.65743   0.00000   0.00000   0.00000   0.00000   2.65743
    R6        2.09854  -0.00000  -0.00000  -0.00000  -0.00000   2.09854
    R7        2.08268   0.00000  -0.00000   0.00000   0.00000   2.08268
    R8        1.82624  -0.00000   0.00000  -0.00000  -0.00000   1.82624
    A1        1.93990   0.00000   0.00000   0.00001   0.00001   1.93992
    A2        1.93613   0.00000   0.00000   0.00001   0.00001   1.93614
    A3        1.92605  -0.00000  -0.00000  -0.00000  -0.00000   1.92605
    A4        1.87834  -0.00000  -0.00000  -0.00001  -0.00001   1.87834
    A5        1.89597  -0.00000   0.00000  -0.00000  -0.00000   1.89597
    A6        1.88570  -0.00000   0.00000  -0.00000  -0.00000   1.88570
    A7        1.97087  -0.00000  -0.00000  -0.00000  -0.00000   1.97087
    A8        1.91746   0.00000   0.00000   0.00000   0.00000   1.91746
    A9        1.91961   0.00000  -0.00000   0.00001   0.00001   1.91962
   A10        1.94211  -0.00000  -0.00000  -0.00001  -0.00001   1.94210
   A11        1.84568   0.00000  -0.00000   0.00001   0.00001   1.84569
   A12        1.86384  -0.00000   0.00000  -0.00001  -0.00001   1.86383
   A13        1.89461   0.00000  -0.00000   0.00000   0.00000   1.89461
    D1       -3.08987  -0.00000   0.00000  -0.00002  -0.00002  -3.08990
    D2        1.01402   0.00000   0.00000  -0.00001  -0.00001   1.01401
    D3       -1.03274   0.00000   0.00000  -0.00001  -0.00001  -1.03275
    D4        1.10412  -0.00000   0.00000  -0.00003  -0.00002   1.10410
    D5       -1.07516   0.00000   0.00000  -0.00002  -0.00001  -1.07518
    D6       -3.12193   0.00000   0.00000  -0.00001  -0.00001  -3.12194
    D7       -0.98520  -0.00000   0.00000  -0.00002  -0.00002  -0.98522
    D8        3.11870   0.00000   0.00000  -0.00001  -0.00001   3.11869
    D9        1.07193   0.00000   0.00000  -0.00001  -0.00001   1.07192
   D10       -1.06096   0.00000  -0.00000   0.00004   0.00004  -1.06092
   D11        1.10485   0.00000  -0.00000   0.00004   0.00004   1.10489
   D12        3.12225  -0.00000  -0.00000   0.00003   0.00003   3.12228
         Item               Value     Threshold  Converged?
 Maximum Force            0.000002     0.000015     YES
 RMS     Force            0.000001     0.000010     YES
 Maximum Displacement     0.000035     0.000060     YES
 RMS     Displacement     0.000013     0.000040     YES
 Optimization completed.
    -- Stationary point found.
                           ----------------------------
                           !   Optimized Parameters   !
                           ! (Angstroms and Degrees)  !
 --------------------------                            --------------------------
 ! Name  Definition              Value          Derivative Info.                !
 --------------------------------------------------------------------------------
 ! R1    R(1,2)                  1.5227         -DE/DX =    0.0                 !
 ! R2    R(1,4)                  1.1039         -DE/DX =    0.0                 !
 ! R3    R(1,5)                  1.1059         -DE/DX =    0.0                 !
 ! R4    R(1,6)                  1.1031         -DE/DX =    0.0                 !
 ! R5    R(2,3)                  1.4062         -DE/DX =    0.0                 !
 ! R6    R(2,7)                  1.1105         -DE/DX =    0.0                 !
 ! R7    R(2,8)                  1.1021         -DE/DX =    0.0                 !
 ! R8    R(3,9)                  0.9664         -DE/DX =    0.0                 !
 ! A1    A(2,1,4)              111.1483         -DE/DX =    0.0                 !
 ! A2    A(2,1,5)              110.9321         -DE/DX =    0.0                 !
 ! A3    A(2,1,6)              110.3545         -DE/DX =    0.0                 !
 ! A4    A(4,1,5)              107.6211         -DE/DX =    0.0                 !
 ! A5    A(4,1,6)              108.6313         -DE/DX =    0.0                 !
 ! A6    A(5,1,6)              108.0427         -DE/DX =    0.0                 !
 ! A7    A(1,2,3)              112.9226         -DE/DX =    0.0                 !
 ! A8    A(1,2,7)              109.8622         -DE/DX =    0.0                 !
 ! A9    A(1,2,8)              109.9856         -DE/DX =    0.0                 !
 ! A10   A(3,2,7)              111.2746         -DE/DX =    0.0                 !
 ! A11   A(3,2,8)              105.7498         -DE/DX =    0.0                 !
 ! A12   A(7,2,8)              106.7901         -DE/DX =    0.0                 !
 ! A13   A(2,3,9)              108.5532         -DE/DX =    0.0                 !
 ! D1    D(4,1,2,3)           -177.0367         -DE/DX =    0.0                 !
 ! D2    D(4,1,2,7)             58.0993         -DE/DX =    0.0                 !
 ! D3    D(4,1,2,8)            -59.1717         -DE/DX =    0.0                 !
 ! D4    D(5,1,2,3)             63.2616         -DE/DX =    0.0                 !
 ! D5    D(5,1,2,7)            -61.6024         -DE/DX =    0.0                 !
 ! D6    D(5,1,2,8)           -178.8734         -DE/DX =    0.0                 !
 ! D7    D(6,1,2,3)            -56.4479         -DE/DX =    0.0                 !
 ! D8    D(6,1,2,7)            178.6882         -DE/DX =    0.0                 !
 ! D9    D(6,1,2,8)             61.4171         -DE/DX =    0.0                 !
 ! D10   D(1,2,3,9)            -60.7887         -DE/DX =    0.0                 !
 ! D11   D(7,2,3,9)             63.3035         -DE/DX =    0.0                 !
 ! D12   D(8,2,3,9)            178.8915         -DE/DX =    0.0                 !
 --------------------------------------------------------------------------------
 GradGradGradGradGradGradGradGradGradGradGradGradGradGradGradGradGradGrad

                    Distance matrix (angstroms):
                    1          2          3          4          5
     1  C    0.000000
     2  C    1.522731   0.000000
     3  O    2.442190   1.406249   0.000000
     4  H    1.103936   2.179526   3.390528   0.000000
     5  H    1.105868   2.178272   2.760335   1.783466   0.000000
     6  H    1.103125   2.168900   2.699870   1.792670   1.787597
     7  H    2.168173   1.110498   2.084222   2.509307   2.529655
     8  H    2.163451   1.102108   2.008368   2.513807   3.089256
     9  H    2.621762   1.943272   0.966406   3.632912   2.529358
                    6          7          8          9
     6  H    0.000000
     7  H    3.088005   0.000000
     8  H    2.515951   1.776213   0.000000
     9  H    2.971557   2.353439   2.821271   0.000000
 Framework group  C1[X(C2H6O)]
 Deg. of freedom    21
                         Standard orientation:                         
 ---------------------------------------------------------------------
 Center     Atomic      Atomic             Coordinates (Angstroms)
 Number     Number       Type             X           Y           Z
 ---------------------------------------------------------------------
      1          6           0       -1.210416   -0.236444   -0.021634
      2          6           0        0.090918    0.551299    0.046907
      3          8           0        1.230139   -0.258419   -0.108232
      4          1           0       -2.085382    0.432814    0.050514
      5          1           0       -1.276055   -0.963964    0.808637
      6          1           0       -1.271281   -0.794996   -0.970950
      7          1           0        0.132984    1.128689    0.994566
      8          1           0        0.131017    1.284689   -0.774782
      9          1           0        1.244594   -0.909006    0.606238
 ---------------------------------------------------------------------
 Rotational constants (GHZ):          34.3815705           9.2385678           8.1657867

 **********************************************************************

            Population analysis using the SCF Density.

 **********************************************************************

 Orbital symmetries:
       Occupied  (A) (A) (A) (A) (A) (A) (A) (A) (A) (A) (A) (A)
                 (A)
       Virtual   (A) (A) (A) (A) (A) (A) (A) (A) (A) (A) (A) (A)
                 (A) (A) (A) (A) (A) (A) (A) (A) (A) (A) (A) (A)
                 (A) (A) (A) (A) (A) (A) (A) (A) (A) (A) (A) (A)
                 (A) (A) (A) (A) (A)
 The electronic state is 1-A.
 Alpha  occ. eigenvalues --  -19.24303 -10.33491 -10.28486  -1.10736  -0.83597
 Alpha  occ. eigenvalues --   -0.71156  -0.59084  -0.53999  -0.51878  -0.46473
 Alpha  occ. eigenvalues --   -0.45382  -0.40323  -0.35116
 Alpha virt. eigenvalues --    0.13391   0.17439   0.19146   0.20277   0.21765
 Alpha virt. eigenvalues --    0.24038   0.29671   0.31922   0.51603   0.53823
 Alpha virt. eigenvalues --    0.56556   0.59180   0.66818   0.70348   0.74309
 Alpha virt. eigenvalues --    0.75838   0.78138   0.79920   0.80790   0.81278
 Alpha virt. eigenvalues --    0.82718   0.99714   1.11705   1.16564   1.25612
 Alpha virt. eigenvalues --    1.55643   1.58670   1.69132   1.92244   1.99611
 Alpha virt. eigenvalues --    2.00179   2.20188   2.22055   2.27891   2.32218
 Alpha virt. eigenvalues --    2.58169   2.71817   2.92308   3.04387   3.10055
 Alpha virt. eigenvalues --    3.44738
          Condensed to atoms (all electrons):
 Mulliken charges:
               1
     1  C   -0.369962
     2  C   -0.008956
     3  O   -0.492448
     4  H    0.120485
     5  H    0.108671
     6  H    0.131165
     7  H    0.091223
     8  H    0.109809
     9  H    0.310012
 Sum of Mulliken charges =  -0.00000
 Mulliken charges with hydrogens summed into heavy atoms:
               1
     1  C   -0.009640
     2  C    0.192076
     3  O   -0.182436
 Electronic spatial extent (au):  <R**2>=            194.2153
 Charge=             -0.0000 electrons
 Dipole moment (field-independent basis, Debye):
    X=             -1.1490    Y=             -0.2672    Z=              1.2432  Tot=              1.7138
 Evaluate density.
 Using the total density.
 Monte-Carlo method of calculating molar volume:
 based on  0.001 e/bohr**3 density envelope.
 Number of points per bohr**3 =  100 CutOff= 1.00D-04
 Using the SCF density.
 There are      1453 points.  Will hold      1453 in memory.
 LenV=  1048484229 MDV=  1048576000.
 Box volume = 3073.167 fraction occupied=0.149
 Integrated density= 2.7065891199292658D+01 error= 1.0658911992926576D+00
 Molar volume =  458.966 bohr**3/mol ( 40.958 cm**3/mol)
 Recommended a0 for SCRF calculation =  3.29 angstrom (  6.21 bohr)
 1\1\GINC-C161\FOpt\RwB97XD\def2SVPP\C2H6O1\PETERCHAO1\06-Feb-2023\0\\#
 T wB97XD/def2svpp opt=tight freq int(grid=ultrafine) scf=(verytight,qc
 ) Volume=tight\\Monomer\\0,1\C,-1.275542598,0.2469483677,0.0204074127\
 C,0.0215548112,-0.5490323932,-0.0311811228\O,1.1661357633,0.2618981588
 ,0.0681258692\H,-2.1540687022,-0.4209837068,-0.0066925507\H,-1.3514081
 52,0.9350212119,-0.8419984735\H,-1.3194095745,0.8496749116,0.943273252
 9\H,0.0465794157,-1.1704136136,-0.9512167736\H,0.0717275671,-1.2432563
 539,0.8233234129\H,1.1718733019,0.8781906065,-0.6762467441\\Version=ES
 64L-G16RevB.01\State=1-A\HF=-154.8560339\RMSD=1.270e-10\RMSF=1.528e-06
 \Dipole=-0.4592704,0.0841378,-0.4864469\Quadrupole=-1.7251087,0.957527
 5,0.7675812,0.7794246,-1.4024373,-1.0944383\PG=C01 [X(C2H6O1)]\\@


 MISERY NO LONGER LOVES COMPANY.  NOWADAYS IT INSISTS ON IT.

[...]
 Red. masses --      1.0727                 1.0392                 1.0980
 Frc consts  --      5.6669                 5.6147                 6.2413
 IR Inten    --     77.8746                15.1575                 3.5433
  Atom  AN      X      Y      Z        X      Y      Z        X      Y      Z
     1   6    -0.00   0.00   0.00     0.04   0.03  -0.01     0.02  -0.03   0.05
     2   6    -0.01  -0.05  -0.06    -0.00  -0.01  -0.00     0.00   0.03  -0.06
     3   8     0.00  -0.00   0.00     0.00  -0.00  -0.00    -0.00  -0.00   0.00
     4   1     0.05  -0.04  -0.00    -0.41   0.32   0.03    -0.27   0.21   0.03
     5   1     0.00   0.04  -0.05    -0.03  -0.45   0.52     0.03   0.30  -0.34
     6   1    -0.00  -0.01  -0.01    -0.02  -0.25  -0.43    -0.01  -0.16  -0.26
     7   1     0.05   0.49   0.83     0.01   0.03   0.05     0.01   0.08   0.12
     8   1     0.00   0.14  -0.18     0.00   0.02  -0.02    -0.03  -0.49   0.55
     9   1     0.00  -0.00   0.00     0.00  -0.00   0.00     0.00   0.01  -0.01
                     19                     20                     21
                      A                      A                      A
 Frequencies --   3125.0929              3140.0065              3771.2286
 Red. masses --      1.1011                 1.1059                 1.0660
 Frc consts  --      6.3357                 6.4241                 8.9325
 IR Inten    --     49.7887                21.6200                21.7185
  Atom  AN      X      Y      Z        X      Y      Z        X      Y      Z
     1   6    -0.03   0.05  -0.04     0.03  -0.05  -0.07     0.00  -0.00   0.00
     2   6     0.00   0.03  -0.05     0.00   0.00  -0.01     0.00   0.00  -0.00
     3   8    -0.00  -0.00   0.00    -0.00   0.00   0.00    -0.00   0.04  -0.05
     4   1     0.41  -0.31  -0.04    -0.46   0.35   0.03     0.00  -0.00   0.00
     5   1    -0.03  -0.35   0.40    -0.00  -0.09   0.09    -0.00   0.00  -0.00
     6   1     0.01   0.10   0.15     0.04   0.40   0.68    -0.00   0.00   0.00
     7   1     0.01   0.07   0.11     0.01   0.04   0.07     0.00  -0.00   0.00
     8   1    -0.03  -0.41   0.47    -0.01  -0.08   0.09    -0.00  -0.01   0.01
     9   1     0.01   0.00  -0.01     0.00  -0.00  -0.00     0.03  -0.68   0.73
 
 Temperature   298.150 Kelvin.  Pressure   1.00000 Atm.
 Zero-point correction=                           0.080584 (Hartree/Particle)
 Thermal correction to Energy=                    0.084765
 Thermal correction to Enthalpy=                  0.085710
 Thermal correction to Gibbs Free Energy=         0.055299
 Sum of electronic and zero-point Energies=           -154.775449
 Sum of electronic and thermal Energies=              -154.771268
 Sum of electronic and thermal Enthalpies=            -154.770324
 Sum of electronic and thermal Free Energies=         -154.800735
 FormGI is forming the generalized inverse of G from B-inverse, IUseBI=4.

 GradGradGradGradGradGradGradGradGradGradGradGradGradGradGradGradGradGrad
 Internal  Forces:  Max     0.000001924 RMS     0.000000652
 Step number   1 out of a maximum of    2
 All quantities printed in internal units (Hartrees-Bohrs-Radians)
 Second derivative matrix not updated -- analytic derivatives used.
 ITU=  0
     Eigenvalues ---    0.00322   0.00373   0.04506   0.04523   0.05131
     Eigenvalues ---    0.06193   0.10559   0.12391   0.12610   0.13309
     Eigenvalues ---    0.16670   0.17838   0.24814   0.30557   0.31739
     Eigenvalues ---    0.33537   0.34038   0.34192   0.34315   0.41391
     Eigenvalues ---    0.51243
 Angle between quadratic step and forces=  61.97 degrees.
 Linear search not attempted -- first point.
 Iteration  1 RMS(Cart)=  0.00001060 RMS(Int)=  0.00000000
 Iteration  2 RMS(Cart)=  0.00000000 RMS(Int)=  0.00000000
 Variable       Old X    -DE/DX   Delta X   Delta X   Delta X     New X
                                 (Linear)    (Quad)   (Total)
    R1        2.87754  -0.00000   0.00000  -0.00001  -0.00001   2.87753
    R2        2.08614  -0.00000   0.00000  -0.00000  -0.00000   2.08614
    R3        2.08979  -0.00000   0.00000  -0.00000  -0.00000   2.08979
    R4        2.08460  -0.00000   0.00000  -0.00000  -0.00000   2.08460
    R5        2.65743   0.00000   0.00000   0.00000   0.00000   2.65743
    R6        2.09854  -0.00000   0.00000  -0.00000  -0.00000   2.09854
    R7        2.08268   0.00000   0.00000  -0.00000  -0.00000   2.08268
    R8        1.82624  -0.00000   0.00000  -0.00000  -0.00000   1.82624
    A1        1.93990   0.00000   0.00000   0.00001   0.00001   1.93992
    A2        1.93613   0.00000   0.00000   0.00001   0.00001   1.93614
    A3        1.92605  -0.00000   0.00000  -0.00000  -0.00000   1.92605
    A4        1.87834  -0.00000   0.00000  -0.00001  -0.00001   1.87834
    A5        1.89597  -0.00000   0.00000  -0.00000  -0.00000   1.89597
    A6        1.88570  -0.00000   0.00000  -0.00001  -0.00001   1.88570
    A7        1.97087  -0.00000   0.00000  -0.00000  -0.00000   1.97087
    A8        1.91746   0.00000   0.00000   0.00001   0.00001   1.91746
    A9        1.91961   0.00000   0.00000   0.00001   0.00001   1.91962
   A10        1.94211  -0.00000   0.00000  -0.00001  -0.00001   1.94210
   A11        1.84568   0.00000   0.00000   0.00000   0.00000   1.84569
   A12        1.86384  -0.00000   0.00000  -0.00001  -0.00001   1.86383
   A13        1.89461   0.00000   0.00000   0.00000   0.00000   1.89461
    D1       -3.08987  -0.00000   0.00000   0.00000   0.00000  -3.08987
    D2        1.01402   0.00000   0.00000   0.00001   0.00001   1.01403
    D3       -1.03274   0.00000   0.00000   0.00001   0.00001  -1.03273
    D4        1.10412  -0.00000   0.00000  -0.00000  -0.00000   1.10412
    D5       -1.07516   0.00000   0.00000   0.00001   0.00001  -1.07516
    D6       -3.12193   0.00000   0.00000   0.00001   0.00001  -3.12192
    D7       -0.98520  -0.00000   0.00000   0.00000   0.00000  -0.98520
    D8        3.11870   0.00000   0.00000   0.00001   0.00001   3.11871
    D9        1.07193   0.00000   0.00000   0.00001   0.00001   1.07194
   D10       -1.06096   0.00000   0.00000   0.00003   0.00003  -1.06093
   D11        1.10485   0.00000   0.00000   0.00003   0.00003   1.10489
   D12        3.12225  -0.00000   0.00000   0.00002   0.00002   3.12227
         Item               Value     Threshold  Converged?
 Maximum Force            0.000002     0.000015     YES
 RMS     Force            0.000001     0.000010     YES
 Maximum Displacement     0.000028     0.000060     YES
 RMS     Displacement     0.000011     0.000040     YES
 Optimization completed.
    -- Stationary point found.
                           ----------------------------
                           !   Optimized Parameters   !
                           ! (Angstroms and Degrees)  !
 --------------------------                            --------------------------
 ! Name  Definition              Value          Derivative Info.                !
 --------------------------------------------------------------------------------
 ! R1    R(1,2)                  1.5227         -DE/DX =    0.0                 !
 ! R2    R(1,4)                  1.1039         -DE/DX =    0.0                 !
 ! R3    R(1,5)                  1.1059         -DE/DX =    0.0                 !
 ! R4    R(1,6)                  1.1031         -DE/DX =    0.0                 !
 ! R5    R(2,3)                  1.4062         -DE/DX =    0.0                 !
 ! R6    R(2,7)                  1.1105         -DE/DX =    0.0                 !
 ! R7    R(2,8)                  1.1021         -DE/DX =    0.0                 !
 ! R8    R(3,9)                  0.9664         -DE/DX =    0.0                 !
 ! A1    A(2,1,4)              111.1483         -DE/DX =    0.0                 !
 ! A2    A(2,1,5)              110.9321         -DE/DX =    0.0                 !
 ! A3    A(2,1,6)              110.3545         -DE/DX =    0.0                 !
 ! A4    A(4,1,5)              107.6211         -DE/DX =    0.0                 !
 ! A5    A(4,1,6)              108.6313         -DE/DX =    0.0                 !
 ! A6    A(5,1,6)              108.0427         -DE/DX =    0.0                 !
 ! A7    A(1,2,3)              112.9226         -DE/DX =    0.0                 !
 ! A8    A(1,2,7)              109.8622         -DE/DX =    0.0                 !
 ! A9    A(1,2,8)              109.9856         -DE/DX =    0.0                 !
 ! A10   A(3,2,7)              111.2746         -DE/DX =    0.0                 !
 ! A11   A(3,2,8)              105.7498         -DE/DX =    0.0                 !
 ! A12   A(7,2,8)              106.7901         -DE/DX =    0.0                 !
 ! A13   A(2,3,9)              108.5532         -DE/DX =    0.0                 !
 ! D1    D(4,1,2,3)           -177.0367         -DE/DX =    0.0                 !
 ! D2    D(4,1,2,7)             58.0993         -DE/DX =    0.0                 !
 ! D3    D(4,1,2,8)            -59.1717         -DE/DX =    0.0                 !
 ! D4    D(5,1,2,3)             63.2616         -DE/DX =    0.0                 !
 ! D5    D(5,1,2,7)            -61.6024         -DE/DX =    0.0                 !
 ! D6    D(5,1,2,8)           -178.8734         -DE/DX =    0.0                 !
 ! D7    D(6,1,2,3)            -56.4479         -DE/DX =    0.0                 !
 ! D8    D(6,1,2,7)            178.6882         -DE/DX =    0.0                 !
 ! D9    D(6,1,2,8)             61.4171         -DE/DX =    0.0                 !
 ! D10   D(1,2,3,9)            -60.7887         -DE/DX =    0.0                 !
 ! D11   D(7,2,3,9)             63.3035         -DE/DX =    0.0                 !
 ! D12   D(8,2,3,9)            178.8915         -DE/DX =    0.0                 !
 --------------------------------------------------------------------------------
 GradGradGradGradGradGradGradGradGradGradGradGradGradGradGradGradGradGrad


 ----------------------------------------------------------------------

 Electric dipole moment (input orientation):
 (Debye = 10**-18 statcoulomb cm , SI units = C m)
                  (au)            (Debye)         (10**-30 SI)
   Tot        0.674269D+00      0.171382D+01      0.571669D+01
   x         -0.459270D+00     -0.116735D+01     -0.389386D+01
   y          0.841378D-01      0.213857D+00      0.713350D+00
   z         -0.486447D+00     -0.123642D+01     -0.412427D+01

 Dipole polarizability, Alpha (input orientation).
 (esu units = cm**3 , SI units = C**2 m**2 J**-1)
 Alpha(0;0):
               (au)            (10**-24 esu)      (10**-40 SI)
   iso        0.258823D+02      0.383536D+01      0.426742D+01
   aniso      0.252197D+01      0.373717D+00      0.415816D+00
   xx         0.265362D+02      0.393226D+01      0.437523D+01
   yx         0.541603D+00      0.802573D-01      0.892983D-01
   yy         0.261922D+02      0.388129D+01      0.431851D+01
   zx        -0.304787D+00     -0.451648D-01     -0.502527D-01
   zy        -0.100377D+01     -0.148744D+00     -0.165500D+00
   zz         0.249185D+02      0.369254D+01      0.410850D+01

 ----------------------------------------------------------------------

 Dipole orientation:
     6         -1.76401481         -0.34824299          1.67224284
     6          0.01866321          1.03347775         -0.11470008
     8          1.54650751         -0.61530850         -1.53212881
     1         -3.00419089          0.99090877          2.68249334
     1         -0.69448364         -1.42631106          3.10789031
     1         -2.95621301         -1.69045382          0.61266340
     1          1.17946750          2.41171264          0.96087521
     1         -1.07673847          2.12732504         -1.50795503
     1          2.57005988         -1.59440517         -0.37936252

 Electric dipole moment (dipole orientation):
 (Debye = 10**-18 statcoulomb cm , SI units = C m)
                  (au)            (Debye)         (10**-30 SI)
   Tot        0.674269D+00      0.171382D+01      0.571669D+01
   x          0.000000D+00      0.000000D+00      0.000000D+00
   y          0.000000D+00      0.000000D+00      0.000000D+00
   z          0.674269D+00      0.171382D+01      0.571669D+01

 Dipole polarizability, Alpha (dipole orientation).
 (esu units = cm**3 , SI units = C**2 m**2 J**-1)
 Alpha(0;0):
               (au)            (10**-24 esu)      (10**-40 SI)
   iso        0.258823D+02      0.383536D+01      0.426742D+01
   aniso      0.252197D+01      0.373717D+00      0.415816D+00
   xx         0.261947D+02      0.388166D+01      0.431892D+01
   yx        -0.116785D+01     -0.173058D+00     -0.192553D+00
   yy         0.259742D+02      0.384898D+01      0.428257D+01
   zx        -0.625645D+00     -0.927111D-01     -0.103155D+00
   zy        -0.479613D+00     -0.710714D-01     -0.790775D-01
   zz         0.254780D+02      0.377545D+01      0.420075D+01

 ----------------------------------------------------------------------
 1\1\GINC-C161\Freq\RwB97XD\def2SVPP\C2H6O1\PETERCHAO1\06-Feb-2023\0\\#
 T Geom=AllCheck Guess=TCheck SCRF=Check GenChk RwB97XD/def2SVPP Freq\\
 Monomer\\0,1\C,-1.275542598,0.2469483677,0.0204074127\C,0.0215548112,-
 0.5490323932,-0.0311811228\O,1.1661357633,0.2618981588,0.0681258692\H,
 -2.1540687022,-0.4209837068,-0.0066925507\H,-1.351408152,0.9350212119,
 -0.8419984735\H,-1.3194095745,0.8496749116,0.9432732529\H,0.0465794157
 ,-1.1704136136,-0.9512167736\H,0.0717275671,-1.2432563539,0.8233234129
 \H,1.1718733019,0.8781906065,-0.6762467441\\Version=ES64L-G16RevB.01\S
 tate=1-A\HF=-154.8560339\RMSD=1.270e-10\RMSF=1.528e-06\ZeroPoint=0.080
 5844\Thermal=0.0847654\Dipole=-0.4592704,0.0841378,-0.4864469\DipoleDe
 riv=-0.1249854,0.0182304,0.0162652,0.082578,0.0012753,-0.0187497,0.016
 0365,-0.0374095,0.0492938,0.8135399,0.2026824,0.0060632,0.1775875,0.53
 6883,0.0935261,-0.0271555,0.0764845,0.3562759,-0.9518868,-0.1900212,0.
 0565547,-0.2227579,-0.6211878,-0.144828,0.087045,-0.1215863,-0.3373815
 ,-0.0832268,-0.0658349,0.0001874,-0.1038239,-0.0140929,-0.0042281,-0.0
 058001,-0.0053772,0.0824743,0.0364629,0.0040144,0.0293032,0.0437163,-0
 .0312452,0.0965062,-0.0087134,0.1207126,-0.0707796,0.0510962,0.0131465
 ,-0.0182993,0.0469967,0.0004639,-0.080497,0.0173667,-0.0908569,-0.0576
 432,-0.0583826,-0.0125387,0.0204145,-0.0047649,-0.0895814,-0.1068925,0
 .0005462,-0.1648235,-0.1418498,-0.0129258,0.0121257,-0.0172906,0.00227
 52,-0.0460181,0.0794706,-0.0141351,0.1174588,-0.0631284,0.3303084,0.01
 81956,-0.0931982,-0.0218071,0.2635031,0.0856925,-0.0651903,0.1053975,0
 .1827384\Polar=26.5362232,0.5416032,26.1922173,-0.3047875,-1.0037721,2
 4.9184659\Quadrupole=-1.7251087,0.9575275,0.7675812,0.7794246,-1.40243
 73,-1.0944383\PG=C01 [X(C2H6O1)]\NImag=0\\0.52630607,0.04425855,0.5670
 0785,0.00497787,0.00499772,0.58618134,-0.16372141,0.07124038,0.0045276
 7,0.48679755,0.06155385,-0.13438793,-0.00302439,0.00186439,0.58023308,
 0.00590261,-0.00193054,-0.09018771,0.00293090,-0.03185588,0.63810857,-
 0.04547014,-0.03157785,-0.00242320,-0.19813468,-0.07556729,-0.03552317
 ,0.29553136,0.00523595,0.01096073,0.00266759,-0.10479603,-0.14359302,-
 0.00879270,0.14733594,0.36772558,-0.00059779,0.00076556,0.00478917,-0.
 00465935,0.01464741,-0.09587699,0.04317494,-0.23852192,0.38611509,-0.2
 1823195,-0.12855164,-0.00471250,-0.01495774,-0.02241645,-0.00105141,-0
 .00844855,0.00329377,0.00042492,0.23349538,-0.13131820,-0.15052856,-0.
 00448676,0.01289271,0.01345498,0.00047040,0.00526941,-0.00011285,0.000
 22201,0.14032394,0.15553592,-0.00488916,-0.00443598,-0.04878995,0.0009
 7243,0.00102002,-0.00204409,-0.00005920,-0.00015434,0.00160698,0.00575
 743,0.00422870,0.04519819,-0.04984650,0.00817218,-0.01183206,-0.001912
 54,0.01946457,-0.02512840,0.00351939,-0.00034970,0.00041630,0.00322685
 ,-0.01428403,0.02116454,0.05080551,0.00933183,-0.14916398,0.12602297,-
 0.00120031,-0.01283317,0.01575003,-0.00059354,0.00193038,-0.00188438,0
 .00311580,-0.01017638,0.01407847,-0.01362607,0.15768279,-0.01166656,0.
 12724643,-0.21319294,0.00156716,-0.00179209,0.00243473,-0.00129107,-0.
 00166678,0.00067254,0.00011095,-0.00248853,0.00191436,0.01330975,-0.13
 922693,0.22309327,-0.04866820,0.00230683,0.00569012,-0.00106228,0.0175
 7231,0.02641404,0.00343337,-0.00148522,-0.00119860,0.00278292,-0.01176
 579,-0.02219592,-0.00089486,-0.00092384,-0.00093128,0.04862857,0.00458
 670,-0.12878131,-0.12198416,-0.00105376,-0.01156595,-0.01696285,-0.000
 98228,0.00206294,0.00187765,0.00294728,-0.00864063,-0.01455827,-0.0006
 4847,0.01278627,0.01759635,-0.00816192,0.13524683,0.00752323,-0.123235
 96,-0.24271551,-0.00120521,-0.00008193,0.00037047,0.00052794,0.0014780
 1,0.00057567,0.00001540,0.00221120,0.00206881,0.00072189,-0.01393747,-
 0.01717843,-0.00794238,0.13378954,0.25468020,-0.00064962,0.01641522,0.
 02522359,-0.05189931,0.00937313,0.01558775,-0.00973325,-0.02730604,-0.
 02778733,0.00082073,-0.00086776,-0.00008590,0.00109375,-0.00052592,-0.
 00080511,-0.00515255,0.00381858,-0.00017398,0.06305032,0.00341017,-0.0
 0825131,-0.01638063,0.01056754,-0.12209762,-0.10264061,-0.01381593,-0.
 01660976,-0.01698910,0.00049592,0.00036613,0.00004952,-0.00117451,0.00
 024326,-0.00011619,0.00317101,-0.00106343,-0.00012038,-0.00210546,0.13
 426224,-0.00082800,0.00099847,0.00010913,0.01349653,-0.10580404,-0.229
 72851,-0.00621678,-0.00367121,0.00660658,0.00073273,-0.00035096,-0.000
 09519,0.00029389,-0.00022682,0.00104281,0.00012498,0.00018647,0.001593
 18,-0.00933416,0.12200817,0.23776770,-0.00160809,0.01832622,-0.0235108
 7,-0.05028309,0.01658093,-0.01984164,-0.00601575,-0.02751554,0.0261361
 1,0.00074930,-0.00071354,-0.00007704,-0.00495458,0.00368068,0.00070598
 ,0.00113669,-0.00063932,0.00052600,0.00167780,-0.00074678,0.00242729,0
 .06369286,0.00225686,-0.00984685,0.01375156,0.01085728,-0.14928325,0.1
 2232321,-0.00706845,-0.01833224,0.01791855,0.00011493,0.00058607,-0.00
 013368,0.00309804,-0.00089783,-0.00017115,-0.00077574,0.00008329,0.000
 22188,-0.00056559,0.01279940,-0.01356260,-0.00440604,0.16689664,0.0005
 3324,-0.00270620,0.00308208,-0.01239905,0.13090486,-0.22377377,0.00194
 766,-0.00158172,0.00602892,-0.00066609,0.00032708,0.00004459,0.0005004
 2,-0.00082875,0.00154543,-0.00031983,-0.00006702,0.00101234,-0.0020708
 6,0.01575113,-0.01846882,0.01310701,-0.13998993,0.22821496,0.00188985,
 -0.00058990,0.00205937,-0.00482651,-0.02842544,0.03070933,-0.03468175,
 0.00558687,-0.03590921,0.00056307,0.00046326,-0.00058717,-0.00103702,0
 .00074137,-0.00099983,-0.00020365,0.00013319,0.00000711,0.00079214,0.0
 0019803,-0.00069649,-0.00439513,-0.00351130,-0.00063248,0.04189899,0.0
 0068429,0.00299137,-0.00156389,-0.00037222,-0.01992712,0.02363896,-0.0
 2300001,-0.20403175,0.22196422,0.00067645,-0.00048469,-0.00009445,-0.0
 0065201,0.00042866,0.00061889,0.00006235,-0.00012800,-0.00032489,0.001
 76383,0.00035110,0.00042253,-0.00456661,-0.00200522,-0.00180945,0.0254
 0392,0.22280566,-0.00095545,-0.00169947,0.00072439,-0.00523108,-0.0040
 1395,0.00069732,-0.00013712,0.25024307,-0.31051796,-0.00061143,-0.0001
 3314,0.00009630,0.00055367,0.00025287,-0.00033177,0.00035887,0.0001223
 0,-0.00040673,-0.00055399,-0.00156191,0.00117313,0.00052716,-0.0003578
 4,0.00231428,0.00604938,-0.24285191,0.30625104\\-0.00000228,0.00000241
 ,-0.00000047,0.00000294,-0.00000113,-0.00000174,-0.00000089,-0.0000014
 0,0.00000355,-0.00000023,-0.00000084,-0.00000249,0.00000199,0.00000102
 ,-0.00000084,-0.00000094,-0.00000024,0.00000029,-0.00000004,0.00000047
 ,-0.00000082,-0.00000151,-0.00000018,0.00000011,0.00000095,-0.00000012
 ,0.00000240\\\@


 NO SCIENCE HAS EVER MADE MORE RAPID PROGRESS IN A
 SHORTER TIME THAN CHEMISTRY.
   -- MARTIN HEINRICH KLOPROTH, 1791
 (FIRST PROFESSOR OF CHEMISTRY AT THE UNIVERSITY OF BERLIN)
 Job cpu time:       0 days  0 hours  0 minutes 43.6 seconds.
 Elapsed time:       0 days  0 hours  0 minutes 11.5 seconds.
 File lengths (MBytes):  RWF=      7 Int=      0 D2E=      0 Chk=      1 Scr=      1
 Normal termination of Gaussian 16 at Mon Feb  6 10:16:03 2023.
real 68.92
user 244.90
sys 6.53
