 Entering Gaussian System, Link 0=g16
 Input=gaussian_test.inp
 Output=gaussian_test.log
 Initial command:
 /sw/restricted/lms/sw/Gaussian/g16_B01/g16/l1.exe "/scratch/user/peterchao1/peterchao1/8625377_1689034736000000018280709/Gau-12439.inp" -scrdir="/scratch/user/peterchao1/peterchao1/8625377_1689034736000000018280709/"
 Entering Link 1 = /sw/restricted/lms/sw/Gaussian/g16_B01/g16/l1.exe PID=     12454.
  
 Copyright (c) 1988-2017, Gaussian, Inc.  All Rights Reserved.
  
 This is part of the Gaussian(R) 16 program.  It is based on
 the Gaussian(R) 09 system (copyright 2009, Gaussian, Inc.),
 the Gaussian(R) 03 system (copyright 2003, Gaussian, Inc.),
 the Gaussian(R) 98 system (copyright 1998, Gaussian, Inc.),
 the Gaussian(R) 94 system (copyright 1995, Gaussian, Inc.),
 the Gaussian 92(TM) system (copyright 1992, Gaussian, Inc.),
 the Gaussian 90(TM) system (copyright 1990, Gaussian, Inc.),
 the Gaussian 88(TM) system (copyright 1988, Gaussian, Inc.),
 the Gaussian 86(TM) system (copyright 1986, Carnegie Mellon
 University), and the Gaussian 82(TM) system (copyright 1983,
 Carnegie Mellon University). Gaussian is a federally registered
 trademark of Gaussian, Inc.
  
 This software contains proprietary and confidential information,
 including trade secrets, belonging to Gaussian, Inc.
  
 This software is provided under written license and may be
 used, copied, transmitted, or stored only in accord with that
 written license.
  
 The following legend is applicable only to US Government
 contracts under FAR:
  
                    RESTRICTED RIGHTS LEGEND
  
 Use, reproduction and disclosure by the US Government is
 subject to restrictions as set forth in subparagraphs (a)
 and (c) of the Commercial Computer Software - Restricted
 Rights clause in FAR 52.227-19.
  
 Gaussian, Inc.
 340 Quinnipiac St., Bldg. 40, Wallingford CT 06492
  
  
 ---------------------------------------------------------------
 Warning -- This program may not be used in any manner that
 competes with the business of Gaussian, Inc. or will provide
 assistance to any competitor of Gaussian, Inc.  The licensee
 of this program is prohibited from giving any competitor of
 Gaussian, Inc. access to this program.  By using this program,
 the user acknowledges that Gaussian, Inc. is engaged in the
 business of creating and licensing software in the field of
 computational chemistry and represents and warrants to the
 licensee that it is not a competitor of Gaussian, Inc. and that
 it will not use this program in any manner prohibited above.
 ---------------------------------------------------------------
  

 Cite this work as:
 Gaussian 16, Revision B.01,
 M. J. Frisch, G. W. Trucks, H. B. Schlegel, G. E. Scuseria, 
 M. A. Robb, J. R. Cheeseman, G. Scalmani, V. Barone, 
 G. A. Petersson, H. Nakatsuji, X. Li, M. Caricato, A. V. Marenich, 
 J. Bloino, B. G. Janesko, R. Gomperts, B. Mennucci, H. P. Hratchian, 
 J. V. Ortiz, A. F. Izmaylov, J. L. Sonnenberg, D. Williams-Young, 
 F. Ding, F. Lipparini, F. Egidi, J. Goings, B. Peng, A. Petrone, 
 T. Henderson, D. Ranasinghe, V. G. Zakrzewski, J. Gao, N. Rega, 
 G. Zheng, W. Liang, M. Hada, M. Ehara, K. Toyota, R. Fukuda, 
 J. Hasegawa, M. Ishida, T. Nakajima, Y. Honda, O. Kitao, H. Nakai, 
 T. Vreven, K. Throssell, J. A. Montgomery, Jr., J. E. Peralta, 
 F. Ogliaro, M. J. Bearpark, J. J. Heyd, E. N. Brothers, K. N. Kudin, 
 V. N. Staroverov, T. A. Keith, R. Kobayashi, J. Normand, 
 K. Raghavachari, A. P. Rendell, J. C. Burant, S. S. Iyengar, 
 J. Tomasi, M. Cossi, J. M. Millam, M. Klene, C. Adamo, R. Cammi, 
 J. W. Ochterski, R. L. Martin, K. Morokuma, O. Farkas, 
 J. B. Foresman, and D. J. Fox, Gaussian, Inc., Wallingford CT, 2016.
 
 ******************************************
 Gaussian 16:  ES64L-G16RevB.01 20-Dec-2017
                10-Jul-2023 
 ******************************************
 %nprocshared=4
 Will use up to    4 processors via shared memory.
 %mem=8000mb
 %chk=34.chk
 %mem=8000mb
 ----------------------------------------------------------------------
 #T wB97XD/def2svpp opt=tight freq int(grid=ultrafine) scf=(verytight,q
 c)
 ----------------------------------------------------------------------
 -------
 comment
 -------
 Symbolic Z-matrix:
 Charge =  1 Multiplicity = 2
 C                    -2.85198  -0.57842  -0.00109 
 C                    -1.36966  -0.84606  -0.26722 
 C                    -0.3924    0.33273  -0.00833 
 C                    -0.58726   1.38182  -1.11905 
 C                    -0.74156   1.00241   1.33362 
 C                     1.10526  -0.1944    0.00513 
 C                     1.37738  -1.15908  -1.16493 
 C                     2.10894   0.96808  -0.11716 
 C                     1.42345  -0.9433    1.31312 
 H                    -3.05632  -0.40407   1.06852 
 H                    -3.45305  -1.45056  -0.311 
 H                    -3.22975   0.29398  -0.56196 
 H                    -1.26018  -1.16824  -1.31746 
 H                    -1.06995  -1.71249   0.34897 
 H                    -1.65438   1.64098  -1.22577 
 H                    -0.2382    1.01761  -2.10079 
 H                    -0.05206   2.31936  -0.8943 
 H                    -1.69713   1.54875   1.25788 
 H                     0.02506   1.73654   1.63488 
 H                    -0.84574   0.26761   2.15012 
 H                     1.08409  -0.72811  -2.1379 
 H                     0.84948  -2.11958  -1.04508 
 H                     2.45729  -1.38502  -1.21905 
 H                     1.92502   1.76186   0.6273 
 H                     2.08763   1.42918  -1.11871 
 H                     3.13533   0.59528   0.04896 
 H                     0.69118  -1.73998   1.5304 
 H                     1.45254  -0.26351   2.1811 
 H                     2.41605  -1.42224   1.23932 
 

 GradGradGradGradGradGradGradGradGradGradGradGradGradGradGradGradGradGrad
 Initialization pass.
                           ----------------------------
                           !    Initial Parameters    !
                           ! (Angstroms and Degrees)  !
 --------------------------                            --------------------------
 ! Name  Definition              Value          Derivative Info.                !
 --------------------------------------------------------------------------------
 ! R1    R(1,2)                  1.5296         estimate D2E/DX2                !
 ! R2    R(1,10)                 1.1028         estimate D2E/DX2                !
 ! R3    R(1,11)                 1.1036         estimate D2E/DX2                !
 ! R4    R(1,12)                 1.1038         estimate D2E/DX2                !
 ! R5    R(2,3)                  1.5529         estimate D2E/DX2                !
 ! R6    R(2,13)                 1.104          estimate D2E/DX2                !
 ! R7    R(2,14)                 1.1046         estimate D2E/DX2                !
 ! R8    R(3,4)                  1.5402         estimate D2E/DX2                !
 ! R9    R(3,5)                  1.5399         estimate D2E/DX2                !
 ! R10   R(3,6)                  1.5878         estimate D2E/DX2                !
 ! R11   R(4,15)                 1.1033         estimate D2E/DX2                !
 ! R12   R(4,16)                 1.1038         estimate D2E/DX2                !
 ! R13   R(4,17)                 1.1027         estimate D2E/DX2                !
 ! R14   R(5,18)                 1.1033         estimate D2E/DX2                !
 ! R15   R(5,19)                 1.1034         estimate D2E/DX2                !
 ! R16   R(5,20)                 1.1034         estimate D2E/DX2                !
 ! R17   R(6,7)                  1.5407         estimate D2E/DX2                !
 ! R18   R(6,8)                  1.5407         estimate D2E/DX2                !
 ! R19   R(6,9)                  1.5404         estimate D2E/DX2                !
 ! R20   R(7,21)                 1.1038         estimate D2E/DX2                !
 ! R21   R(7,22)                 1.1025         estimate D2E/DX2                !
 ! R22   R(7,23)                 1.1046         estimate D2E/DX2                !
 ! R23   R(8,24)                 1.1037         estimate D2E/DX2                !
 ! R24   R(8,25)                 1.1028         estimate D2E/DX2                !
 ! R25   R(8,26)                 1.1046         estimate D2E/DX2                !
 ! R26   R(9,27)                 1.1037         estimate D2E/DX2                !
 ! R27   R(9,28)                 1.1029         estimate D2E/DX2                !
 ! R28   R(9,29)                 1.1046         estimate D2E/DX2                !
 ! A1    A(2,1,10)             112.0844         estimate D2E/DX2                !
 ! A2    A(2,1,11)             109.9177         estimate D2E/DX2                !
 ! A3    A(2,1,12)             112.4296         estimate D2E/DX2                !
 ! A4    A(10,1,11)            107.24           estimate D2E/DX2                !
 ! A5    A(10,1,12)            107.7254         estimate D2E/DX2                !
 ! A6    A(11,1,12)            107.1875         estimate D2E/DX2                !
 ! A7    A(1,2,3)              116.6166         estimate D2E/DX2                !
 ! A8    A(1,2,13)             108.2205         estimate D2E/DX2                !
 ! A9    A(1,2,14)             107.6448         estimate D2E/DX2                !
 ! A10   A(3,2,13)             108.525          estimate D2E/DX2                !
 ! A11   A(3,2,14)             109.3687         estimate D2E/DX2                !
 ! A12   A(13,2,14)            105.9536         estimate D2E/DX2                !
 ! A13   A(2,3,4)              108.493          estimate D2E/DX2                !
 ! A14   A(2,3,5)              109.4336         estimate D2E/DX2                !
 ! A15   A(2,3,6)              110.0593         estimate D2E/DX2                !
 ! A16   A(4,3,5)              107.6706         estimate D2E/DX2                !
 ! A17   A(4,3,6)              110.5838         estimate D2E/DX2                !
 ! A18   A(5,3,6)              110.5405         estimate D2E/DX2                !
 ! A19   A(3,4,15)             110.6167         estimate D2E/DX2                !
 ! A20   A(3,4,16)             112.1263         estimate D2E/DX2                !
 ! A21   A(3,4,17)             111.7603         estimate D2E/DX2                !
 ! A22   A(15,4,16)            107.2981         estimate D2E/DX2                !
 ! A23   A(15,4,17)            106.8252         estimate D2E/DX2                !
 ! A24   A(16,4,17)            107.9593         estimate D2E/DX2                !
 ! A25   A(3,5,18)             110.6034         estimate D2E/DX2                !
 ! A26   A(3,5,19)             111.7008         estimate D2E/DX2                !
 ! A27   A(3,5,20)             112.1276         estimate D2E/DX2                !
 ! A28   A(18,5,19)            106.9197         estimate D2E/DX2                !
 ! A29   A(18,5,20)            107.3847         estimate D2E/DX2                !
 ! A30   A(19,5,20)            107.8579         estimate D2E/DX2                !
 ! A31   A(3,6,7)              111.5945         estimate D2E/DX2                !
 ! A32   A(3,6,8)              111.3039         estimate D2E/DX2                !
 ! A33   A(3,6,9)              111.3112         estimate D2E/DX2                !
 ! A34   A(7,6,8)              107.2831         estimate D2E/DX2                !
 ! A35   A(7,6,9)              107.6954         estimate D2E/DX2                !
 ! A36   A(8,6,9)              107.4371         estimate D2E/DX2                !
 ! A37   A(6,7,21)             112.2107         estimate D2E/DX2                !
 ! A38   A(6,7,22)             112.2318         estimate D2E/DX2                !
 ! A39   A(6,7,23)             109.7525         estimate D2E/DX2                !
 ! A40   A(21,7,22)            107.9829         estimate D2E/DX2                !
 ! A41   A(21,7,23)            107.2433         estimate D2E/DX2                !
 ! A42   A(22,7,23)            107.171          estimate D2E/DX2                !
 ! A43   A(6,8,24)             112.3679         estimate D2E/DX2                !
 ! A44   A(6,8,25)             112.023          estimate D2E/DX2                !
 ! A45   A(6,8,26)             109.8005         estimate D2E/DX2                !
 ! A46   A(24,8,25)            107.9785         estimate D2E/DX2                !
 ! A47   A(24,8,26)            107.2262         estimate D2E/DX2                !
 ! A48   A(25,8,26)            107.1977         estimate D2E/DX2                !
 ! A49   A(6,9,27)             112.3986         estimate D2E/DX2                !
 ! A50   A(6,9,28)             111.9654         estimate D2E/DX2                !
 ! A51   A(6,9,29)             109.8579         estimate D2E/DX2                !
 ! A52   A(27,9,28)            107.9077         estimate D2E/DX2                !
 ! A53   A(27,9,29)            107.2402         estimate D2E/DX2                !
 ! A54   A(28,9,29)            107.2256         estimate D2E/DX2                !
 ! D1    D(10,1,2,3)           -66.2584         estimate D2E/DX2                !
 ! D2    D(10,1,2,13)          171.1193         estimate D2E/DX2                !
 ! D3    D(10,1,2,14)           57.0175         estimate D2E/DX2                !
 ! D4    D(11,1,2,3)           174.5844         estimate D2E/DX2                !
 ! D5    D(11,1,2,13)           51.962          estimate D2E/DX2                !
 ! D6    D(11,1,2,14)          -62.1398         estimate D2E/DX2                !
 ! D7    D(12,1,2,3)            55.2708         estimate D2E/DX2                !
 ! D8    D(12,1,2,13)          -67.3516         estimate D2E/DX2                !
 ! D9    D(12,1,2,14)          178.5466         estimate D2E/DX2                !
 ! D10   D(1,2,3,4)            -72.2544         estimate D2E/DX2                !
 ! D11   D(1,2,3,5)             44.9658         estimate D2E/DX2                !
 ! D12   D(1,2,3,6)            166.6287         estimate D2E/DX2                !
 ! D13   D(13,2,3,4)            50.2096         estimate D2E/DX2                !
 ! D14   D(13,2,3,5)           167.4297         estimate D2E/DX2                !
 ! D15   D(13,2,3,6)           -70.9073         estimate D2E/DX2                !
 ! D16   D(14,2,3,4)           165.3642         estimate D2E/DX2                !
 ! D17   D(14,2,3,5)           -77.4156         estimate D2E/DX2                !
 ! D18   D(14,2,3,6)            44.2473         estimate D2E/DX2                !
 ! D19   D(2,3,4,15)            51.0356         estimate D2E/DX2                !
 ! D20   D(2,3,4,16)           -68.6941         estimate D2E/DX2                !
 ! D21   D(2,3,4,17)           169.9274         estimate D2E/DX2                !
 ! D22   D(5,3,4,15)           -67.3077         estimate D2E/DX2                !
 ! D23   D(5,3,4,16)           172.9627         estimate D2E/DX2                !
 ! D24   D(5,3,4,17)            51.5841         estimate D2E/DX2                !
 ! D25   D(6,3,4,15)           171.8286         estimate D2E/DX2                !
 ! D26   D(6,3,4,16)            52.099          estimate D2E/DX2                !
 ! D27   D(6,3,4,17)           -69.2796         estimate D2E/DX2                !
 ! D28   D(2,3,5,18)           -70.2917         estimate D2E/DX2                !
 ! D29   D(2,3,5,19)           170.7452         estimate D2E/DX2                !
 ! D30   D(2,3,5,20)            49.5396         estimate D2E/DX2                !
 ! D31   D(4,3,5,18)            47.4447         estimate D2E/DX2                !
 ! D32   D(4,3,5,19)           -71.5184         estimate D2E/DX2                !
 ! D33   D(4,3,5,20)           167.276          estimate D2E/DX2                !
 ! D34   D(6,3,5,18)           168.3355         estimate D2E/DX2                !
 ! D35   D(6,3,5,19)            49.3725         estimate D2E/DX2                !
 ! D36   D(6,3,5,20)           -71.8331         estimate D2E/DX2                !
 ! D37   D(2,3,6,7)             45.0569         estimate D2E/DX2                !
 ! D38   D(2,3,6,8)            164.879          estimate D2E/DX2                !
 ! D39   D(2,3,6,9)            -75.2948         estimate D2E/DX2                !
 ! D40   D(4,3,6,7)            -74.7996         estimate D2E/DX2                !
 ! D41   D(4,3,6,8)             45.0225         estimate D2E/DX2                !
 ! D42   D(4,3,6,9)            164.8487         estimate D2E/DX2                !
 ! D43   D(5,3,6,7)            166.0586         estimate D2E/DX2                !
 ! D44   D(5,3,6,8)            -74.1194         estimate D2E/DX2                !
 ! D45   D(5,3,6,9)             45.7069         estimate D2E/DX2                !
 ! D46   D(3,6,7,21)            52.2645         estimate D2E/DX2                !
 ! D47   D(3,6,7,22)           -69.5487         estimate D2E/DX2                !
 ! D48   D(3,6,7,23)           171.3966         estimate D2E/DX2                !
 ! D49   D(8,6,7,21)           -69.9013         estimate D2E/DX2                !
 ! D50   D(8,6,7,22)           168.2855         estimate D2E/DX2                !
 ! D51   D(8,6,7,23)            49.2308         estimate D2E/DX2                !
 ! D52   D(9,6,7,21)           174.7146         estimate D2E/DX2                !
 ! D53   D(9,6,7,22)            52.9014         estimate D2E/DX2                !
 ! D54   D(9,6,7,23)           -66.1533         estimate D2E/DX2                !
 ! D55   D(3,6,8,24)            52.1632         estimate D2E/DX2                !
 ! D56   D(3,6,8,25)           -69.6061         estimate D2E/DX2                !
 ! D57   D(3,6,8,26)           171.4067         estimate D2E/DX2                !
 ! D58   D(7,6,8,24)           174.5099         estimate D2E/DX2                !
 ! D59   D(7,6,8,25)            52.7406         estimate D2E/DX2                !
 ! D60   D(7,6,8,26)           -66.2466         estimate D2E/DX2                !
 ! D61   D(9,6,8,24)           -69.9343         estimate D2E/DX2                !
 ! D62   D(9,6,8,25)           168.2964         estimate D2E/DX2                !
 ! D63   D(9,6,8,26)            49.3092         estimate D2E/DX2                !
 ! D64   D(3,6,9,27)            52.6137         estimate D2E/DX2                !
 ! D65   D(3,6,9,28)           -69.0433         estimate D2E/DX2                !
 ! D66   D(3,6,9,29)           171.9332         estimate D2E/DX2                !
 ! D67   D(7,6,9,27)           -70.011          estimate D2E/DX2                !
 ! D68   D(7,6,9,28)           168.3321         estimate D2E/DX2                !
 ! D69   D(7,6,9,29)            49.3086         estimate D2E/DX2                !
 ! D70   D(8,6,9,27)           174.7066         estimate D2E/DX2                !
 ! D71   D(8,6,9,28)            53.0497         estimate D2E/DX2                !
 ! D72   D(8,6,9,29)           -65.9738         estimate D2E/DX2                !
 --------------------------------------------------------------------------------
 Number of steps in this run=    164 maximum allowed number of steps=    174.
 GradGradGradGradGradGradGradGradGradGradGradGradGradGradGradGradGradGrad

                    Distance matrix (angstroms):
                    1          2          3          4          5
     1  C    0.000000
     2  C    1.529616   0.000000
     3  C    2.622930   1.552932   0.000000
     4  C    3.197081   2.510224   1.540222   0.000000
     5  C    2.955397   2.524691   1.539875   2.486636   0.000000
     6  C    3.975832   2.573725   1.587774   2.571554   2.570597
     7  C    4.424835   2.906904   2.587537   3.212185   3.924883
     8  C    5.197679   3.926104   2.583066   2.905938   3.198639
     9  C    4.487710   3.210665   2.582974   3.919768   2.910919
    10  H    1.102821   2.196449   2.966301   3.751148   2.721510
    11  H    1.103606   2.169756   3.555175   4.109507   4.009241
    12  H    1.103798   2.201477   2.891118   2.911440   3.207215
    13  H    2.148146   1.103988   2.172508   2.644813   3.465395
    14  H    2.141091   1.104633   2.183950   3.458734   2.906555
    15  H    2.803539   2.680530   2.187758   1.103303   2.791330
    16  H    3.713206   2.848762   2.207090   1.103772   3.471136
    17  H    4.127288   3.485567   2.201701   1.102693   2.678318
    18  H    2.728284   2.858019   2.187302   2.628580   1.103331
    19  H    4.038905   3.497574   2.201152   2.843389   1.103355
    20  H    3.060796   2.712618   2.206499   3.463485   1.103379
    21  H    4.481184   3.087757   2.800085   2.878071   4.287090
    22  H    4.143176   2.674231   2.937847   3.785439   4.235148
    23  H    5.506570   3.980196   3.540795   4.115181   4.737993
    24  H    5.356441   4.296080   2.795866   3.083133   2.861163
    25  H    5.447867   4.225470   2.930139   2.675312   3.768336
    26  H    6.101471   4.740503   3.537953   3.980030   4.104433
    27  H    4.030962   2.877080   2.799633   4.289484   3.100352
    28  H    4.836322   3.781331   2.924533   4.214133   2.671111
    29  H    5.477473   4.114996   3.538909   4.737565   3.982243
                    6          7          8          9         10
     6  C    0.000000
     7  C    1.540683   0.000000
     8  C    1.540680   2.481495   0.000000
     9  C    1.540429   2.487849   2.483742   0.000000
    10  H    4.300409   5.021560   5.474358   4.518733   0.000000
    11  H    4.738780   4.913981   6.068204   5.164811   1.776397
    12  H    4.399137   4.868327   5.399433   5.167109   1.782080
    13  H    2.879747   2.641988   4.166006   3.764626   3.082688
    14  H    2.674765   2.930459   4.184268   2.781775   2.485032
    15  H    3.535437   4.127417   3.980497   4.753677   3.378083
    16  H    2.776461   2.867736   3.073480   4.273286   4.472975
    17  H    2.909865   3.770420   2.664542   4.206507   4.505032
    18  H    3.530057   4.759720   4.088283   3.993913   2.386791
    19  H    2.747983   4.248799   2.828910   3.039826   3.794453
    20  H    2.936124   4.238781   3.789638   2.704827   2.551021
    21  H    2.208588   1.103822   2.830323   3.474329   5.246823
    22  H    2.207872   1.102542   3.461349   2.697069   4.760841
    23  H    2.178116   1.104613   2.621567   2.770527   6.049390
    24  H    2.210440   3.470431   1.103694   2.835454   5.449739
    25  H    2.205464   2.684340   1.102796   3.461728   5.882602
    26  H    2.178693   2.764361   1.104565   2.625992   6.354115
    27  H    2.210597   2.841322   3.472482   1.103692   4.005219
    28  H    2.204592   3.464623   2.688810   1.102886   4.646231
    29  H    2.179213   2.632200   2.765500   1.104572   5.568901
                   11         12         13         14         15
    11  H    0.000000
    12  H    1.776583   0.000000
    13  H    2.429264   2.566722   0.000000
    14  H    2.486627   3.085521   1.763344   0.000000
    15  H    3.691831   2.176431   2.838223   3.750614   0.000000
    16  H    4.430628   3.441077   2.536930   3.761193   1.777581
    17  H    5.110698   3.782902   3.715105   4.340232   1.771302
    18  H    3.813195   2.689832   3.768996   3.443128   2.485731
    19  H    5.103059   4.183401   4.336576   3.840362   3.318577
    20  H    3.975835   3.611037   3.775918   2.686115   3.733186
    21  H    4.944204   4.705048   2.522395   3.434157   3.734131
    22  H    4.415682   4.764327   2.330220   2.406936   4.521476
    23  H    5.980041   5.966001   3.725083   3.873929   5.105141
    24  H    6.334318   5.490047   4.744797   4.595476   4.032436
    25  H    6.296379   5.465635   4.241929   4.689828   3.749523
    26  H    6.908093   6.401428   4.929267   4.806266   5.065546
    27  H    4.544132   4.887603   3.499287   2.120875   4.952678
    28  H    5.628893   5.455184   4.518556   3.437908   4.988667
    29  H    6.070464   6.169684   4.485118   3.609589   5.659354
                   16         17         18         19         20
    16  H    0.000000
    17  H    1.784606   0.000000
    18  H    3.700164   2.816371   0.000000
    19  H    3.813312   2.596601   1.772939   0.000000
    20  H    4.359107   3.756069   1.778276   1.783676   0.000000
    21  H    2.190286   3.482012   4.944748   4.629237   4.806537
    22  H    3.484182   4.532073   5.024489   4.767757   4.333796
    23  H    3.716951   4.486055   5.656972   4.879014   4.999249
    24  H    3.560318   2.556338   3.682791   2.150740   3.496974
    25  H    2.557995   2.328310   4.470664   3.454113   4.543030
    26  H    4.022500   3.744549   5.071809   3.673065   4.513440
    27  H    4.653341   4.786418   4.073578   3.541304   2.603194
    28  H    4.778540   4.288716   3.749271   2.517192   2.359055
    29  H    4.914689   4.964209   5.073982   3.981350   3.784758
                   21         22         23         24         25
    21  H    0.000000
    22  H    1.784793   0.000000
    23  H    1.778051   1.776194   0.000000
    24  H    3.814892   4.361104   3.687170   0.000000
    25  H    2.588379   3.759272   2.840150   1.784845   0.000000
    26  H    3.277388   3.713824   2.447283   1.777714   1.776666
    27  H    3.825529   2.608114   3.287036   3.821107   4.360211
    28  H    4.359512   3.770537   3.718650   2.596085   3.762616
    29  H    3.696146   2.856377   2.458998   3.279355   3.714665
                   26         27         28         29
    26  H    0.000000
    27  H    3.690794   0.000000
    28  H    2.848737   1.784114   0.000000
    29  H    2.450444   1.777878   1.777062   0.000000
 Framework group  C1[X(C9H20)]
 Deg. of freedom    81
                         Standard orientation:                         
 ---------------------------------------------------------------------
 Center     Atomic      Atomic             Coordinates (Angstroms)
 Number     Number       Type             X           Y           Z
 ---------------------------------------------------------------------
      1          6           0       -2.851977   -0.578423   -0.001088
      2          6           0       -1.369658   -0.846062   -0.267220
      3          6           0       -0.392400    0.332725   -0.008325
      4          6           0       -0.587264    1.381823   -1.119048
      5          6           0       -0.741555    1.002410    1.333624
      6          6           0        1.105260   -0.194398    0.005131
      7          6           0        1.377382   -1.159081   -1.164929
      8          6           0        2.108941    0.968083   -0.117164
      9          6           0        1.423450   -0.943298    1.313116
     10          1           0       -3.056322   -0.404071    1.068519
     11          1           0       -3.453047   -1.450558   -0.310995
     12          1           0       -3.229749    0.293977   -0.561960
     13          1           0       -1.260183   -1.168245   -1.317459
     14          1           0       -1.069950   -1.712490    0.348972
     15          1           0       -1.654376    1.640975   -1.225774
     16          1           0       -0.238198    1.017609   -2.100788
     17          1           0       -0.052056    2.319357   -0.894296
     18          1           0       -1.697126    1.548748    1.257878
     19          1           0        0.025059    1.736537    1.634876
     20          1           0       -0.845737    0.267613    2.150120
     21          1           0        1.084094   -0.728106   -2.137897
     22          1           0        0.849484   -2.119581   -1.045083
     23          1           0        2.457285   -1.385023   -1.219054
     24          1           0        1.925015    1.761862    0.627300
     25          1           0        2.087629    1.429180   -1.118710
     26          1           0        3.135333    0.595275    0.048963
     27          1           0        0.691182   -1.739984    1.530399
     28          1           0        1.452543   -0.263509    2.181101
     29          1           0        2.416047   -1.422238    1.239317
 ---------------------------------------------------------------------
 Rotational constants (GHZ):           2.1269879           1.1629532           1.1230912
   166 basis functions,   305 primitive gaussians,   175 cartesian basis functions
    37 alpha electrons       36 beta electrons
       nuclear repulsion energy       524.3795905018 Hartrees.
 NAtoms=   29 NActive=   29 NUniq=   29 SFac= 1.00D+00 NAtFMM=   60 NAOKFM=F Big=F
 Nuclear repulsion after empirical dispersion term =      524.3528155211 Hartrees.
   1 Symmetry operations used in ECPInt.
 ECPInt:  NShTT=    4465 NPrTT=   17943 LenC2=    4452 LenP2D=   14263.
 LDataN:  DoStor=T MaxTD1= 4 Len=   56
 ExpMin= 1.22D-01 ExpMax= 1.24D+03 ExpMxC= 1.86D+02 IAcc=3 IRadAn=         5 AccDes= 0.00D+00
 Harris functional with IExCor= 4639 and IRadAn=       5 diagonalized for initial guess.
 HarFok:  IExCor= 4639 AccDes= 0.00D+00 IRadAn=         5 IDoV= 1 UseB2=F ITyADJ=14
 ICtDFT=  3500011 ScaDFX=  1.000000  1.000000  1.000000  1.000000
 FoFCou: FMM=F IPFlag=           0 FMFlag=      100000 FMFlg1=           0
         NFxFlg=           0 DoJE=T BraDBF=F KetDBF=T FulRan=T
         wScrn=  0.000000 ICntrl=       500 IOpCl=  0 I1Cent=   200000004 NGrid=           0
         NMat0=    1 NMatS0=      1 NMatT0=    0 NMatD0=    1 NMtDS0=    0 NMtDT0=    0
 Petite list used in FoFCou.
 Initial guess <Sx>= 0.0000 <Sy>= 0.0000 <Sz>= 0.5000 <S**2>= 0.7500 S= 0.5000
     Accept linear search using points  1 and  2.
     Minimum is close to point  3 DX=  6.63D-02 DF= -1.32D-06 DXR=  4.85D-02 DFR=  2.35D-03 which will be used.
     Accept linear search using points  1 and  2.
     Accept linear search using points  1 and  2.
     Minimum is close to point  2 DX=  1.26D-02 DF= -3.55D-09 DXR=  1.25D-02 DFR=  1.56D-04 which will be used.
 SCF Done:  E(UwB97XD) =  -354.250567179     a.u. after   10 cycles
            Convg  =    0.1267D-06                    79 Fock formations.
              S**2 =  0.7530                  -V/T =  2.0117
 <Sx>= 0.0000 <Sy>= 0.0000 <Sz>= 0.5000 <S**2>= 0.7530 S= 0.5015
 <L.S>=  0.00000000000    
 Annihilation of the first spin contaminant:
 S**2 before annihilation     0.7530,   after     0.7500

 **********************************************************************

            Population analysis using the SCF Density.

 **********************************************************************

 Orbital symmetries:
 Alpha Orbitals:
       Occupied  (A) (A) (A) (A) (A) (A) (A) (A) (A) (A) (A) (A)
                 (A) (A) (A) (A) (A) (A) (A) (A) (A) (A) (A) (A)
                 (A) (A) (A) (A) (A) (A) (A) (A) (A) (A) (A) (A)
                 (A)
       Virtual   (A) (A) (A) (A) (A) (A) (A) (A) (A) (A) (A) (A)
                 (A) (A) (A) (A) (A) (A) (A) (A) (A) (A) (A) (A)
                 (A) (A) (A) (A) (A) (A) (A) (A) (A) (A) (A) (A)
                 (A) (A) (A) (A) (A) (A) (A) (A) (A) (A) (A) (A)
                 (A) (A) (A) (A) (A) (A) (A) (A) (A) (A) (A) (A)
                 (A) (A) (A) (A) (A) (A) (A) (A) (A) (A) (A) (A)
                 (A) (A) (A) (A) (A) (A) (A) (A) (A) (A) (A) (A)
                 (A) (A) (A) (A) (A) (A) (A) (A) (A) (A) (A) (A)
                 (A) (A) (A) (A) (A) (A) (A) (A) (A) (A) (A) (A)
                 (A) (A) (A) (A) (A) (A) (A) (A) (A) (A) (A) (A)
                 (A) (A) (A) (A) (A) (A) (A) (A) (A)
 Beta  Orbitals:
       Occupied  (A) (A) (A) (A) (A) (A) (A) (A) (A) (A) (A) (A)
                 (A) (A) (A) (A) (A) (A) (A) (A) (A) (A) (A) (A)
                 (A) (A) (A) (A) (A) (A) (A) (A) (A) (A) (A) (A)
       Virtual   (A) (A) (A) (A) (A) (A) (A) (A) (A) (A) (A) (A)
                 (A) (A) (A) (A) (A) (A) (A) (A) (A) (A) (A) (A)
                 (A) (A) (A) (A) (A) (A) (A) (A) (A) (A) (A) (A)
                 (A) (A) (A) (A) (A) (A) (A) (A) (A) (A) (A) (A)
                 (A) (A) (A) (A) (A) (A) (A) (A) (A) (A) (A) (A)
                 (A) (A) (A) (A) (A) (A) (A) (A) (A) (A) (A) (A)
                 (A) (A) (A) (A) (A) (A) (A) (A) (A) (A) (A) (A)
                 (A) (A) (A) (A) (A) (A) (A) (A) (A) (A) (A) (A)
                 (A) (A) (A) (A) (A) (A) (A) (A) (A) (A) (A) (A)
                 (A) (A) (A) (A) (A) (A) (A) (A) (A) (A) (A) (A)
                 (A) (A) (A) (A) (A) (A) (A) (A) (A) (A)
 The electronic state is 2-A.
 Alpha  occ. eigenvalues --  -10.54198 -10.53724 -10.48619 -10.46648 -10.45539
 Alpha  occ. eigenvalues --  -10.45454 -10.45421 -10.45111 -10.44750  -1.14637
 Alpha  occ. eigenvalues --   -1.06476  -1.00143  -0.96566  -0.95459  -0.93282
 Alpha  occ. eigenvalues --   -0.90665  -0.85648  -0.77885  -0.75782  -0.72816
 Alpha  occ. eigenvalues --   -0.71945  -0.70496  -0.69639  -0.66355  -0.66182
 Alpha  occ. eigenvalues --   -0.64648  -0.63318  -0.62978  -0.62534  -0.62318
 Alpha  occ. eigenvalues --   -0.61617  -0.60847  -0.60560  -0.59126  -0.58695
 Alpha  occ. eigenvalues --   -0.56935  -0.56761
 Alpha virt. eigenvalues --   -0.02721   0.00718   0.01295   0.01908   0.02523
 Alpha virt. eigenvalues --    0.02894   0.03207   0.04399   0.05336   0.06153
 Alpha virt. eigenvalues --    0.06625   0.07178   0.07873   0.08341   0.09164
 Alpha virt. eigenvalues --    0.09572   0.10444   0.11014   0.12032   0.12376
 Alpha virt. eigenvalues --    0.12837   0.13582   0.14497   0.15097   0.15354
 Alpha virt. eigenvalues --    0.18409   0.19403   0.20282   0.32143   0.32822
 Alpha virt. eigenvalues --    0.33260   0.33974   0.34881   0.35959   0.37091
 Alpha virt. eigenvalues --    0.40831   0.45542   0.46256   0.47176   0.49154
 Alpha virt. eigenvalues --    0.50111   0.51752   0.52329   0.55415   0.57203
 Alpha virt. eigenvalues --    0.58296   0.59071   0.59442   0.59527   0.60289
 Alpha virt. eigenvalues --    0.61167   0.61440   0.62186   0.63082   0.63591
 Alpha virt. eigenvalues --    0.64013   0.65371   0.65456   0.65940   0.66292
 Alpha virt. eigenvalues --    0.66927   0.67241   0.67548   0.68180   0.68612
 Alpha virt. eigenvalues --    0.69351   0.70317   0.70796   0.71774   0.72376
 Alpha virt. eigenvalues --    0.77519   0.78247   0.79158   0.85390   0.86507
 Alpha virt. eigenvalues --    0.90578   0.92802   0.97754   0.99880   1.02701
 Alpha virt. eigenvalues --    1.06041   1.09735   1.19990   1.20957   1.24773
 Alpha virt. eigenvalues --    1.26087   1.41824   1.45436   1.57569   1.58426
 Alpha virt. eigenvalues --    1.62229   1.65139   1.72159   1.73723   1.75225
 Alpha virt. eigenvalues --    1.76390   1.77901   1.82419   1.83630   1.85514
 Alpha virt. eigenvalues --    1.91368   1.91900   1.94522   1.96059   1.96564
 Alpha virt. eigenvalues --    1.97100   1.98596   2.01454   2.03733   2.07808
 Alpha virt. eigenvalues --    2.08738   2.09132   2.09448   2.11427   2.12539
 Alpha virt. eigenvalues --    2.15822   2.16188   2.19619   2.25619   2.28162
 Alpha virt. eigenvalues --    2.29787   2.40187   2.40800   2.49702   2.60838
 Alpha virt. eigenvalues --    2.62416   2.62788   2.64375   2.66188
  Beta  occ. eigenvalues --  -10.53789 -10.53339 -10.48419 -10.46514 -10.45527
  Beta  occ. eigenvalues --  -10.45426 -10.45421 -10.45114 -10.44675  -1.13129
  Beta  occ. eigenvalues --   -1.05486  -0.99569  -0.96266  -0.94833  -0.92992
  Beta  occ. eigenvalues --   -0.89653  -0.83617  -0.76480  -0.74363  -0.72292
  Beta  occ. eigenvalues --   -0.71385  -0.69930  -0.69248  -0.65829  -0.65144
  Beta  occ. eigenvalues --   -0.63991  -0.62697  -0.62216  -0.61805  -0.61589
  Beta  occ. eigenvalues --   -0.61162  -0.60615  -0.59705  -0.58637  -0.56659
  Beta  occ. eigenvalues --   -0.56274
  Beta virt. eigenvalues --   -0.37142  -0.02632   0.00926   0.01437   0.02028
  Beta virt. eigenvalues --    0.02836   0.03081   0.03377   0.04627   0.05716
  Beta virt. eigenvalues --    0.06373   0.07253   0.07526   0.08144   0.08755
  Beta virt. eigenvalues --    0.09338   0.09999   0.10866   0.11234   0.12551
  Beta virt. eigenvalues --    0.12765   0.13211   0.13920   0.14842   0.15335
  Beta virt. eigenvalues --    0.15693   0.18889   0.19962   0.20792   0.32306
  Beta virt. eigenvalues --    0.32943   0.33476   0.34485   0.35056   0.36569
  Beta virt. eigenvalues --    0.37240   0.41169   0.45866   0.46870   0.48178
  Beta virt. eigenvalues --    0.49670   0.51197   0.52308   0.52754   0.55763
  Beta virt. eigenvalues --    0.57645   0.58638   0.59320   0.59903   0.60115
  Beta virt. eigenvalues --    0.60622   0.61360   0.61654   0.62431   0.63278
  Beta virt. eigenvalues --    0.63938   0.64291   0.65551   0.65697   0.66076
  Beta virt. eigenvalues --    0.66466   0.67165   0.67527   0.67863   0.68429
  Beta virt. eigenvalues --    0.69024   0.69513   0.70585   0.70965   0.71972
  Beta virt. eigenvalues --    0.72646   0.77833   0.78514   0.79483   0.85665
  Beta virt. eigenvalues --    0.86773   0.90853   0.93038   0.98256   1.00414
  Beta virt. eigenvalues --    1.02964   1.06306   1.10032   1.20410   1.21719
  Beta virt. eigenvalues --    1.25628   1.26609   1.42415   1.45990   1.58189
  Beta virt. eigenvalues --    1.59125   1.63504   1.66115   1.72708   1.74623
  Beta virt. eigenvalues --    1.75594   1.77136   1.78206   1.82895   1.84193
  Beta virt. eigenvalues --    1.85854   1.91730   1.92194   1.94892   1.96350
  Beta virt. eigenvalues --    1.96906   1.97496   1.99127   2.01818   2.04483
  Beta virt. eigenvalues --    2.08004   2.08920   2.09430   2.09676   2.11706
  Beta virt. eigenvalues --    2.12854   2.16258   2.16541   2.19873   2.26449
  Beta virt. eigenvalues --    2.28628   2.30503   2.40714   2.41538   2.50562
  Beta virt. eigenvalues --    2.61766   2.62941   2.63907   2.66210   2.67488
          Condensed to atoms (all electrons):
          Atomic-Atomic Spin Densities.
 Mulliken charges and spin densities:
               1          2
     1  C   -0.326610   0.054325
     2  C   -0.200888   0.131271
     3  C   -0.250353   0.242694
     4  C   -0.303860   0.013874
     5  C   -0.311580   0.003702
     6  C   -0.277306   0.218668
     7  C   -0.295895   0.002782
     8  C   -0.276752   0.091306
     9  C   -0.292540   0.025375
    10  H    0.166362  -0.001207
    11  H    0.193894   0.023340
    12  H    0.162462  -0.003053
    13  H    0.167934   0.001217
    14  H    0.162620  -0.004875
    15  H    0.191834   0.035863
    16  H    0.167080  -0.001017
    17  H    0.177522   0.010005
    18  H    0.191026   0.025561
    19  H    0.181150   0.024546
    20  H    0.171229  -0.001041
    21  H    0.168764   0.006850
    22  H    0.171292   0.007087
    23  H    0.187736   0.032139
    24  H    0.170817  -0.004694
    25  H    0.176151  -0.004194
    26  H    0.197212   0.031888
    27  H    0.173633   0.009987
    28  H    0.168995  -0.000724
    29  H    0.188072   0.028324
 Sum of Mulliken charges =   1.00000   1.00000
 Mulliken charges and spin densities with hydrogens summed into heavy atoms:
               1          2
     1  C    0.196108   0.073405
     2  C    0.129667   0.127613
     3  C   -0.250353   0.242694
     4  C    0.232575   0.058726
     5  C    0.231824   0.052768
     6  C   -0.277306   0.218668
     7  C    0.231896   0.048857
     8  C    0.267428   0.114306
     9  C    0.238160   0.062962
 Electronic spatial extent (au):  <R**2>=           1373.2112
 Charge=              1.0000 electrons
 Dipole moment (field-independent basis, Debye):
    X=              0.3289    Y=              0.0049    Z=             -0.0381  Tot=              0.3312
                          Isotropic Fermi Contact Couplings
        Atom                 a.u.       MegaHertz       Gauss      10(-4) cm-1
     1  C(13)              0.00586       6.59235       2.35231       2.19897
     2  C(13)              0.01609      18.08802       6.45426       6.03351
     3  C(13)              0.00932      10.48081       3.73981       3.49602
     4  C(13)             -0.00954     -10.71996      -3.82515      -3.57579
     5  C(13)             -0.01324     -14.88603      -5.31171      -4.96545
     6  C(13)              0.02395      26.92031       9.60583       8.97965
     7  C(13)             -0.01249     -14.04236      -5.01066      -4.68403
     8  C(13)              0.02162      24.30006       8.67087       8.10563
     9  C(13)             -0.00362      -4.06614      -1.45090      -1.35632
    10  H(1)              -0.00028      -1.22930      -0.43865      -0.41005
    11  H(1)               0.01154      51.60260      18.41309      17.21277
    12  H(1)              -0.00080      -3.55630      -1.26897      -1.18625
    13  H(1)               0.00177       7.92485       2.82778       2.64345
    14  H(1)              -0.00178      -7.96892      -2.84351      -2.65814
    15  H(1)               0.01588      70.99705      25.33351      23.68207
    16  H(1)              -0.00029      -1.31829      -0.47040      -0.43974
    17  H(1)               0.00460      20.57208       7.34063       6.86211
    18  H(1)               0.01123      50.19073      17.90930      16.74182
    19  H(1)               0.01102      49.26844      17.58020      16.43418
    20  H(1)              -0.00029      -1.27886      -0.45633      -0.42658
    21  H(1)               0.00311      13.91861       4.96651       4.64275
    22  H(1)               0.00331      14.80544       5.28295       4.93856
    23  H(1)               0.01393      62.25518      22.21420      20.76609
    24  H(1)              -0.00133      -5.94104      -2.11991      -1.98172
    25  H(1)              -0.00131      -5.83737      -2.08292      -1.94714
    26  H(1)               0.01331      59.49046      21.22767      19.84388
    27  H(1)               0.00455      20.34596       7.25994       6.78668
    28  H(1)               0.00014       0.62642       0.22352       0.20895
    29  H(1)               0.01193      53.31667      19.02472      17.78453
 --------------------------------------------------------
       Center         ----  Spin Dipole Couplings  ----
                      3XX-RR        3YY-RR        3ZZ-RR
 --------------------------------------------------------
     1   Atom        0.087369     -0.043163     -0.044206
     2   Atom        0.084384      0.004178     -0.088562
     3   Atom        0.449475     -0.241331     -0.208144
     4   Atom        0.025135     -0.015499     -0.009636
     5   Atom        0.030538     -0.017178     -0.013360
     6   Atom        0.412670     -0.216119     -0.196551
     7   Atom        0.027978     -0.014443     -0.013535
     8   Atom        0.075474     -0.002280     -0.073194
     9   Atom        0.021019     -0.024506      0.003487
    10   Atom        0.003074     -0.006329      0.003255
    11   Atom       -0.000946      0.007974     -0.007028
    12   Atom        0.004511      0.001935     -0.006446
    13   Atom       -0.003921     -0.008252      0.012172
    14   Atom       -0.004807      0.014577     -0.009770
    15   Atom        0.006698     -0.002041     -0.004657
    16   Atom       -0.003161     -0.004585      0.007745
    17   Atom       -0.004782      0.010677     -0.005895
    18   Atom        0.001170      0.001708     -0.002878
    19   Atom       -0.003996      0.003995      0.000001
    20   Atom       -0.002380     -0.004539      0.006919
    21   Atom       -0.004101     -0.003838      0.007939
    22   Atom       -0.003898      0.007499     -0.003601
    23   Atom        0.005894     -0.002432     -0.003462
    24   Atom       -0.000542      0.005952     -0.005410
    25   Atom       -0.001620     -0.001523      0.003144
    26   Atom        0.011637      0.000125     -0.011762
    27   Atom       -0.004229      0.004788     -0.000560
    28   Atom       -0.003460     -0.003795      0.007255
    29   Atom        0.003638     -0.001381     -0.002257
 --------------------------------------------------------
                        XY            XZ            YZ
 --------------------------------------------------------
     1   Atom        0.022493      0.011103      0.001672
     2   Atom        0.152678      0.071341      0.051445
     3   Atom        0.024678      0.112043      0.001884
     4   Atom       -0.013780      0.028001     -0.012408
     5   Atom        0.004333      0.002898      0.006813
     6   Atom       -0.039374      0.092900     -0.002877
     7   Atom       -0.002619      0.007801      0.005477
     8   Atom        0.104678      0.003217      0.002197
     9   Atom       -0.014972      0.042912     -0.017225
    10   Atom        0.001554     -0.006285      0.002479
    11   Atom        0.006201      0.001399      0.005353
    12   Atom       -0.001764      0.002526     -0.004413
    13   Atom        0.004214     -0.004581      0.011160
    14   Atom        0.003268      0.003273     -0.011698
    15   Atom       -0.005724      0.001439     -0.004048
    16   Atom       -0.001508      0.000335     -0.004175
    17   Atom        0.000531      0.000389     -0.004408
    18   Atom       -0.007632     -0.002641      0.003372
    19   Atom        0.002985      0.000581      0.008426
    20   Atom       -0.000391     -0.003179     -0.000298
    21   Atom       -0.000642     -0.003058      0.001904
    22   Atom       -0.001213     -0.001024      0.003577
    23   Atom       -0.005544     -0.004367      0.003798
    24   Atom        0.003552     -0.001395      0.010329
    25   Atom        0.005724     -0.002675     -0.011221
    26   Atom       -0.007039      0.002868     -0.002606
    27   Atom        0.001769     -0.000749     -0.010282
    28   Atom       -0.003142      0.002694      0.001335
    29   Atom       -0.008116     -0.000899     -0.001247
 --------------------------------------------------------


 ---------------------------------------------------------------------------------
              Anisotropic Spin Dipole Couplings in Principal Axis System
 ---------------------------------------------------------------------------------

       Atom             a.u.   MegaHertz   Gauss  10(-4) cm-1        Axes

              Baa    -0.0469    -6.300    -2.248    -2.101 -0.1724  0.9799  0.1004
     1 C(13)  Bbb    -0.0451    -6.054    -2.160    -2.019 -0.0640 -0.1128  0.9916
              Bcc     0.0921    12.354     4.408     4.121  0.9830  0.1645  0.0821
 
              Baa    -0.1161   -15.575    -5.558    -5.195 -0.5932  0.4752  0.6498
     2 C(13)  Bbb    -0.1106   -14.840    -5.295    -4.950  0.2535 -0.6559  0.7110
              Bcc     0.2267    30.415    10.853    10.145  0.7641  0.5865  0.2687
 
              Baa    -0.2425   -32.539   -11.611   -10.854 -0.0562  0.9900  0.1290
     3 C(13)  Bbb    -0.2264   -30.382   -10.841   -10.134 -0.1572 -0.1364  0.9781
              Bcc     0.4689    62.921    22.452    20.988  0.9860  0.0347  0.1633
 
              Baa    -0.0276    -3.699    -1.320    -1.234 -0.3054  0.4904  0.8162
     4 C(13)  Bbb    -0.0185    -2.478    -0.884    -0.827  0.4665  0.8243 -0.3207
              Bcc     0.0460     6.178     2.204     2.061  0.8301 -0.2828  0.4805
 
              Baa    -0.0224    -3.006    -1.073    -1.003 -0.0332  0.8033 -0.5947
     5 C(13)  Bbb    -0.0088    -1.182    -0.422    -0.394 -0.1236  0.5871  0.8000
              Bcc     0.0312     4.188     1.494     1.397  0.9918  0.1000  0.0798
 
              Baa    -0.2195   -29.453   -10.509    -9.824  0.1028  0.9491 -0.2976
     6 C(13)  Bbb    -0.2094   -28.105   -10.029    -9.375 -0.1213  0.3089  0.9433
              Bcc     0.4289    57.558    20.538    19.199  0.9873 -0.0609  0.1469
 
              Baa    -0.0206    -2.762    -0.986    -0.921 -0.1506 -0.6929  0.7051
     7 C(13)  Bbb    -0.0089    -1.190    -0.425    -0.397 -0.0944  0.7200  0.6875
              Bcc     0.0295     3.953     1.410     1.318  0.9841 -0.0370  0.1739
 
              Baa    -0.0751   -10.073    -3.594    -3.360 -0.5711  0.8207  0.0181
     8 C(13)  Bbb    -0.0733    -9.831    -3.508    -3.279 -0.0041 -0.0249  0.9997
              Bcc     0.1483    19.904     7.102     6.639  0.8209  0.5708  0.0176
 
              Baa    -0.0348    -4.664    -1.664    -1.556 -0.3601  0.6301  0.6879
     9 C(13)  Bbb    -0.0272    -3.645    -1.301    -1.216  0.5642  0.7344 -0.3773
              Bcc     0.0619     8.308     2.965     2.771  0.7429 -0.2523  0.6200
 
              Baa    -0.0080    -4.275    -1.525    -1.426 -0.3346  0.8638 -0.3767
    10 H(1)   Bbb    -0.0015    -0.783    -0.279    -0.261  0.6373  0.5019  0.5847
              Bcc     0.0095     5.058     1.805     1.687 -0.6941  0.0444  0.7185
 
              Baa    -0.0088    -4.694    -1.675    -1.566  0.0979 -0.3353  0.9370
    11 H(1)   Bbb    -0.0038    -2.052    -0.732    -0.684  0.9010 -0.3701 -0.2265
              Bcc     0.0126     6.746     2.407     2.250  0.4227  0.8664  0.2658
 
              Baa    -0.0086    -4.563    -1.628    -1.522 -0.1288  0.3662  0.9216
    12 H(1)   Bbb     0.0016     0.876     0.313     0.292  0.6378  0.7422 -0.2058
              Bcc     0.0069     3.687     1.316     1.230  0.7594 -0.5613  0.3291
 
              Baa    -0.0159    -8.494    -3.031    -2.833 -0.4346  0.8105 -0.3928
    13 H(1)   Bbb    -0.0015    -0.787    -0.281    -0.262  0.8923  0.4466 -0.0657
              Bcc     0.0174     9.281     3.312     3.096 -0.1222  0.3791  0.9173
 
              Baa    -0.0161    -8.589    -3.065    -2.865 -0.3553  0.3659  0.8602
    14 H(1)   Bbb    -0.0033    -1.775    -0.633    -0.592  0.9317  0.0636  0.3577
              Bcc     0.0194    10.364     3.698     3.457  0.0761  0.9285 -0.3635
 
              Baa    -0.0080    -4.285    -1.529    -1.429  0.1891  0.6675  0.7202
    15 H(1)   Bbb    -0.0022    -1.156    -0.413    -0.386 -0.4799 -0.5771  0.6608
              Bcc     0.0102     5.441     1.941     1.815  0.8567 -0.4706  0.2112
 
              Baa    -0.0064    -3.428    -1.223    -1.143  0.3843  0.8880  0.2525
    16 H(1)   Bbb    -0.0026    -1.413    -0.504    -0.471  0.9211 -0.3502 -0.1704
              Bcc     0.0091     4.842     1.728     1.615  0.0628 -0.2981  0.9525
 
              Baa    -0.0071    -3.791    -1.353    -1.265 -0.2137  0.2410  0.9467
    17 H(1)   Bbb    -0.0047    -2.498    -0.891    -0.833  0.9766  0.0275  0.2134
              Bcc     0.0118     6.289     2.244     2.098  0.0254  0.9701 -0.2413
 
              Baa    -0.0063    -3.354    -1.197    -1.119  0.6672  0.7191 -0.1944
    18 H(1)   Bbb    -0.0042    -2.216    -0.791    -0.739  0.3536 -0.0760  0.9323
              Bcc     0.0104     5.570     1.988     1.858 -0.6556  0.6908  0.3049
 
              Baa    -0.0073    -3.909    -1.395    -1.304  0.4297 -0.6092  0.6664
    19 H(1)   Bbb    -0.0038    -2.036    -0.726    -0.679  0.8855  0.1397 -0.4432
              Bcc     0.0111     5.945     2.121     1.983  0.1769  0.7806  0.5995
 
              Baa    -0.0047    -2.508    -0.895    -0.836  0.3078  0.9453  0.1084
    20 H(1)   Bbb    -0.0032    -1.710    -0.610    -0.570  0.9046 -0.3260  0.2745
              Bcc     0.0079     4.217     1.505     1.407 -0.2949 -0.0136  0.9554
 
              Baa    -0.0049    -2.602    -0.928    -0.868  0.9525  0.2365  0.1921
    21 H(1)   Bbb    -0.0041    -2.191    -0.782    -0.731 -0.1975  0.9593 -0.2018
              Bcc     0.0090     4.793     1.710     1.599 -0.2320  0.1542  0.9604
 
              Baa    -0.0051    -2.700    -0.963    -0.901  0.5353 -0.1832  0.8246
    22 H(1)   Bbb    -0.0037    -1.953    -0.697    -0.651  0.8369  0.2475 -0.4883
              Bcc     0.0087     4.653     1.660     1.552 -0.1146  0.9514  0.2858
 
              Baa    -0.0068    -3.628    -1.295    -1.210 -0.0573 -0.6955  0.7162
    23 H(1)   Bbb    -0.0041    -2.174    -0.776    -0.725  0.5738  0.5641  0.5937
              Bcc     0.0109     5.802     2.070     1.935  0.8170 -0.4450 -0.3668
 
              Baa    -0.0123    -6.564    -2.342    -2.189  0.2523 -0.5133  0.8203
    24 H(1)   Bbb    -0.0002    -0.103    -0.037    -0.034  0.9503 -0.0283 -0.3100
              Bcc     0.0125     6.667     2.379     2.224  0.1823  0.8578  0.4806
 
              Baa    -0.0115    -6.155    -2.196    -2.053 -0.3054  0.7826  0.5425
    25 H(1)   Bbb    -0.0028    -1.495    -0.533    -0.499  0.8890  0.0301  0.4569
              Bcc     0.0143     7.650     2.730     2.552 -0.3412 -0.6218  0.7049
 
              Baa    -0.0124    -6.617    -2.361    -2.207 -0.0688  0.1660  0.9837
    26 H(1)   Bbb    -0.0031    -1.642    -0.586    -0.548  0.4472  0.8866 -0.1183
              Bcc     0.0155     8.259     2.947     2.755  0.8918 -0.4318  0.1352
 
              Baa    -0.0086    -4.571    -1.631    -1.525 -0.1165  0.6155  0.7795
    27 H(1)   Bbb    -0.0044    -2.333    -0.832    -0.778  0.9873 -0.0133  0.1581
              Bcc     0.0129     6.904     2.463     2.303  0.1077  0.7880 -0.6062
 
              Baa    -0.0073    -3.909    -1.395    -1.304  0.6960  0.6919 -0.1919
    28 H(1)   Bbb    -0.0006    -0.319    -0.114    -0.107 -0.6848  0.7200  0.1125
              Bcc     0.0079     4.228     1.509     1.410  0.2160  0.0531  0.9749
 
              Baa    -0.0078    -4.158    -1.484    -1.387  0.5717  0.7756  0.2675
    29 H(1)   Bbb    -0.0018    -0.977    -0.349    -0.326 -0.1599 -0.2144  0.9636
              Bcc     0.0096     5.135     1.832     1.713  0.8047 -0.5937  0.0014
 

 ---------------------------------------------------------------------------------

   1 Symmetry operations used in ECPInt.
 ECPInt:  NShTT=    4465 NPrTT=   17943 LenC2=    4452 LenP2D=   14263.
 LDataN:  DoStor=T MaxTD1= 5 Len=  102
 Calling FoFJK, ICntrl=      2127 FMM=F ISym2X=0 I1Cent= 0 IOpClX= 1 NMat=1 NMatS=1 NMatT=0.

 GradGradGradGradGradGradGradGradGradGradGradGradGradGradGradGradGradGrad
 FormGI is forming the generalized inverse of G from B-inverse, IUseBI=4.
 Internal  Forces:  Max     0.045095648 RMS     0.005885832
 Step number   1 out of a maximum of  164
 All quantities printed in internal units (Hartrees-Bohrs-Radians)
 Mixed Optimization -- RFO/linear search
 Second derivative matrix not updated -- first step.
 ITU=  0
     Eigenvalues ---    0.00230   0.00230   0.00230   0.00230   0.00231
     Eigenvalues ---    0.00234   0.00238   0.00374   0.03118   0.04366
     Eigenvalues ---    0.04424   0.04511   0.04621   0.04697   0.05091
     Eigenvalues ---    0.05190   0.05194   0.05199   0.05235   0.05248
     Eigenvalues ---    0.05289   0.05446   0.05448   0.05480   0.05509
     Eigenvalues ---    0.05516   0.05519   0.05588   0.08978   0.12662
     Eigenvalues ---    0.14252   0.14333   0.14387   0.14507   0.16000
     Eigenvalues ---    0.16000   0.16000   0.16000   0.16000   0.16000
     Eigenvalues ---    0.16000   0.16000   0.16000   0.16000   0.16000
     Eigenvalues ---    0.16000   0.16000   0.16000   0.16000   0.16000
     Eigenvalues ---    0.16000   0.16000   0.21973   0.24674   0.27403
     Eigenvalues ---    0.28459   0.28459   0.28481   0.28499   0.28530
     Eigenvalues ---    0.29459   0.33175   0.33177   0.33182   0.33182
     Eigenvalues ---    0.33245   0.33263   0.33266   0.33268   0.33277
     Eigenvalues ---    0.33277   0.33286   0.33311   0.33314   0.33316
     Eigenvalues ---    0.33319   0.33365   0.33372   0.33375   0.33386
     Eigenvalues ---    0.33403
 Linear search not attempted -- first point.
 Maximum step size (   0.300) exceeded in Quadratic search.
    -- Step size scaled by   0.938
 Iteration  1 RMS(Cart)=  0.04494208 RMS(Int)=  0.00147348
 Iteration  2 RMS(Cart)=  0.00277961 RMS(Int)=  0.00065530
 Iteration  3 RMS(Cart)=  0.00000290 RMS(Int)=  0.00065530
 Iteration  4 RMS(Cart)=  0.00000000 RMS(Int)=  0.00065530
 Variable       Old X    -DE/DX   Delta X   Delta X   Delta X     New X
                                 (Linear)    (Quad)   (Total)
    R1        2.89056  -0.00147   0.00000  -0.00425  -0.00425   2.88630
    R2        2.08403  -0.00125   0.00000  -0.00323  -0.00323   2.08080
    R3        2.08551   0.00106   0.00000   0.00274   0.00274   2.08826
    R4        2.08588  -0.00108   0.00000  -0.00280  -0.00280   2.08307
    R5        2.93462   0.01554   0.00000   0.04792   0.04792   2.98254
    R6        2.08623  -0.00029   0.00000  -0.00074  -0.00074   2.08549
    R7        2.08745  -0.00186   0.00000  -0.00481  -0.00481   2.08265
    R8        2.91060  -0.00720   0.00000  -0.02144  -0.02144   2.88916
    R9        2.90994  -0.00925   0.00000  -0.02751  -0.02751   2.88243
   R10        3.00046   0.04510   0.00000   0.15278   0.15278   3.15324
   R11        2.08494   0.00093   0.00000   0.00241   0.00241   2.08735
   R12        2.08583  -0.00123   0.00000  -0.00317  -0.00317   2.08265
   R13        2.08379  -0.00057   0.00000  -0.00147  -0.00147   2.08232
   R14        2.08499   0.00006   0.00000   0.00015   0.00015   2.08514
   R15        2.08504   0.00080   0.00000   0.00205   0.00205   2.08709
   R16        2.08508  -0.00116   0.00000  -0.00300  -0.00300   2.08208
   R17        2.91147  -0.00795   0.00000  -0.02370  -0.02370   2.88777
   R18        2.91146   0.00750   0.00000   0.02235   0.02235   2.93381
   R19        2.91099  -0.00321   0.00000  -0.00955  -0.00955   2.90144
   R20        2.08592  -0.00045   0.00000  -0.00117  -0.00117   2.08475
   R21        2.08350  -0.00050   0.00000  -0.00129  -0.00129   2.08221
   R22        2.08742   0.00040   0.00000   0.00103   0.00103   2.08844
   R23        2.08568  -0.00132   0.00000  -0.00342  -0.00342   2.08226
   R24        2.08398  -0.00151   0.00000  -0.00390  -0.00390   2.08008
   R25        2.08733  -0.00052   0.00000  -0.00134  -0.00134   2.08598
   R26        2.08568  -0.00064   0.00000  -0.00166  -0.00166   2.08401
   R27        2.08415  -0.00086   0.00000  -0.00223  -0.00223   2.08193
   R28        2.08734  -0.00031   0.00000  -0.00080  -0.00080   2.08653
    A1        1.95624   0.00369   0.00000   0.02161   0.02136   1.97760
    A2        1.91843  -0.01242   0.00000  -0.06843  -0.06849   1.84994
    A3        1.96227   0.00142   0.00000   0.01087   0.01049   1.97276
    A4        1.87169   0.00323   0.00000   0.00871   0.00880   1.88049
    A5        1.88016  -0.00024   0.00000   0.01144   0.01095   1.89112
    A6        1.87077   0.00469   0.00000   0.01699   0.01679   1.88756
    A7        2.03534  -0.01607   0.00000  -0.06404  -0.06398   1.97137
    A8        1.88880   0.00970   0.00000   0.04552   0.04432   1.93312
    A9        1.87876   0.00328   0.00000   0.01156   0.01155   1.89031
   A10        1.89412  -0.00063   0.00000  -0.02134  -0.02074   1.87338
   A11        1.90884   0.00691   0.00000   0.02863   0.02883   1.93767
   A12        1.84924  -0.00208   0.00000   0.00599   0.00553   1.85477
   A13        1.89356   0.00830   0.00000   0.05223   0.04974   1.94330
   A14        1.90998   0.00392   0.00000   0.03141   0.02985   1.93983
   A15        1.92090  -0.01472   0.00000  -0.11599  -0.11514   1.80576
   A16        1.87921  -0.00315   0.00000   0.02161   0.01993   1.89913
   A17        1.93005   0.00027   0.00000  -0.00869  -0.00816   1.92189
   A18        1.92930   0.00579   0.00000   0.02376   0.02398   1.95328
   A19        1.93063  -0.00678   0.00000  -0.04008  -0.04003   1.89059
   A20        1.95697   0.00161   0.00000   0.01257   0.01234   1.96931
   A21        1.95059   0.00313   0.00000   0.01755   0.01732   1.96790
   A22        1.87270   0.00208   0.00000   0.00657   0.00661   1.87932
   A23        1.86445   0.00019   0.00000  -0.00778  -0.00775   1.85670
   A24        1.88424  -0.00021   0.00000   0.01083   0.01040   1.89465
   A25        1.93039  -0.00149   0.00000  -0.00992  -0.00998   1.92041
   A26        1.94955   0.00007   0.00000  -0.00210  -0.00218   1.94737
   A27        1.95700   0.00062   0.00000   0.00814   0.00814   1.96513
   A28        1.86610  -0.00125   0.00000  -0.01588  -0.01601   1.85009
   A29        1.87422   0.00148   0.00000   0.01208   0.01210   1.88631
   A30        1.88248   0.00057   0.00000   0.00747   0.00744   1.88992
   A31        1.94769   0.00590   0.00000   0.02309   0.02360   1.97129
   A32        1.94262  -0.01185   0.00000  -0.09495  -0.09405   1.84857
   A33        1.94275  -0.00354   0.00000  -0.03313  -0.03226   1.91048
   A34        1.87244   0.00197   0.00000   0.02574   0.02417   1.89661
   A35        1.87964  -0.00140   0.00000   0.02483   0.02333   1.90297
   A36        1.87513   0.00957   0.00000   0.06140   0.05859   1.93372
   A37        1.95845   0.00069   0.00000   0.00595   0.00586   1.96431
   A38        1.95881   0.00050   0.00000   0.00541   0.00532   1.96413
   A39        1.91554  -0.00149   0.00000  -0.01277  -0.01278   1.90276
   A40        1.88466   0.00126   0.00000   0.01573   0.01558   1.90024
   A41        1.87175  -0.00064   0.00000  -0.00860  -0.00861   1.86314
   A42        1.87049  -0.00039   0.00000  -0.00661  -0.00662   1.86387
   A43        1.96119   0.00105   0.00000   0.00837   0.00799   1.96918
   A44        1.95517   0.00287   0.00000   0.01780   0.01759   1.97276
   A45        1.91638  -0.01396   0.00000  -0.07561  -0.07580   1.84058
   A46        1.88458   0.00021   0.00000   0.01284   0.01248   1.89706
   A47        1.87145   0.00560   0.00000   0.02094   0.02058   1.89203
   A48        1.87095   0.00475   0.00000   0.01753   0.01752   1.88847
   A49        1.96172   0.00545   0.00000   0.02753   0.02751   1.98924
   A50        1.95417  -0.00082   0.00000  -0.00014  -0.00033   1.95383
   A51        1.91738  -0.00742   0.00000  -0.04106  -0.04099   1.87639
   A52        1.88334  -0.00099   0.00000   0.00298   0.00275   1.88610
   A53        1.87170  -0.00030   0.00000  -0.00880  -0.00855   1.86314
   A54        1.87144   0.00416   0.00000   0.01954   0.01941   1.89085
    D1       -1.15643  -0.00341   0.00000  -0.03375  -0.03430  -1.19073
    D2        2.98659   0.00104   0.00000   0.00343   0.00384   2.99044
    D3        0.99514  -0.00300   0.00000  -0.03192  -0.03222   0.96292
    D4        3.04707  -0.00156   0.00000  -0.01292  -0.01323   3.03384
    D5        0.90691   0.00289   0.00000   0.02427   0.02491   0.93181
    D6       -1.08454  -0.00115   0.00000  -0.01108  -0.01116  -1.09570
    D7        0.96466   0.00001   0.00000   0.00495   0.00462   0.96927
    D8       -1.17551   0.00446   0.00000   0.04213   0.04276  -1.13275
    D9        3.11623   0.00042   0.00000   0.00678   0.00669   3.12292
   D10       -1.26108  -0.00318   0.00000  -0.04560  -0.04708  -1.30815
   D11        0.78480  -0.00004   0.00000   0.02750   0.02741   0.81222
   D12        2.90822   0.00026   0.00000   0.00313   0.00307   2.91129
   D13        0.87632  -0.00231   0.00000  -0.04823  -0.04866   0.82766
   D14        2.92220   0.00083   0.00000   0.02488   0.02584   2.94803
   D15       -1.23757   0.00113   0.00000   0.00051   0.00150  -1.23607
   D16        2.88615  -0.00141   0.00000  -0.03743  -0.03833   2.84782
   D17       -1.35116   0.00172   0.00000   0.03567   0.03616  -1.31500
   D18        0.77226   0.00203   0.00000   0.01130   0.01182   0.78408
   D19        0.89074   0.00702   0.00000   0.06567   0.06624   0.95698
   D20       -1.19894   0.00794   0.00000   0.07635   0.07705  -1.12189
   D21        2.96579   0.00480   0.00000   0.04070   0.04116   3.00695
   D22       -1.17474  -0.00040   0.00000  -0.01183  -0.01218  -1.18692
   D23        3.01877   0.00052   0.00000  -0.00114  -0.00137   3.01740
   D24        0.90031  -0.00262   0.00000  -0.03679  -0.03726   0.86305
   D25        2.99898  -0.00565   0.00000  -0.04928  -0.04951   2.94947
   D26        0.90930  -0.00474   0.00000  -0.03860  -0.03870   0.87060
   D27       -1.20916  -0.00788   0.00000  -0.07425  -0.07459  -1.28375
   D28       -1.22682  -0.00889   0.00000  -0.08620  -0.08607  -1.31290
   D29        2.98007  -0.00638   0.00000  -0.05830  -0.05824   2.92183
   D30        0.86463  -0.00762   0.00000  -0.07224  -0.07217   0.79246
   D31        0.82807   0.00137   0.00000   0.00544   0.00503   0.83309
   D32       -1.24823   0.00388   0.00000   0.03335   0.03286  -1.21537
   D33        2.91952   0.00264   0.00000   0.01940   0.01893   2.93845
   D34        2.93801   0.00317   0.00000   0.02251   0.02292   2.96093
   D35        0.86171   0.00568   0.00000   0.05042   0.05076   0.91247
   D36       -1.25372   0.00444   0.00000   0.03647   0.03683  -1.21690
   D37        0.78639   0.00098   0.00000   0.01113   0.01182   0.79821
   D38        2.87768  -0.00059   0.00000  -0.00510  -0.00555   2.87213
   D39       -1.31414   0.00117   0.00000  -0.01354  -0.01139  -1.32553
   D40       -1.30550  -0.00007   0.00000   0.02626   0.02515  -1.28035
   D41        0.78579  -0.00163   0.00000   0.01003   0.00778   0.79357
   D42        2.87715   0.00013   0.00000   0.00159   0.00194   2.87909
   D43        2.89827  -0.00001   0.00000  -0.01027  -0.01017   2.88810
   D44       -1.29363  -0.00158   0.00000  -0.02650  -0.02754  -1.32116
   D45        0.79774   0.00018   0.00000  -0.03493  -0.03338   0.76436
   D46        0.91219  -0.00152   0.00000  -0.01384  -0.01410   0.89809
   D47       -1.21385  -0.00404   0.00000  -0.04272  -0.04305  -1.25690
   D48        2.99143  -0.00288   0.00000  -0.02936  -0.02965   2.96179
   D49       -1.22001   0.00823   0.00000   0.07256   0.07228  -1.14773
   D50        2.93714   0.00571   0.00000   0.04367   0.04333   2.98047
   D51        0.85924   0.00687   0.00000   0.05704   0.05673   0.91597
   D52        3.04935  -0.00316   0.00000  -0.02391  -0.02328   3.02606
   D53        0.92330  -0.00569   0.00000  -0.05280  -0.05223   0.87107
   D54       -1.15459  -0.00452   0.00000  -0.03943  -0.03883  -1.19343
   D55        0.91042  -0.00068   0.00000   0.00127   0.00060   0.91102
   D56       -1.21486  -0.00383   0.00000  -0.03468  -0.03542  -1.25028
   D57        2.99161  -0.00236   0.00000  -0.01790  -0.01846   2.97315
   D58        3.04577   0.00062   0.00000  -0.01164  -0.01210   3.03367
   D59        0.92050  -0.00252   0.00000  -0.04759  -0.04812   0.87237
   D60       -1.15622  -0.00106   0.00000  -0.03081  -0.03116  -1.18738
   D61       -1.22058   0.00470   0.00000   0.06033   0.06141  -1.15917
   D62        2.93733   0.00156   0.00000   0.02438   0.02539   2.96272
   D63        0.86061   0.00303   0.00000   0.04116   0.04236   0.90296
   D64        0.91828   0.00616   0.00000   0.05378   0.05418   0.97246
   D65       -1.20503   0.00408   0.00000   0.02995   0.03020  -1.17483
   D66        3.00080   0.00430   0.00000   0.03274   0.03291   3.03371
   D67       -1.22192   0.00199   0.00000   0.02932   0.03002  -1.19190
   D68        2.93795  -0.00009   0.00000   0.00549   0.00605   2.94400
   D69        0.86060   0.00012   0.00000   0.00828   0.00876   0.86935
   D70        3.04921  -0.00439   0.00000  -0.04372  -0.04445   3.00475
   D71        0.92589  -0.00647   0.00000  -0.06755  -0.06843   0.85746
   D72       -1.15146  -0.00626   0.00000  -0.06476  -0.06572  -1.21718
         Item               Value     Threshold  Converged?
 Maximum Force            0.045096     0.000015     NO 
 RMS     Force            0.005886     0.000010     NO 
 Maximum Displacement     0.192685     0.000060     NO 
 RMS     Displacement     0.046019     0.000040     NO 
 GradGradGradGradGradGradGradGradGradGradGradGradGradGradGradGradGradGrad

                    Distance matrix (angstroms):
                    1          2          3          4          5
     1  C    0.000000
     2  C    1.527366   0.000000
     3  C    2.589182   1.578291   0.000000
     4  C    3.228093   2.566107   1.528876   0.000000
     5  C    2.944456   2.560145   1.525318   2.483558   0.000000
     6  C    3.952383   2.549809   1.668623   2.622314   2.647781
     7  C    4.388036   2.871859   2.666045   3.266417   3.983466
     8  C    5.141965   3.881144   2.572026   2.854637   3.206645
     9  C    4.404818   3.140545   2.617047   3.936150   2.949648
    10  H    1.101111   2.208212   2.948393   3.793725   2.730365
    11  H    1.105057   2.117569   3.507097   4.124786   3.994959
    12  H    1.102316   2.205745   2.845782   2.941847   3.190556
    13  H    2.178462   1.103595   2.178759   2.678969   3.480459
    14  H    2.145902   1.102089   2.225637   3.505952   2.951476
    15  H    2.842700   2.736787   2.149268   1.104576   2.767225
    16  H    3.729914   2.881408   2.204487   1.102093   3.467215
    17  H    4.159002   3.542941   2.203360   1.101915   2.682711
    18  H    2.765463   2.928618   2.167285   2.625480   1.103411
    19  H    4.031613   3.525133   2.187551   2.827160   1.104442
    20  H    3.026439   2.727448   2.198155   3.460416   1.101792
    21  H    4.463625   3.071676   2.866531   2.936190   4.337088
    22  H    4.112855   2.649665   3.032552   3.856071   4.304491
    23  H    5.468636   3.944008   3.613546   4.159972   4.795716
    24  H    5.290416   4.245181   2.747745   3.008065   2.839322
    25  H    5.400215   4.188289   2.921277   2.625073   3.777831
    26  H    6.021147   4.665091   3.518907   3.928922   4.099315
    27  H    3.950214   2.819339   2.855436   4.325320   3.153891
    28  H    4.753638   3.715774   2.923144   4.204851   2.687247
    29  H    5.386633   4.032523   3.570933   4.747218   4.018419
                    6          7          8          9         10
     6  C    0.000000
     7  C    1.528140   0.000000
     8  C    1.552508   2.502849   0.000000
     9  C    1.535377   2.494558   2.541675   0.000000
    10  H    4.302133   5.003818   5.447663   4.451739   0.000000
    11  H    4.662005   4.810032   5.974553   5.030688   1.781931
    12  H    4.395193   4.844591   5.352268   5.105892   1.786591
    13  H    2.808883   2.556204   4.073290   3.674017   3.113392
    14  H    2.628135   2.880022   4.137171   2.684785   2.498258
    15  H    3.575249   4.165561   3.932440   4.752110   3.422335
    16  H    2.799764   2.911175   3.009007   4.279362   4.499115
    17  H    2.996906   3.853943   2.651212   4.258534   4.552042
    18  H    3.606855   4.817876   4.085344   4.030790   2.453991
    19  H    2.833720   4.314181   2.851822   3.103000   3.809390
    20  H    2.991957   4.285153   3.801818   2.731452   2.526602
    21  H    2.201158   1.103204   2.822057   3.477684   5.246339
    22  H    2.200002   1.101859   3.484790   2.692193   4.743741
    23  H    2.158095   1.105157   2.659425   2.790709   6.029368
    24  H    2.225239   3.485306   1.101885   2.881147   5.413087
    25  H    2.226883   2.710760   1.100731   3.512825   5.864318
    26  H    2.131262   2.744383   1.103854   2.649788   6.300525
    27  H    2.224776   2.860905   3.527604   1.102812   3.932877
    28  H    2.198985   3.465010   2.729679   1.101708   4.580052
    29  H    2.143969   2.613400   2.829670   1.104146   5.495516
                   11         12         13         14         15
    11  H    0.000000
    12  H    1.787491   0.000000
    13  H    2.414050   2.593733   0.000000
    14  H    2.439287   3.091672   1.764665   0.000000
    15  H    3.729339   2.218277   2.889726   3.799011   0.000000
    16  H    4.424634   3.456472   2.551579   3.789849   1.781569
    17  H    5.129732   3.818352   3.745866   4.389151   1.766591
    18  H    3.858238   2.709477   3.818814   3.522585   2.461621
    19  H    5.089432   4.177296   4.338598   3.870884   3.289093
    20  H    3.940874   3.572185   3.781935   2.721839   3.708408
    21  H    4.864453   4.697159   2.454838   3.407370   3.780462
    22  H    4.308956   4.743437   2.268700   2.368168   4.574931
    23  H    5.873379   5.942792   3.641601   3.818568   5.138631
    24  H    6.240990   5.434493   4.653116   4.541713   3.962358
    25  H    6.209161   5.425748   4.152196   4.649746   3.705018
    26  H    6.781549   6.336464   4.806666   4.719020   5.015864
    27  H    4.407447   4.826012   3.434730   2.035066   4.965499
    28  H    5.508879   5.392817   4.433296   3.354061   4.966403
    29  H    5.918105   6.101058   4.372772   3.497285   5.653511
                   16         17         18         19         20
    16  H    0.000000
    17  H    1.789336   0.000000
    18  H    3.695115   2.806818   0.000000
    19  H    3.799210   2.588025   1.763295   0.000000
    20  H    4.354667   3.759723   1.784926   1.788092   0.000000
    21  H    2.244949   3.564959   4.996486   4.681991   4.844617
    22  H    3.546601   4.621529   5.097365   4.839402   4.392823
    23  H    3.752447   4.563744   5.712598   4.945568   5.048079
    24  H    3.482509   2.511152   3.652601   2.146423   3.482415
    25  H    2.486146   2.323685   4.466644   3.478070   4.553562
    26  H    3.959252   3.733640   5.060515   3.685646   4.509379
    27  H    4.679462   4.848593   4.126551   3.610695   2.650368
    28  H    4.760856   4.312732   3.768346   2.563967   2.365605
    29  H    4.913116   5.013290   5.108466   4.043406   3.812737
                   21         22         23         24         25
    21  H    0.000000
    22  H    1.793785   0.000000
    23  H    1.772335   1.771738   0.000000
    24  H    3.807946   4.376117   3.717591   0.000000
    25  H    2.585579   3.783490   2.883152   1.789757   0.000000
    26  H    3.238153   3.696747   2.446217   1.789054   1.785824
    27  H    3.842574   2.619782   3.316676   3.861396   4.409400
    28  H    4.355037   3.765007   3.729980   2.634085   3.799699
    29  H    3.677317   2.820340   2.456697   3.337456   3.770407
                   26         27         28         29
    26  H    0.000000
    27  H    3.713835   0.000000
    28  H    2.863834   1.784235   0.000000
    29  H    2.491363   1.771212   1.788388   0.000000
 Framework group  C1[X(C9H20)]
 Deg. of freedom    81
                         Standard orientation:                         
 ---------------------------------------------------------------------
 Center     Atomic      Atomic             Coordinates (Angstroms)
 Number     Number       Type             X           Y           Z
 ---------------------------------------------------------------------
      1          6           0       -2.801319   -0.639869   -0.044410
      2          6           0       -1.314437   -0.882879   -0.295361
      3          6           0       -0.425050    0.387449   -0.001662
      4          6           0       -0.567405    1.434015   -1.107056
      5          6           0       -0.800967    1.025972    1.331594
      6          6           0        1.128401   -0.221483    0.015486
      7          6           0        1.411767   -1.164100   -1.153441
      8          6           0        2.069023    1.008353   -0.098588
      9          6           0        1.369323   -0.971593    1.333316
     10          1           0       -3.045863   -0.496522    1.019589
     11          1           0       -3.321385   -1.551742   -0.389623
     12          1           0       -3.199713    0.217844   -0.610723
     13          1           0       -1.137208   -1.172787   -1.345344
     14          1           0       -0.995094   -1.739813    0.319686
     15          1           0       -1.639885    1.670355   -1.225460
     16          1           0       -0.193068    1.080491   -2.081479
     17          1           0       -0.065106    2.383690   -0.862045
     18          1           0       -1.751447    1.577481    1.231878
     19          1           0       -0.049724    1.769459    1.651987
     20          1           0       -0.918982    0.284315    2.137795
     21          1           0        1.145265   -0.721310   -2.128106
     22          1           0        0.896965   -2.132714   -1.049241
     23          1           0        2.495041   -1.380295   -1.187354
     24          1           0        1.848501    1.786076    0.650190
     25          1           0        2.057433    1.468073   -1.098653
     26          1           0        3.084927    0.620310    0.090768
     27          1           0        0.638513   -1.773033    1.532830
     28          1           0        1.374808   -0.290843    2.199521
     29          1           0        2.360013   -1.454229    1.264515
 ---------------------------------------------------------------------
 Rotational constants (GHZ):           2.0572808           1.1857502           1.1238529
   166 basis functions,   305 primitive gaussians,   175 cartesian basis functions
    37 alpha electrons       36 beta electrons
       nuclear repulsion energy       523.0836840876 Hartrees.
 NAtoms=   29 NActive=   29 NUniq=   29 SFac= 1.00D+00 NAtFMM=   60 NAOKFM=F Big=F
 Nuclear repulsion after empirical dispersion term =      523.0569460447 Hartrees.
   1 Symmetry operations used in ECPInt.
 ECPInt:  NShTT=    4465 NPrTT=   17943 LenC2=    4451 LenP2D=   14261.
 LDataN:  DoStor=T MaxTD1= 4 Len=   56
 Initial guess from the checkpoint file:  "34.chk"
 B after Tr=     0.000000    0.000000   -0.000000
         Rot=    0.999927   -0.003844    0.009463   -0.006426 Ang=  -1.38 deg.
 Initial guess <Sx>= 0.0000 <Sy>= 0.0000 <Sz>= 0.5000 <S**2>= 0.7529 S= 0.5015
 ExpMin= 1.22D-01 ExpMax= 1.24D+03 ExpMxC= 1.86D+02 IAcc=3 IRadAn=         5 AccDes= 0.00D+00
 Harris functional with IExCor= 4639 and IRadAn=       5 diagonalized for initial guess.
 HarFok:  IExCor= 4639 AccDes= 0.00D+00 IRadAn=         5 IDoV= 1 UseB2=F ITyADJ=14
 ICtDFT=  3500011 ScaDFX=  1.000000  1.000000  1.000000  1.000000
 FoFCou: FMM=F IPFlag=           0 FMFlag=      100000 FMFlg1=           0
         NFxFlg=           0 DoJE=T BraDBF=F KetDBF=T FulRan=T
         wScrn=  0.000000 ICntrl=       500 IOpCl=  0 I1Cent=   200000004 NGrid=           0
         NMat0=    1 NMatS0=      1 NMatT0=    0 NMatD0=    1 NMtDS0=    0 NMtDT0=    0
 Petite list used in FoFCou.
     Accept linear search using points  3 and  4.
     Minimum is close to point  4 DX= -7.62D-02 DF= -4.22D-06 DXR=  6.78D-02 DFR=  1.23D-03 which will be used.
     Accept linear search using points  2 and  3.
     Accept linear search using points  1 and  2.
     Minimum is close to point  2 DX=  1.06D-01 DF= -7.29D-07 DXR=  8.79D-02 DFR=  7.78D-03 which will be used.
     Accept linear search using points  1 and  2.
     Minimum is close to point  2 DX= -8.31D-03 DF= -2.65D-08 DXR=  8.38D-03 DFR=  7.07D-05 which will be used.
     Minimum is close to point  2 DX=  2.42D-04 DF= -1.14D-13 DXR=  2.42D-04 DFR=  3.22D-07 which will be used.
 SCF Done:  E(UwB97XD) =  -354.270645145     a.u. after    8 cycles
            Convg  =    0.1841D-06                    46 Fock formations.
              S**2 =  0.7531                  -V/T =  2.0119
 <Sx>= 0.0000 <Sy>= 0.0000 <Sz>= 0.5000 <S**2>= 0.7531 S= 0.5015
 <L.S>=  0.00000000000    
 Annihilation of the first spin contaminant:
 S**2 before annihilation     0.7531,   after     0.7500
   1 Symmetry operations used in ECPInt.
 ECPInt:  NShTT=    4465 NPrTT=   17943 LenC2=    4451 LenP2D=   14261.
 LDataN:  DoStor=T MaxTD1= 5 Len=  102
 Calling FoFJK, ICntrl=      2127 FMM=F ISym2X=0 I1Cent= 0 IOpClX= 1 NMat=1 NMatS=1 NMatT=0.

 GradGradGradGradGradGradGradGradGradGradGradGradGradGradGradGradGradGrad
 Using GEDIIS/GDIIS optimizer.
 FormGI is forming the generalized inverse of G from B-inverse, IUseBI=4.
 Internal  Forces:  Max     0.031387064 RMS     0.003142072
 Step number   2 out of a maximum of  164
 All quantities printed in internal units (Hartrees-Bohrs-Radians)
 Mixed Optimization -- RFO/linear search
 Trust test= 1.11D+00 RLast= 4.42D-01 DXMaxT set to 5.05D-01
 ITU=  1  0
 Use linear search instead of GDIIS.
     Eigenvalues ---    0.00230   0.00230   0.00230   0.00230   0.00231
     Eigenvalues ---    0.00234   0.00239   0.00374   0.03439   0.04016
     Eigenvalues ---    0.04344   0.04501   0.04665   0.04826   0.05019
     Eigenvalues ---    0.05054   0.05064   0.05082   0.05092   0.05163
     Eigenvalues ---    0.05196   0.05327   0.05546   0.05617   0.05671
     Eigenvalues ---    0.05729   0.05943   0.05962   0.08416   0.12285
     Eigenvalues ---    0.13315   0.14191   0.14633   0.14997   0.15496
     Eigenvalues ---    0.16000   0.16000   0.16000   0.16000   0.16000
     Eigenvalues ---    0.16000   0.16000   0.16000   0.16000   0.16000
     Eigenvalues ---    0.16000   0.16000   0.16000   0.16000   0.16000
     Eigenvalues ---    0.16000   0.17178   0.19764   0.22636   0.27783
[...]
 60,-0.00013975,0.00006357,0.00001409,-0.00015132,0.00003632,-0.0000484
 6,0.00004790,0.00004626,0.00003563,-0.00002176,-0.00006583,0.00001634,
 0.00004893,0.00001138,-0.00001800,-0.00000758,-0.00000865,-0.00733572,
 0.00150166,0.00255005,-0.01267070,0.00596046,0.00173602,0.29668140,-0.
 00010481,0.00059650,0.00030464,0.00013044,-0.00029054,-0.00025314,-0.0
 0195772,-0.00007635,-0.00062909,0.00075801,-0.00003372,-0.00005796,0.0
 0083636,-0.00039206,0.00002562,0.01919819,-0.00849772,-0.00470219,0.07
 215841,-0.06341235,-0.01206581,-0.00263554,0.00143442,0.00012629,-0.00
 030398,-0.00028430,0.00079396,-0.00008319,-0.00000766,0.00000915,0.000
 17342,-0.00004591,-0.00003579,-0.00006385,-0.00000278,-0.00000708,0.00
 001963,-0.00000084,0.00039559,0.00007290,0.00014544,-0.00024994,-0.000
 15653,-0.00020055,0.00016208,-0.00012684,0.00013872,-0.00003909,0.0000
 1978,-0.00007090,-0.00003047,-0.00001407,-0.00004195,-0.00034217,-0.00
 002424,-0.00000256,-0.00005776,-0.00002750,0.00001035,-0.00007606,0.01
 249851,-0.00375907,-0.00278963,-0.02436849,0.00923575,0.00406333,-0.07
 591919,0.06618737,-0.00021484,0.00043002,0.00036832,0.00050718,-0.0005
 0534,-0.00048724,-0.00206290,0.00045788,-0.00081310,0.00058906,-0.0000
 6988,-0.00003779,0.00085942,-0.00050546,0.00001936,0.02410544,-0.00899
 659,-0.00838491,0.04359628,-0.01286450,-0.04618853,-0.00066742,0.00092
 227,0.00073013,-0.00220520,0.00089126,0.00056990,-0.00006503,-0.000010
 82,-0.00000031,0.00016303,-0.00004196,-0.00003104,0.00001754,-0.000012
 29,-0.00002045,0.00006549,0.00017270,0.00025157,-0.00011489,0.00004689
 ,0.00004233,-0.00009140,-0.00019880,0.00027703,-0.00001159,-0.00024062
 ,0.00023377,-0.00008137,0.00001163,0.00011112,0.00001643,-0.00007809,-
 0.00033532,-0.00003058,-0.00000207,-0.00006445,-0.00000795,0.00000965,
 -0.00003765,-0.02520392,0.00727786,0.00533815,0.00432888,-0.00166229,-
 0.00127458,-0.04292736,0.01565716,0.05113283,-0.00005028,0.00008701,0.
 00003859,0.00012351,0.00005222,0.00004603,-0.00059030,-0.00055668,-0.0
 0033829,0.00013530,-0.00017471,-0.00020755,-0.00094869,-0.00073140,-0.
 00012061,0.00225217,-0.01527305,-0.01530217,-0.00234512,-0.00282466,0.
 00164244,-0.05434219,0.04448409,0.04549285,-0.00109358,0.00117912,-0.0
 0051625,-0.00002304,-0.00001900,0.00001425,0.00003424,0.00000177,0.000
 00185,-0.00001106,-0.00000459,-0.00001435,0.00004959,0.00005167,0.0000
 4208,0.00002494,0.00005313,-0.00001702,0.00002550,0.00007847,0.0001160
 1,-0.00002008,0.00002116,0.00009802,-0.00051725,0.00017859,-0.00047416
 ,0.00021134,0.00013473,-0.00001819,-0.00054122,0.00022027,0.00077497,0
 .00013293,0.00011484,0.00002168,0.00009277,0.00016278,0.00016123,0.000
 25808,-0.00078204,-0.00075684,0.00036226,0.00007408,0.00001175,0.06110
 926,0.00007290,-0.00008732,-0.00003481,-0.00035150,0.00017025,0.000107
 03,0.00107180,-0.00091141,-0.00060498,-0.00011687,0.00025159,0.0001213
 4,0.00007017,-0.00003148,0.00000013,0.00839886,-0.01606581,-0.01940654
 ,-0.00343385,-0.00341564,0.00212551,0.04178751,-0.17628214,-0.12805262
 ,-0.00041787,0.00072117,-0.00077617,-0.00003903,0.00000215,0.00002022,
 -0.00004231,0.00001731,0.00001702,-0.00001311,0.00000508,-0.00000197,0
 .00007009,0.00000295,0.00006232,0.00004257,-0.00001164,-0.00005533,0.0
 0001177,0.00008260,-0.00004592,0.00006625,-0.00002112,0.00004736,0.000
 17545,0.00010332,0.00002564,0.00016164,0.00016876,0.00016530,-0.000075
 12,0.00075726,0.00032896,0.00004416,0.00001698,0.00002695,-0.00008943,
 -0.00000086,-0.00001154,-0.00003847,-0.00049136,-0.00122087,0.00013337
 ,0.00043386,0.00045495,-0.04364114,0.18683689,-0.00000853,0.00006081,0
 .00002460,-0.00008089,0.00005477,-0.00009865,0.00049702,-0.00057330,-0
 .00011113,0.00011490,-0.00040003,-0.00024030,0.00069546,0.00038068,-0.
 00002379,-0.00527429,0.00079334,0.00354612,0.00068163,0.00040397,0.001
 02899,0.04601738,-0.12838007,-0.18794547,-0.00075356,0.00099929,0.0003
 6671,-0.00001325,-0.00000775,0.00000088,0.00001758,0.00000667,-0.00000
 115,-0.00002434,-0.00000643,-0.00000880,0.00003013,0.00000367,0.000006
 80,0.00001566,0.00006187,-0.00000765,0.00009250,0.00020347,0.00006252,
 0.00009415,0.00009849,0.00014309,-0.00036507,0.00023962,-0.00030283,-0
 .00012647,-0.00002416,-0.00001186,0.00043350,0.00004063,0.00035023,0.0
 0015809,0.00006473,-0.00000791,0.00026879,0.00024788,0.00026440,0.0002
 7649,-0.00009868,0.00041696,0.00019762,0.00010626,-0.00018721,-0.04877
 775,0.14094605,0.19329417,-0.00002215,0.00005600,0.00002390,0.00002088
 ,0.00001086,-0.00013396,0.00025522,-0.00035177,0.00052395,-0.00111476,
 0.00006495,0.00035599,-0.00004878,0.00020105,0.00001773,0.00017477,-0.
 00837424,0.01932867,-0.00059473,0.00085219,0.00042931,-0.04679653,0.01
 312390,-0.02937235,-0.00079502,-0.00255258,-0.00088234,0.00000563,-0.0
 0000646,-0.00000749,0.00002072,0.00000400,-0.00000672,-0.00003015,0.00
 000190,-0.00001080,-0.00000438,-0.00002871,-0.00001361,0.00004809,0.00
 008379,-0.00002519,0.00010070,0.00004685,-0.00011546,-0.00063767,-0.00
 014909,-0.00049495,-0.00194513,0.00080149,0.00015644,-0.00007705,-0.00
 001889,0.00000528,-0.00000085,-0.00010900,0.00001573,0.00002237,-0.000
 00556,-0.00007359,0.00018924,-0.00015147,-0.00046564,-0.00014801,0.000
 20692,0.00007987,0.00005523,0.00041473,0.00004298,-0.00014959,-0.00393
 223,0.00681382,0.05182007,0.00003750,-0.00008077,-0.00008106,-0.000166
 16,0.00002691,0.00016939,0.00055184,-0.00051581,0.00006184,0.00052818,
 0.00023840,0.00028292,-0.00019047,-0.00002809,-0.00013070,0.00619708,-
 0.00918136,0.02593233,0.00069531,0.00103013,0.00057891,0.01038641,-0.0
 9396491,0.09541570,-0.00439009,-0.00360530,-0.00073816,0.00001075,-0.0
 0000190,0.00000143,-0.00003577,0.00000884,0.00001077,-0.00001204,0.000
 01161,0.00000260,-0.00003047,-0.00000165,-0.00004004,0.00004722,0.0000
 0881,0.00000283,0.00008351,0.00003701,-0.00016812,-0.00015152,0.000056
 01,-0.00023073,0.00104201,-0.00007140,-0.00021616,0.00007539,0.0000680
 9,0.00007648,-0.00005259,0.00011770,0.00003553,0.00005424,-0.00000394,
 -0.00001668,-0.00056737,-0.00049799,-0.00053962,-0.00006316,0.00037310
 ,-0.00014168,0.00001185,-0.00019525,0.00009158,-0.00389827,0.01125400,
 -0.01921644,-0.01024599,0.09760313,-0.00002171,0.00001642,0.00001917,0
 .00010565,-0.00009524,0.00005783,-0.00052120,0.00067254,-0.00068691,-0
 .00100267,0.00049025,0.00033765,0.00013863,-0.00019774,-0.00001324,0.0
 0102942,0.00082461,-0.00118750,0.00019710,-0.00110534,0.00062040,-0.02
 702940,0.09811750,-0.28756669,-0.00013355,0.00013294,0.00106384,-0.000
 00823,-0.00000147,0.00000572,0.00000876,-0.00001100,0.00000829,0.00003
 601,-0.00000426,0.00000656,0.00000493,0.00002098,0.00001550,-0.0000266
 0,-0.00006019,0.00000572,-0.00035398,-0.00036375,0.00013322,-0.0002630
 8,-0.00001851,0.00003129,-0.00011333,-0.00043732,-0.00013642,0.0000889
 3,0.00003666,-0.00001231,-0.00006903,0.00015169,0.00000117,-0.00002587
 ,0.00000153,0.00003776,-0.00030233,-0.00003191,0.00043946,0.00010480,-
 0.00014222,0.00004792,0.00016579,0.00005501,0.00000914,-0.00319653,0.0
 0915361,-0.01343261,0.03069177,-0.10735945,0.30112674,0.00006135,-0.00
 027302,-0.00010257,-0.00053442,0.00020051,0.00011597,0.00027018,-0.000
 93528,-0.00008561,0.00009069,-0.00013053,0.00024868,-0.00005787,-0.000
 00440,-0.00014544,-0.02078848,-0.00139496,-0.00125683,0.00005054,0.000
 70182,0.00107834,-0.28622889,0.06133831,-0.03165394,0.00140652,0.00104
 672,-0.00095011,0.00001136,0.00001212,0.00000327,-0.00008800,0.0000114
 3,0.00001441,0.00001872,0.00000703,0.00000326,-0.00000196,-0.00003253,
 -0.00004418,-0.00001055,-0.00009028,0.00002720,0.00007969,0.00003202,-
 0.00000856,0.00003734,-0.00000129,-0.00003985,0.00001852,-0.00006909,-
 0.00002328,0.00007294,0.00003875,0.00010394,0.00014069,0.00002216,-0.0
 0007891,-0.00006512,-0.00002730,0.00003659,0.00008876,0.00015509,0.000
 20217,0.00037691,-0.00030966,0.00007716,0.00057701,-0.00021102,-0.0001
 9681,-0.00483144,0.00034700,-0.00154895,-0.00071621,-0.00014776,0.0008
 7656,0.30952728,0.00016958,-0.00046839,-0.00023577,-0.00127000,0.00039
 539,0.00019910,0.00233257,-0.00191377,0.00009345,-0.00080561,-0.000267
 20,-0.00008744,-0.00083669,0.00046649,-0.00018623,-0.02731803,0.003862
 56,-0.00357909,0.00255916,-0.00042484,-0.00002015,0.05179442,-0.053873
 21,0.00822789,0.00213219,-0.00040650,0.00015311,0.00000070,0.00002481,
 0.00001312,-0.00018899,0.00003442,0.00002757,-0.00002304,0.00001952,0.
 00000837,0.00000528,-0.00006899,-0.00004779,-0.00001249,-0.00008485,-0
 .00003480,0.00035891,0.00050094,-0.00028096,0.00004677,-0.00004696,-0.
 00008559,0.00014736,0.00045862,0.00006108,0.00006376,0.00007554,0.0004
 2839,-0.00000667,0.00004948,0.00029945,0.00009700,0.00004770,0.0000751
 9,-0.00028324,0.00014968,0.00035318,0.00043691,-0.00004849,0.00028919,
 -0.00070242,-0.00113653,-0.00063293,0.02047012,-0.00384996,0.00365175,
 0.01116531,-0.00255862,-0.00007454,-0.05957631,0.05929507,-0.00006946,
 0.00015402,0.00007823,0.00032371,-0.00015755,-0.00001210,-0.00055899,0
 .00055486,-0.00046431,-0.00005953,0.00007993,0.00010286,0.00040199,-0.
 00019101,0.00011739,0.00305995,-0.00222765,-0.00098737,0.00064784,-0.0
 0028196,-0.00026898,-0.02979881,0.00953275,-0.04544879,-0.00185642,0.0
 0122757,-0.00008528,-0.00000839,-0.00001301,0.00000501,0.00005787,-0.0
 0001205,0.00000149,0.00001729,-0.00001143,-0.00000235,-0.00000560,0.00
 004974,0.00002333,0.00000485,0.00001255,0.00001668,-0.00016700,-0.0002
 2646,0.00019956,0.00015574,0.00009279,0.00020137,-0.00009896,-0.000217
 86,-0.00021125,-0.00001737,0.00006487,-0.00010902,-0.00011823,0.000090
 14,0.00020496,0.00009447,0.00004922,0.00000567,-0.00025026,-0.00006353
 ,0.00020711,0.00018132,-0.00011660,-0.00005892,-0.00016773,-0.00061025
 ,-0.00010173,0.02137485,-0.00426101,0.00295349,-0.02745632,0.00518997,
 -0.00142134,0.03337868,-0.00885283,0.04548217,0.00000885,0.00002832,0.
 00014687,-0.00052689,0.00079049,-0.00085185,-0.00098761,0.00041238,-0.
 00025214,0.00022113,-0.00014910,0.00003394,0.00025632,0.00005506,0.000
 00890,0.00329680,0.00573563,-0.00219167,-0.00055272,0.00024487,0.00023
 413,-0.00004734,0.00047546,-0.00088063,-0.18366261,-0.14038705,0.02935
 181,-0.00001919,0.00001014,0.00000104,0.00004869,-0.00000982,-0.000023
 37,0.00002235,-0.00001930,-0.00001051,-0.00000177,-0.00005230,0.000080
 44,-0.00088976,0.00011461,-0.00076166,-0.00000969,-0.00004030,0.000041
 77,-0.00002534,-0.00001710,0.00000997,-0.00002630,-0.00000789,0.000030
 10,-0.00002121,-0.00006826,-0.00006847,-0.00006607,0.00002483,-0.00002
 831,-0.00015759,0.00034121,0.00006601,0.00012418,0.00014766,-0.0000413
 9,0.00022501,-0.00001242,0.00035042,0.00011015,-0.00005785,0.00021659,
 -0.00001423,-0.00009561,0.00003246,0.00036450,0.00019502,-0.00019283,0
 .00027486,0.00009296,-0.00001637,0.19675669,0.00011810,0.00010793,-0.0
 0015560,-0.00017755,-0.00010348,0.00000141,-0.00095267,-0.00049317,0.0
 0048524,0.00018964,-0.00001488,-0.00008589,-0.00038655,-0.00022259,0.0
 0013356,-0.00830378,-0.01292253,0.00446381,0.00176844,-0.00021382,-0.0
 0103770,0.00104148,0.00040508,0.00336118,-0.13960036,-0.17833539,0.021
 33986,0.00003249,0.00000077,0.00000454,-0.00002077,-0.00000108,-0.0000
 0452,-0.00011940,0.00001365,0.00000582,-0.00014547,0.00014320,-0.00016
 785,0.00038414,0.00087593,0.00004562,0.00002217,-0.00001994,0.00001180
 ,-0.00001469,0.00001538,-0.00007268,-0.00003391,0.00006942,-0.00001997
 ,0.00007054,0.00019374,-0.00018058,0.00001934,0.00021906,0.00000735,0.
 00043946,-0.00043022,-0.00035032,0.00001279,-0.00002359,-0.00003779,-0
 .00020548,0.00059734,-0.00012734,-0.00002828,0.00009035,-0.00046749,0.
 00002290,0.00043308,-0.00014932,-0.00068875,-0.00038587,0.00019201,-0.
 00019086,0.00026182,-0.00031841,0.14813227,0.18886788,0.00000851,-0.00
 035343,0.00018560,-0.00030442,0.00060223,-0.00049127,0.00078833,0.0003
 6388,-0.00010958,-0.00027200,-0.00008126,-0.00004580,-0.00032886,-0.00
 015899,0.00019137,0.02325730,0.01922449,-0.00064176,-0.00016617,0.0007
 7531,0.00074135,-0.00186576,0.00168169,-0.00506560,0.02685201,0.022058
 11,-0.05706155,0.00003773,-0.00000269,-0.00002087,-0.00004491,0.000011
 90,0.00000221,0.00014360,-0.00001636,-0.00002834,-0.00001082,-0.000041
 81,0.00000570,-0.00099819,-0.00032585,0.00015824,0.00000562,0.00005660
 ,-0.00005319,0.00005218,0.00003385,0.00001023,0.00002643,-0.00007930,0
 .00000317,0.00000676,0.00005056,-0.00000138,0.00002450,0.00002659,-0.0
 0004515,0.00013118,-0.00010171,0.00006042,-0.00032833,-0.00023334,0.00
 024492,-0.00015793,-0.00049938,-0.00071127,-0.00009915,0.00020372,0.00
 024283,-0.00008271,0.00018759,-0.00006895,0.00060753,0.00139544,0.0002
 0649,-0.00019148,-0.00054046,0.00006215,-0.02822263,-0.02944168,0.0563
 6358,-0.00005721,0.00017931,-0.00003734,-0.00005285,-0.00023691,0.0001
 1050,-0.00000857,-0.00040948,-0.00045243,0.00007713,0.00013084,0.00016
 691,-0.00115411,0.00063911,-0.00051630,-0.00241028,-0.00098338,-0.0054
 0578,0.00164386,0.00002121,0.00039774,-0.00096286,0.00032611,0.0002377
 3,-0.04687018,-0.00214659,0.00562557,-0.00004422,-0.00002378,0.0000190
 6,0.00003969,-0.00000604,0.00001239,-0.00003929,0.00000514,0.00000296,
 0.00002819,0.00005816,0.00003325,0.00009125,0.00007326,-0.00015088,-0.
 00001873,-0.00003539,0.00001373,-0.00001394,-0.00002260,0.00007671,0.0
 0001586,0.00000636,-0.00002380,0.00004997,-0.00009595,0.00014306,-0.00
 026991,0.00050572,-0.00014565,-0.00142647,0.00017956,-0.00020482,0.000
 48703,0.00019990,-0.00017773,0.00000920,0.00031593,0.00019723,0.000228
 97,-0.00022570,-0.00061587,0.00045253,-0.00005730,0.00036895,-0.000153
 18,-0.00005279,-0.00006675,-0.00019718,-0.00012699,0.00034576,0.002241
 58,-0.01278432,-0.01772868,0.04684985,0.00001955,0.00004145,-0.0000599
 9,-0.00006055,-0.00008485,0.00003505,0.00013159,-0.00021362,-0.0002458
 9,-0.00003180,0.00002826,0.00008186,0.00161471,-0.00010695,0.00024128,
 -0.00069458,0.01300973,0.01263929,0.00061469,-0.00152505,0.00255708,0.
 00010271,0.00073591,0.00051384,-0.00205166,-0.17838694,-0.14168267,-0.
 00001262,0.00000612,0.00000407,0.00000221,0.00000103,0.00000341,-0.000
 03302,0.00000674,0.00000906,-0.00001427,-0.00000375,-0.00000909,0.0000
 8699,0.00003333,-0.00007273,-0.00001043,0.00000669,-0.00000381,-0.0000
 1988,-0.00000331,-0.00000421,0.00000999,-0.00000452,-0.00000009,0.0000
 5764,-0.00014582,0.00028853,0.00048377,-0.00055314,0.00014018,0.000153
 63,-0.00025121,0.00020123,0.00005297,0.00069394,0.00067899,0.00015925,
 0.00006837,0.00013267,-0.00005769,-0.00008575,0.00001132,0.00015545,-0
 .00029703,0.00029012,0.00006558,0.00005615,-0.00007267,-0.00003430,0.0
 0018310,-0.00016335,0.00373269,-0.01034132,-0.01358766,-0.00268275,0.1
 8561302,0.00004652,-0.00005703,-0.00001736,-0.00025760,0.00013044,0.00
 005218,0.00089639,-0.00054882,-0.00069748,-0.00019037,0.00003183,0.000
 01760,0.00031577,-0.00042339,0.00007813,0.00091432,-0.02108998,-0.0208
 4326,-0.00094585,0.00414951,-0.00342319,-0.00061255,-0.00090268,0.0012
 7549,0.00372036,-0.13747631,-0.20336305,-0.00003605,-0.00000225,0.0000
 1840,-0.00002829,0.00001310,0.00001066,-0.00000564,-0.00000501,-0.0000
 0490,0.00007310,0.00001719,0.00005405,-0.00001523,-0.00002339,-0.00003
 136,0.00001029,0.00007739,-0.00002802,0.00003391,-0.00004854,0.0000646
 0,-0.00000599,0.00004155,-0.00001081,0.00019819,0.00000562,0.00037597,
 -0.00004758,0.00038429,0.00012175,0.00000441,-0.00014019,0.00038322,0.
 00023940,-0.00094908,-0.00100512,-0.00001928,0.00019994,0.00019760,0.0
 0022186,0.00008779,0.00012261,0.00021812,0.00090760,-0.00002918,-0.000
 29332,0.00001956,0.00037055,-0.00004533,-0.00002125,-0.00010587,-0.000
 98923,0.00527347,0.00579760,-0.00306734,0.14787497,0.21829201,-0.00002
 732,0.00011318,0.00001530,0.00037520,-0.00003707,0.00000132,-0.0005640
 7,0.00031667,-0.00025737,0.00004812,-0.00002221,-0.00000032,0.00030934
 ,-0.00042512,0.00003425,-0.00350514,0.00248746,-0.00392671,0.00047837,
 0.00012572,0.00119261,-0.00182931,-0.00044394,-0.00016774,-0.24201790,
 0.10904826,-0.00546454,0.00001821,-0.00001479,-0.00000266,0.00003133,-
 0.00000996,0.00000105,-0.00002188,-0.00000174,0.00000029,-0.00008504,0
 .00008711,-0.00009658,0.00016670,0.00019226,0.00010680,0.00004226,-0.0
 0001935,-0.00001016,-0.00000481,-0.00000810,-0.00004420,0.00000946,0.0
 0002238,0.00000093,0.00000654,0.00002544,-0.00017187,-0.00000369,0.000
 04760,0.00001782,0.00009649,0.00006664,-0.00017980,0.00022231,-0.00008
 927,-0.00014291,-0.00013604,0.00011173,-0.00011453,0.00057061,-0.00007
 396,-0.00002295,0.00021366,-0.00010970,0.00016698,0.00015676,0.0000881
 5,-0.00012125,0.00041677,-0.00072253,0.00060511,-0.01694281,0.01139909
 ,-0.00113963,0.00146385,-0.00173986,-0.00033296,0.26051201,0.00003122,
 0.00021371,-0.00005037,0.00003305,-0.00014301,-0.00000797,-0.00075422,
 -0.00027849,0.00019394,0.00040828,-0.00009780,0.00012101,0.00022312,-0
 .00006088,0.00024432,0.01232651,-0.01023490,0.00444284,0.00062782,0.00
 001324,-0.00129428,-0.00112102,0.00089044,-0.00022515,0.11264762,-0.10
 061918,0.00156113,-0.00000435,-0.00000849,0.00000875,0.00003872,-0.000
 00609,-0.00001040,-0.00007183,-0.00001286,0.00000551,-0.00004551,0.000
 09441,-0.00003295,0.00006993,0.00025045,-0.00000988,-0.00003973,-0.000
 09381,0.00011005,-0.00002336,-0.00000986,0.00004412,0.00000044,-0.0000
 0499,-0.00000859,0.00000826,0.00006773,0.00003295,-0.00006392,0.000203
 62,-0.00003138,-0.00007670,-0.00014142,-0.00003986,-0.00030406,-0.0001
 9515,0.00006057,-0.00019506,-0.00005660,-0.00002862,-0.00032795,0.0002
 6402,-0.00014605,0.00036315,0.00020851,0.00020210,-0.00048475,0.000202
 96,0.00010989,-0.00048439,-0.00067684,0.00062655,-0.01961659,0.0112132
 5,-0.00120804,0.01724937,-0.00848060,0.00247366,-0.12041407,0.10749863
 ,0.00028550,-0.00057375,-0.00026877,-0.00104669,0.00058957,0.00027263,
 0.00276840,-0.00064317,-0.00121454,-0.00129488,0.00038126,-0.00005904,
 -0.00026336,0.00039089,-0.00039218,-0.02583245,0.01503378,-0.00419548,
 0.00289940,-0.00114401,0.00043963,0.00135178,-0.00119534,0.00028882,-0
 .01328166,0.00624116,-0.04293901,-0.00001379,0.00002683,0.00001661,-0.
 00021671,0.00005447,0.00004192,0.00000482,0.00001459,0.00001555,-0.000
 01165,-0.00007581,-0.00004592,0.00005746,-0.00017964,-0.00000682,0.000
 08959,0.00036642,-0.00030503,0.00005433,0.00004022,-0.00004015,0.00006
 233,0.00004814,-0.00004156,0.00016067,-0.00009486,0.00070477,0.0000878
 8,0.00019897,0.00000915,-0.00024558,-0.00027818,0.00034004,0.00013619,
 0.00025319,0.00057484,-0.00038683,0.00005787,0.00006798,-0.00041897,-0
 .00004419,-0.00148479,-0.00023229,-0.00022582,0.00001854,0.00025877,-0
 .00038845,-0.00008742,0.00020559,0.00079900,-0.00038415,0.00392661,-0.
 00270853,0.00006884,0.02084182,-0.00980079,0.00232719,0.01005373,-0.00
 714384,0.04627836\\0.00000005,-0.00000069,0.00000022,0.00000029,-0.000
 00054,0.00000002,-0.00000004,-0.00000006,0.00000022,-0.00000048,-0.000
 00013,0.00000003,-0.00000022,-0.00000029,0.00000007,-0.00000004,0.0000
 0026,0.,0.00000036,0.00000049,-0.00000022,-0.00000020,0.00000084,-0.00
 000002,0.00000027,0.00000026,-0.00000030,0.00000015,-0.00000100,0.0000
 0019,0.00000037,-0.00000092,0.00000014,-0.00000005,-0.00000087,0.00000
 023,0.00000017,-0.00000023,0.00000001,0.00000043,-0.00000031,-0.000000
 03,-0.00000058,-0.00000034,0.00000023,-0.00000044,0.00000012,0.0000001
 4,-0.00000065,0.00000007,0.00000017,-0.00000029,-0.00000055,0.00000023
 ,-0.00000032,-0.00000013,0.00000011,0.00000012,-0.00000042,0.00000008,
 0.00000006,0.00000042,-0.00000008,0.00000048,0.00000027,-0.00000021,0.
 00000029,0.00000075,-0.00000030,-0.00000044,0.00000048,-0.00000004,-0.
 00000041,0.00000062,-0.00000004,-0.00000020,0.00000087,-0.00000023,0.0
 0000056,0.00000014,-0.00000019,0.00000021,0.00000032,-0.00000014,0.000
 00055,0.00000060,-0.00000028\\\@


 FROM THE ASHES OF OUR DESPAIR GROW THE FLOWERS OF TOMORROW.
 Job cpu time:       0 days  0 hours 26 minutes 27.5 seconds.
 Elapsed time:       0 days  0 hours  6 minutes 39.0 seconds.
 File lengths (MBytes):  RWF=    189 Int=      0 D2E=      0 Chk=      5 Scr=      1
 Normal termination of Gaussian 16 at Mon Jul 10 19:59:36 2023.
real 2440.71
user 9242.82
sys 26.96
