 Entering Gaussian System, Link 0=g16
 Input=gaussian_test.inp
 Output=gaussian_test.log
 Initial command:
 /sw/restricted/lms/sw/Gaussian/g16_B01/g16/l1.exe "/scratch/user/peterchao1/peterchao1/6113313_1660079070000000077996759/Gau-158507.inp" -scrdir="/scratch/user/peterchao1/peterchao1/6113313_1660079070000000077996759/"
 Entering Link 1 = /sw/restricted/lms/sw/Gaussian/g16_B01/g16/l1.exe PID=    158524.
  
 Copyright (c) 1988-2017, Gaussian, Inc.  All Rights Reserved.
  
 This is part of the Gaussian(R) 16 program.  It is based on
 the Gaussian(R) 09 system (copyright 2009, Gaussian, Inc.),
 the Gaussian(R) 03 system (copyright 2003, Gaussian, Inc.),
 the Gaussian(R) 98 system (copyright 1998, Gaussian, Inc.),
 the Gaussian(R) 94 system (copyright 1995, Gaussian, Inc.),
 the Gaussian 92(TM) system (copyright 1992, Gaussian, Inc.),
 the Gaussian 90(TM) system (copyright 1990, Gaussian, Inc.),
 the Gaussian 88(TM) system (copyright 1988, Gaussian, Inc.),
 the Gaussian 86(TM) system (copyright 1986, Carnegie Mellon
 University), and the Gaussian 82(TM) system (copyright 1983,
 Carnegie Mellon University). Gaussian is a federally registered
 trademark of Gaussian, Inc.
  
 This software contains proprietary and confidential information,
 including trade secrets, belonging to Gaussian, Inc.
  
 This software is provided under written license and may be
 used, copied, transmitted, or stored only in accord with that
 written license.
  
 The following legend is applicable only to US Government
 contracts under FAR:
  
                    RESTRICTED RIGHTS LEGEND
  
 Use, reproduction and disclosure by the US Government is
 subject to restrictions as set forth in subparagraphs (a)
 and (c) of the Commercial Computer Software - Restricted
 Rights clause in FAR 52.227-19.
  
 Gaussian, Inc.
 340 Quinnipiac St., Bldg. 40, Wallingford CT 06492
  
  
 ---------------------------------------------------------------
 Warning -- This program may not be used in any manner that
 competes with the business of Gaussian, Inc. or will provide
 assistance to any competitor of Gaussian, Inc.  The licensee
 of this program is prohibited from giving any competitor of
 Gaussian, Inc. access to this program.  By using this program,
 the user acknowledges that Gaussian, Inc. is engaged in the
 business of creating and licensing software in the field of
 computational chemistry and represents and warrants to the
 licensee that it is not a competitor of Gaussian, Inc. and that
 it will not use this program in any manner prohibited above.
 ---------------------------------------------------------------
  

 Cite this work as:
 Gaussian 16, Revision B.01,
 M. J. Frisch, G. W. Trucks, H. B. Schlegel, G. E. Scuseria, 
 M. A. Robb, J. R. Cheeseman, G. Scalmani, V. Barone, 
 G. A. Petersson, H. Nakatsuji, X. Li, M. Caricato, A. V. Marenich, 
 J. Bloino, B. G. Janesko, R. Gomperts, B. Mennucci, H. P. Hratchian, 
 J. V. Ortiz, A. F. Izmaylov, J. L. Sonnenberg, D. Williams-Young, 
 F. Ding, F. Lipparini, F. Egidi, J. Goings, B. Peng, A. Petrone, 
 T. Henderson, D. Ranasinghe, V. G. Zakrzewski, J. Gao, N. Rega, 
 G. Zheng, W. Liang, M. Hada, M. Ehara, K. Toyota, R. Fukuda, 
 J. Hasegawa, M. Ishida, T. Nakajima, Y. Honda, O. Kitao, H. Nakai, 
 T. Vreven, K. Throssell, J. A. Montgomery, Jr., J. E. Peralta, 
 F. Ogliaro, M. J. Bearpark, J. J. Heyd, E. N. Brothers, K. N. Kudin, 
 V. N. Staroverov, T. A. Keith, R. Kobayashi, J. Normand, 
 K. Raghavachari, A. P. Rendell, J. C. Burant, S. S. Iyengar, 
 J. Tomasi, M. Cossi, J. M. Millam, M. Klene, C. Adamo, R. Cammi, 
 J. W. Ochterski, R. L. Martin, K. Morokuma, O. Farkas, 
 J. B. Foresman, and D. J. Fox, Gaussian, Inc., Wallingford CT, 2016.
 
 ******************************************
 Gaussian 16:  ES64L-G16RevB.01 20-Dec-2017
                 9-Aug-2022 
 ******************************************
 %nprocshared=4
 Will use up to    4 processors via shared memory.
 %mem=8000mb
 ----------------------------------------------------------------------
 #T wB97XD/def2svpp opt=tight freq int(grid=ultrafine) scf=(verytight,q
 c)
 ----------------------------------------------------------------------
 -----
 dimer
 -----
 Symbolic Z-matrix:
 Charge =  0 Multiplicity = 1
 C                    -1.94054  -1.02073   1.26514 
 C                    -2.34246  -0.29434  -0.00012 
 C                    -1.94498  -1.02191  -1.2661 
 Cl                   -4.12261  -0.03454   0.00292 
 Cl                   -1.58751   1.33016  -0.00233 
 H                    -2.44099  -1.98556   1.30358 
 H                    -2.21769  -0.44687   2.14617 
 H                    -0.86431  -1.18025   1.26548 
 H                    -2.44578  -1.98664  -1.30212 
 H                    -0.86878  -1.18164  -1.26992 
 H                    -2.22493  -0.44869  -2.14666 
 C                     1.94456   1.02105  -1.2667 
 C                     2.34228   0.29425  -0.00036 
 C                     1.93921   1.02049   1.2646 
 Cl                    1.58845  -1.33098  -0.00245 
 Cl                    4.1225    0.03588   0.00337 
 H                     0.86825   1.17996  -1.27088 
 H                     2.2252    0.44772  -2.14697 
 H                     2.44463   1.98616  -1.30294 
 H                     0.86289   1.17933   1.26435 
 H                     2.43903   1.98564   1.30328 
 H                     2.21624   0.44685   2.14581 
 
 Add virtual bond connecting atoms Cl15       and H8         Dist= 5.23D+00.
 Add virtual bond connecting atoms Cl15       and H10        Dist= 5.23D+00.
 Add virtual bond connecting atoms H17        and Cl5        Dist= 5.23D+00.
 Add virtual bond connecting atoms H20        and Cl5        Dist= 5.22D+00.

 GradGradGradGradGradGradGradGradGradGradGradGradGradGradGradGradGradGrad
 Initialization pass.
                           ----------------------------
                           !    Initial Parameters    !
                           ! (Angstroms and Degrees)  !
 --------------------------                            --------------------------
 ! Name  Definition              Value          Derivative Info.                !
 --------------------------------------------------------------------------------
 ! R1    R(1,2)                  1.5133         estimate D2E/DX2                !
 ! R2    R(1,6)                  1.0876         estimate D2E/DX2                !
 ! R3    R(1,7)                  1.0874         estimate D2E/DX2                !
 ! R4    R(1,8)                  1.088          estimate D2E/DX2                !
 ! R5    R(2,3)                  1.5133         estimate D2E/DX2                !
 ! R6    R(2,4)                  1.799          estimate D2E/DX2                !
 ! R7    R(2,5)                  1.7914         estimate D2E/DX2                !
 ! R8    R(3,9)                  1.0876         estimate D2E/DX2                !
 ! R9    R(3,10)                 1.088          estimate D2E/DX2                !
 ! R10   R(3,11)                 1.0874         estimate D2E/DX2                !
 ! R11   R(5,17)                 2.7681         estimate D2E/DX2                !
 ! R12   R(5,20)                 2.7625         estimate D2E/DX2                !
 ! R13   R(8,15)                 2.7652         estimate D2E/DX2                !
 ! R14   R(10,15)                2.7689         estimate D2E/DX2                !
 ! R15   R(12,13)                1.5133         estimate D2E/DX2                !
 ! R16   R(12,17)                1.088          estimate D2E/DX2                !
 ! R17   R(12,18)                1.0874         estimate D2E/DX2                !
 ! R18   R(12,19)                1.0876         estimate D2E/DX2                !
 ! R19   R(13,14)                1.5133         estimate D2E/DX2                !
 ! R20   R(13,15)                1.7916         estimate D2E/DX2                !
 ! R21   R(13,16)                1.7989         estimate D2E/DX2                !
 ! R22   R(14,20)                1.088          estimate D2E/DX2                !
 ! R23   R(14,21)                1.0876         estimate D2E/DX2                !
 ! R24   R(14,22)                1.0874         estimate D2E/DX2                !
 ! A1    A(2,1,6)              109.4613         estimate D2E/DX2                !
 ! A2    A(2,1,7)              110.8807         estimate D2E/DX2                !
 ! A3    A(2,1,8)              109.4732         estimate D2E/DX2                !
 ! A4    A(6,1,7)              108.7998         estimate D2E/DX2                !
 ! A5    A(6,1,8)              108.9717         estimate D2E/DX2                !
 ! A6    A(7,1,8)              109.2235         estimate D2E/DX2                !
 ! A7    A(1,2,3)              113.5105         estimate D2E/DX2                !
 ! A8    A(1,2,4)              109.3125         estimate D2E/DX2                !
 ! A9    A(1,2,5)              108.9289         estimate D2E/DX2                !
 ! A10   A(3,2,4)              109.3141         estimate D2E/DX2                !
 ! A11   A(3,2,5)              108.9215         estimate D2E/DX2                !
 ! A12   A(4,2,5)              106.6223         estimate D2E/DX2                !
 ! A13   A(2,3,9)              109.4653         estimate D2E/DX2                !
 ! A14   A(2,3,10)             109.4712         estimate D2E/DX2                !
 ! A15   A(2,3,11)             110.8791         estimate D2E/DX2                !
 ! A16   A(9,3,10)             108.9739         estimate D2E/DX2                !
 ! A17   A(9,3,11)             108.7991         estimate D2E/DX2                !
 ! A18   A(10,3,11)            109.2217         estimate D2E/DX2                !
 ! A19   A(2,5,17)             108.9802         estimate D2E/DX2                !
 ! A20   A(2,5,20)             108.8894         estimate D2E/DX2                !
 ! A21   A(17,5,20)             54.5671         estimate D2E/DX2                !
 ! A22   A(1,8,15)             152.2843         estimate D2E/DX2                !
 ! A23   A(3,10,15)            152.145          estimate D2E/DX2                !
 ! A24   A(13,12,17)           109.473          estimate D2E/DX2                !
 ! A25   A(13,12,18)           110.8778         estimate D2E/DX2                !
 ! A26   A(13,12,19)           109.4655         estimate D2E/DX2                !
 ! A27   A(17,12,18)           109.2217         estimate D2E/DX2                !
 ! A28   A(17,12,19)           108.9738         estimate D2E/DX2                !
 ! A29   A(18,12,19)           108.7985         estimate D2E/DX2                !
 ! A30   A(12,13,14)           113.5158         estimate D2E/DX2                !
 ! A31   A(12,13,15)           108.9128         estimate D2E/DX2                !
 ! A32   A(12,13,16)           109.3181         estimate D2E/DX2                !
 ! A33   A(14,13,15)           108.9209         estimate D2E/DX2                !
 ! A34   A(14,13,16)           109.3167         estimate D2E/DX2                !
 ! A35   A(15,13,16)           106.6255         estimate D2E/DX2                !
 ! A36   A(13,14,20)           109.4738         estimate D2E/DX2                !
 ! A37   A(13,14,21)           109.4641         estimate D2E/DX2                !
 ! A38   A(13,14,22)           110.879          estimate D2E/DX2                !
 ! A39   A(20,14,21)           108.9711         estimate D2E/DX2                !
 ! A40   A(20,14,22)           109.2229         estimate D2E/DX2                !
 ! A41   A(21,14,22)           108.7993         estimate D2E/DX2                !
 ! A42   A(8,15,10)             54.5346         estimate D2E/DX2                !
 ! A43   A(8,15,13)            108.8589         estimate D2E/DX2                !
 ! A44   A(10,15,13)           108.9665         estimate D2E/DX2                !
 ! A45   A(5,17,12)            152.1041         estimate D2E/DX2                !
 ! A46   A(5,20,14)            152.3227         estimate D2E/DX2                !
 ! D1    D(6,1,2,3)            -61.7679         estimate D2E/DX2                !
 ! D2    D(6,1,2,4)             60.5521         estimate D2E/DX2                !
 ! D3    D(6,1,2,5)            176.696          estimate D2E/DX2                !
 ! D4    D(7,1,2,3)            178.1915         estimate D2E/DX2                !
 ! D5    D(7,1,2,4)            -59.4885         estimate D2E/DX2                !
 ! D6    D(7,1,2,5)             56.6555         estimate D2E/DX2                !
 ! D7    D(8,1,2,3)             57.6164         estimate D2E/DX2                !
 ! D8    D(8,1,2,4)            179.9365         estimate D2E/DX2                !
 ! D9    D(8,1,2,5)            -63.9196         estimate D2E/DX2                !
 ! D10   D(2,1,8,15)           -18.1167         estimate D2E/DX2                !
 ! D11   D(6,1,8,15)           101.5689         estimate D2E/DX2                !
 ! D12   D(7,1,8,15)          -139.6954         estimate D2E/DX2                !
 ! D13   D(1,2,3,9)             61.7865         estimate D2E/DX2                !
 ! D14   D(1,2,3,10)           -57.6017         estimate D2E/DX2                !
 ! D15   D(1,2,3,11)          -178.1722         estimate D2E/DX2                !
 ! D16   D(4,2,3,9)            -60.5327         estimate D2E/DX2                !
 ! D17   D(4,2,3,10)          -179.9209         estimate D2E/DX2                !
 ! D18   D(4,2,3,11)            59.5086         estimate D2E/DX2                !
 ! D19   D(5,2,3,9)           -176.6733         estimate D2E/DX2                !
 ! D20   D(5,2,3,10)            63.9385         estimate D2E/DX2                !
 ! D21   D(5,2,3,11)           -56.6321         estimate D2E/DX2                !
 ! D22   D(1,2,5,17)            91.0237         estimate D2E/DX2                !
 ! D23   D(1,2,5,20)            33.049          estimate D2E/DX2                !
 ! D24   D(3,2,5,17)           -33.2656         estimate D2E/DX2                !
 ! D25   D(3,2,5,20)           -91.2403         estimate D2E/DX2                !
 ! D26   D(4,2,5,17)          -151.1199         estimate D2E/DX2                !
 ! D27   D(4,2,5,20)           150.9053         estimate D2E/DX2                !
 ! D28   D(2,3,10,15)           18.1369         estimate D2E/DX2                !
 ! D29   D(9,3,10,15)         -101.5536         estimate D2E/DX2                !
 ! D30   D(11,3,10,15)         139.7112         estimate D2E/DX2                !
 ! D31   D(2,5,17,12)          -89.6132         estimate D2E/DX2                !
 ! D32   D(20,5,17,12)          10.4917         estimate D2E/DX2                !
 ! D33   D(2,5,20,14)           89.7169         estimate D2E/DX2                !
 ! D34   D(17,5,20,14)         -10.5613         estimate D2E/DX2                !
 ! D35   D(1,8,15,10)          -10.6558         estimate D2E/DX2                !
 ! D36   D(1,8,15,13)           89.6184         estimate D2E/DX2                !
 ! D37   D(3,10,15,8)           10.6308         estimate D2E/DX2                !
 ! D38   D(3,10,15,13)         -89.4379         estimate D2E/DX2                !
 ! D39   D(17,12,13,14)        -57.5867         estimate D2E/DX2                !
 ! D40   D(17,12,13,15)         63.9404         estimate D2E/DX2                !
 ! D41   D(17,12,13,16)       -179.9178         estimate D2E/DX2                !
 ! D42   D(18,12,13,14)       -178.1575         estimate D2E/DX2                !
 ! D43   D(18,12,13,15)        -56.6304         estimate D2E/DX2                !
 ! D44   D(18,12,13,16)         59.5114         estimate D2E/DX2                !
 ! D45   D(19,12,13,14)         61.8026         estimate D2E/DX2                !
 ! D46   D(19,12,13,15)       -176.6702         estimate D2E/DX2                !
 ! D47   D(19,12,13,16)        -60.5285         estimate D2E/DX2                !
 ! D48   D(13,12,17,5)          18.2608         estimate D2E/DX2                !
 ! D49   D(18,12,17,5)         139.8346         estimate D2E/DX2                !
 ! D50   D(19,12,17,5)        -101.431          estimate D2E/DX2                !
 ! D51   D(12,13,14,20)         57.5913         estimate D2E/DX2                !
 ! D52   D(12,13,14,21)        -61.7943         estimate D2E/DX2                !
 ! D53   D(12,13,14,22)        178.165          estimate D2E/DX2                !
 ! D54   D(15,13,14,20)        -63.9313         estimate D2E/DX2                !
 ! D55   D(15,13,14,21)        176.683          estimate D2E/DX2                !
 ! D56   D(15,13,14,22)         56.6423         estimate D2E/DX2                !
 ! D57   D(16,13,14,20)        179.9231         estimate D2E/DX2                !
 ! D58   D(16,13,14,21)         60.5375         estimate D2E/DX2                !
 ! D59   D(16,13,14,22)        -59.5032         estimate D2E/DX2                !
 ! D60   D(12,13,15,8)         -91.2565         estimate D2E/DX2                !
 ! D61   D(12,13,15,10)        -33.325          estimate D2E/DX2                !
 ! D62   D(14,13,15,8)          33.0285         estimate D2E/DX2                !
 ! D63   D(14,13,15,10)         90.96           estimate D2E/DX2                !
 ! D64   D(16,13,15,8)         150.8873         estimate D2E/DX2                !
 ! D65   D(16,13,15,10)       -151.1812         estimate D2E/DX2                !
 ! D66   D(13,14,20,5)         -18.1848         estimate D2E/DX2                !
 ! D67   D(21,14,20,5)         101.5041         estimate D2E/DX2                !
 ! D68   D(22,14,20,5)        -139.7615         estimate D2E/DX2                !
 --------------------------------------------------------------------------------
 Number of steps in this run=    132 maximum allowed number of steps=    132.
 GradGradGradGradGradGradGradGradGradGradGradGradGradGradGradGradGradGrad

                    Distance matrix (angstroms):
                    1          2          3          4          5
     1  C    0.000000
     2  C    1.513290   0.000000
     3  C    2.531240   1.513291   0.000000
     4  Cl   2.706880   1.799008   2.706908   0.000000
     5  Cl   2.694026   1.791357   2.693903   2.879088   0.000000
     6  H    1.087572   2.137646   2.788887   2.885487   3.664393
     7  H    1.087355   2.155310   3.471108   2.896936   2.858496
     8  H    1.087988   2.138107   2.757141   3.677395   2.903876
     9  H    2.789094   2.137700   1.087576   2.885404   3.664323
    10  H    2.757001   2.138086   1.087993   3.677406   2.903872
    11  H    3.471095   2.155296   1.087360   2.897131   2.858107
    12  C    5.066855   4.659722   4.393424   6.287820   3.764263
    13  C    4.655446   4.721570   4.659930   6.473243   4.064031
    14  C    4.383952   4.654137   5.065840   6.280969   3.760153
    15  Cl   3.762548   4.065297   3.765291   5.856357   4.143473
    16  Cl   6.282426   6.473386   6.288460   8.245405   5.854859
    17  H    4.377631   3.754599   3.572458   5.292084   2.768123
    18  H    5.581417   5.101290   4.508451   6.719319   4.462618
    19  H    5.904756   5.460247   5.321514   6.994079   4.287204
    20  H    3.563628   3.747641   4.374095   5.283921   2.762544
    21  H    5.312281   5.455255   5.904794   6.987643   4.283373
    22  H    4.495349   5.092750   5.578002   6.708554   4.456819
                    6          7          8          9         10
     6  H    0.000000
     7  H    1.768433   0.000000
     8  H    1.770846   1.773441   0.000000
     9  H    2.605700   3.783328   3.121522   0.000000
    10  H    3.121058   3.745540   2.535404   1.770877   0.000000
    11  H    3.783230   4.292837   3.745561   1.768433   1.773430
    12  C    5.905845   5.579137   4.375770   5.321896   3.573056
    13  C    5.456868   5.094133   3.749492   5.461006   3.755121
    14  C    5.312623   4.495573   3.564120   5.904155   4.376980
    15  Cl   4.286083   4.459250   2.765208   4.288824   2.768887
    16  Cl   6.989711   6.709891   5.285840   6.995512   5.293059
    17  H    5.253505   4.883214   3.873682   4.583790   2.931620
    18  H    6.292888   6.242647   4.882640   5.334603   3.605101
    19  H    6.814525   6.289140   5.250905   6.300742   4.584185
    20  H    4.575326   3.593341   2.924174   5.249516   3.872382
    21  H    6.291658   5.320962   4.575620   6.813850   5.253060
    22  H    5.321249   4.523105   3.593352   6.288445   4.882267
                   11         12         13         14         15
    11  H    0.000000
    12  C    4.507676   0.000000
    13  C    5.100786   1.513284   0.000000
    14  C    5.579900   2.531298   1.513275   0.000000
    15  Cl   4.462954   2.693918   1.791551   2.694045   0.000000
    16  Cl   6.719177   2.706853   1.798874   2.706823   2.879195
    17  H    3.603782   1.087989   2.138099   2.756995   2.903862
    18  H    4.539520   1.087363   2.155275   3.471119   2.858008
    19  H    5.333405   1.087577   2.137697   2.789304   3.664391
    20  H    4.880581   2.757038   2.138098   1.087984   2.903946
    21  H    6.291315   2.789218   2.137675   1.087581   3.664485
    22  H    6.241102   3.471129   2.155280   1.087359   2.858297
                   16         17         18         19         20
    16  Cl   0.000000
    17  H    3.677334   0.000000
    18  H    2.897124   1.773428   0.000000
    19  H    2.885354   1.770873   1.768429   0.000000
    20  H    3.677312   2.535231   3.745434   3.121519   0.000000
    21  H    2.885382   3.121344   3.783545   2.606232   1.770842
    22  H    2.897031   3.745437   4.292796   3.783588   1.773435
                   21         22
    21  H    0.000000
    22  H    1.768438   0.000000
 Framework group  C1[X(C6H12Cl4)]
 Deg. of freedom    60
                         Standard orientation:                         
 ---------------------------------------------------------------------
 Center     Atomic      Atomic             Coordinates (Angstroms)
 Number     Number       Type             X           Y           Z
 ---------------------------------------------------------------------
      1          6           0       -1.962160    0.978436   -1.265193
      2          6           0       -2.348253    0.243512    0.000061
      3          6           0       -1.966626    0.979515    1.266043
      4         17           0       -4.122355   -0.054791   -0.002971
      5         17           0       -1.558291   -1.364255    0.002271
      6          1           0       -2.483392    1.932193   -1.303635
      7          1           0       -2.226820    0.398709   -2.146222
      8          1           0       -0.889637    1.161227   -1.265538
      9          1           0       -2.488210    1.933178    1.302060
     10          1           0       -0.894141    1.162521    1.269862
     11          1           0       -2.234099    0.400364    2.146608
     12          6           0        1.966253   -0.978709    1.266641
     13          6           0        2.348137   -0.243463    0.000304
     14          6           0        1.960895   -0.978264   -1.264652
     15         17           0        1.559274    1.365060    0.002397
     16         17           0        4.122340    0.053411   -0.003425
     17          1           0        0.893634   -1.160894    1.270821
     18          1           0        2.234409   -0.399432    2.146918
     19          1           0        2.487117   -1.932758    1.302885
     20          1           0        0.888262   -1.160382   -1.264404
     21          1           0        2.481501   -1.932363   -1.303340
     22          1           0        2.225430   -0.398757   -2.145868
 ---------------------------------------------------------------------
 Rotational constants (GHZ):           1.6454840           0.2756369           0.2627994
   180 basis functions,   346 primitive gaussians,   190 cartesian basis functions
    58 alpha electrons       58 beta electrons
       nuclear repulsion energy       947.6921448540 Hartrees.
 NAtoms=   22 NActive=   22 NUniq=   22 SFac= 1.00D+00 NAtFMM=   60 NAOKFM=F Big=F
 Nuclear repulsion after empirical dispersion term =      947.6779466203 Hartrees.
   1 Symmetry operations used in ECPInt.
 ECPInt:  NShTT=    4278 NPrTT=   18734 LenC2=    4050 LenP2D=   12495.
 LDataN:  DoStor=T MaxTD1= 4 Len=   56
 ExpMin= 1.22D-01 ExpMax= 1.04D+04 ExpMxC= 1.57D+03 IAcc=3 IRadAn=         5 AccDes= 0.00D+00
 Harris functional with IExCor= 4639 and IRadAn=       5 diagonalized for initial guess.
 HarFok:  IExCor= 4639 AccDes= 0.00D+00 IRadAn=         5 IDoV= 1 UseB2=F ITyADJ=14
 ICtDFT=  3500011 ScaDFX=  1.000000  1.000000  1.000000  1.000000
 FoFCou: FMM=F IPFlag=           0 FMFlag=      100000 FMFlg1=           0
         NFxFlg=           0 DoJE=T BraDBF=F KetDBF=T FulRan=T
         wScrn=  0.000000 ICntrl=       500 IOpCl=  0 I1Cent=   200000004 NGrid=           0
         NMat0=    1 NMatS0=      1 NMatT0=    0 NMatD0=    1 NMtDS0=    0 NMtDT0=    0
 Petite list used in FoFCou.
     Accept linear search using points  3 and  4.
     Minimum is close to point  3 DX=  5.14D-02 DF= -6.38D-05 DXR=  6.04D-02 DFR=  3.65D-03 which will be used.
     Accept linear search using points  1 and  2.
     Accept linear search using points  1 and  2.
     Minimum is close to point  2 DX= -1.00D-04 DF= -4.55D-13 DXR=  1.00D-04 DFR=  1.25D-08 which will be used.
 SCF Done:  E(RwB97XD) =  -2075.83292707     a.u. after    7 cycles
            Convg  =    0.1722D-08                    31 Fock formations.
              S**2 =  0.0000                  -V/T =  2.0029

 **********************************************************************

            Population analysis using the SCF Density.

 **********************************************************************

 Orbital symmetries:
       Occupied  (A) (A) (A) (A) (A) (A) (A) (A) (A) (A) (A) (A)
                 (A) (A) (A) (A) (A) (A) (A) (A) (A) (A) (A) (A)
                 (A) (A) (A) (A) (A) (A) (A) (A) (A) (A) (A) (A)
                 (A) (A) (A) (A) (A) (A) (A) (A) (A) (A) (A) (A)
                 (A) (A) (A) (A) (A) (A) (A) (A) (A) (A)
       Virtual   (A) (A) (A) (A) (A) (A) (A) (A) (A) (A) (A) (A)
                 (A) (A) (A) (A) (A) (A) (A) (A) (A) (A) (A) (A)
                 (A) (A) (A) (A) (A) (A) (A) (A) (A) (A) (A) (A)
                 (A) (A) (A) (A) (A) (A) (A) (A) (A) (A) (A) (A)
                 (A) (A) (A) (A) (A) (A) (A) (A) (A) (A) (A) (A)
                 (A) (A) (A) (A) (A) (A) (A) (A) (A) (A) (A) (A)
                 (A) (A) (A) (A) (A) (A) (A) (A) (A) (A) (A) (A)
                 (A) (A) (A) (A) (A) (A) (A) (A) (A) (A) (A) (A)
                 (A) (A) (A) (A) (A) (A) (A) (A) (A) (A) (A) (A)
                 (A) (A) (A) (A) (A) (A) (A) (A) (A) (A) (A) (A)
                 (A) (A)
 The electronic state is 1-A.
 Alpha  occ. eigenvalues -- -101.68050-101.68046-101.67106-101.67105 -10.42437
 Alpha  occ. eigenvalues --  -10.42436 -10.30306 -10.30305 -10.30304 -10.30301
 Alpha  occ. eigenvalues --   -9.58876  -9.58871  -9.57961  -9.57961  -7.34239
 Alpha  occ. eigenvalues --   -7.34235  -7.33350  -7.33349  -7.33288  -7.33283
 Alpha  occ. eigenvalues --   -7.33265  -7.33261  -7.32359  -7.32358  -7.32339
 Alpha  occ. eigenvalues --   -7.32338  -1.01594  -1.01428  -0.91603  -0.91502
 Alpha  occ. eigenvalues --   -0.85707  -0.85417  -0.81317  -0.81169  -0.66875
 Alpha  occ. eigenvalues --   -0.66164  -0.57737  -0.57685  -0.56860  -0.56351
 Alpha  occ. eigenvalues --   -0.55154  -0.54780  -0.50929  -0.49823  -0.48932
 Alpha  occ. eigenvalues --   -0.47561  -0.46812  -0.46806  -0.46694  -0.45767
 Alpha  occ. eigenvalues --   -0.41507  -0.40391  -0.40031  -0.39420  -0.38645
 Alpha  occ. eigenvalues --   -0.38172  -0.37639  -0.37419
 Alpha virt. eigenvalues --    0.08986   0.09019   0.10782   0.10800   0.13445
 Alpha virt. eigenvalues --    0.16907   0.17929   0.19765   0.19803   0.20188
 Alpha virt. eigenvalues --    0.21697   0.22083   0.22558   0.22727   0.22957
 Alpha virt. eigenvalues --    0.23561   0.25652   0.26041   0.27213   0.31665
 Alpha virt. eigenvalues --    0.44124   0.44130   0.47156   0.48771   0.49684
 Alpha virt. eigenvalues --    0.50147   0.52091   0.52248   0.52970   0.55558
 Alpha virt. eigenvalues --    0.57100   0.58405   0.61068   0.62117   0.64505
 Alpha virt. eigenvalues --    0.66349   0.69590   0.70343   0.72661   0.72789
 Alpha virt. eigenvalues --    0.72866   0.72942   0.74845   0.74951   0.75050
 Alpha virt. eigenvalues --    0.75890   0.77269   0.78163   0.78339   0.78876
 Alpha virt. eigenvalues --    0.79326   0.79384   0.80034   0.80718   0.82060
 Alpha virt. eigenvalues --    0.84982   0.85987   0.86493   0.87400   0.87793
 Alpha virt. eigenvalues --    0.87809   0.87932   0.89224   0.89294   0.89324
 Alpha virt. eigenvalues --    0.90039   0.90699   0.90902   0.92135   0.93431
 Alpha virt. eigenvalues --    0.93672   0.93871   0.98968   1.00345   1.00552
 Alpha virt. eigenvalues --    1.03419   1.06279   1.08863   1.09220   1.13909
 Alpha virt. eigenvalues --    1.14301   1.15180   1.15985   1.16493   1.22490
 Alpha virt. eigenvalues --    1.23711   1.27845   1.29868   1.39934   1.41510
 Alpha virt. eigenvalues --    1.42946   1.46516   1.51341   1.51396   1.69177
 Alpha virt. eigenvalues --    1.69575   1.84613   1.84976   1.96315   1.96552
 Alpha virt. eigenvalues --    1.97379   2.00173   2.00334   2.00439   2.06700
 Alpha virt. eigenvalues --    2.09158   2.09658   2.10733   2.20903   2.22226
 Alpha virt. eigenvalues --    2.22490   2.23176   2.30950   2.31589   2.40442
 Alpha virt. eigenvalues --    2.41754   2.43749   2.43786   2.60242   2.60520
 Alpha virt. eigenvalues --    2.67989   2.69184
          Condensed to atoms (all electrons):
 Mulliken charges:
               1
     1  C   -0.214541
     2  C   -0.220039
     3  C   -0.214380
     4  Cl  -0.096559
     5  Cl  -0.076674
     6  H    0.134836
     7  H    0.141438
     8  H    0.134900
     9  H    0.134835
    10  H    0.134801
    11  H    0.141453
    12  C   -0.214394
    13  C   -0.219997
    14  C   -0.214597
    15  Cl  -0.076819
    16  Cl  -0.096509
    17  H    0.134802
    18  H    0.141449
    19  H    0.134827
    20  H    0.134914
    21  H    0.134827
    22  H    0.141425
 Sum of Mulliken charges =   0.00000
 Mulliken charges with hydrogens summed into heavy atoms:
               1
     1  C    0.196633
     2  C   -0.220039
     3  C    0.196709
     4  Cl  -0.096559
     5  Cl  -0.076674
    12  C    0.196684
    13  C   -0.219997
    14  C    0.196569
    15  Cl  -0.076819
    16  Cl  -0.096509
 Electronic spatial extent (au):  <R**2>=           3936.8831
 Charge=              0.0000 electrons
 Dipole moment (field-independent basis, Debye):
    X=             -0.0016    Y=              0.0004    Z=              0.0033  Tot=              0.0037
   1 Symmetry operations used in ECPInt.
 ECPInt:  NShTT=    4278 NPrTT=   18734 LenC2=    4050 LenP2D=   12495.
 LDataN:  DoStor=T MaxTD1= 5 Len=  102
 Calling FoFJK, ICntrl=      2127 FMM=F ISym2X=0 I1Cent= 0 IOpClX= 0 NMat=1 NMatS=1 NMatT=0.

 GradGradGradGradGradGradGradGradGradGradGradGradGradGradGradGradGradGrad
 FormGI is forming the generalized inverse of G from B-inverse, IUseBI=4.
 Internal  Forces:  Max     0.011068434 RMS     0.003373915
 Step number   1 out of a maximum of  132
 All quantities printed in internal units (Hartrees-Bohrs-Radians)
 Mixed Optimization -- RFO/linear search
 Second derivative matrix not updated -- first step.
 ITU=  0
     Eigenvalues ---    0.00338   0.00350   0.00354   0.00368   0.01420
     Eigenvalues ---    0.01496   0.01826   0.01905   0.02094   0.02581
     Eigenvalues ---    0.03337   0.03654   0.03809   0.05163   0.05243
     Eigenvalues ---    0.05554   0.06099   0.06126   0.06144   0.06506
     Eigenvalues ---    0.06772   0.07352   0.08018   0.08599   0.09737
     Eigenvalues ---    0.10056   0.10310   0.10985   0.11056   0.11059
     Eigenvalues ---    0.11098   0.11376   0.11760   0.11930   0.12074
     Eigenvalues ---    0.14658   0.16934   0.17834   0.18299   0.19057
     Eigenvalues ---    0.25494   0.26195   0.26206   0.26802   0.26870
     Eigenvalues ---    0.29214   0.29451   0.29895   0.31414   0.32738
     Eigenvalues ---    0.33308   0.35046   0.35094   0.35094   0.35094
     Eigenvalues ---    0.35095   0.35119   0.35120   0.35120   0.35120
 Linear search not attempted -- first point.
 Iteration  1 RMS(Cart)=  0.02243564 RMS(Int)=  0.00008093
 Iteration  2 RMS(Cart)=  0.00008000 RMS(Int)=  0.00001659
 Iteration  3 RMS(Cart)=  0.00000001 RMS(Int)=  0.00001659
 Variable       Old X    -DE/DX   Delta X   Delta X   Delta X     New X
                                 (Linear)    (Quad)   (Total)
    R1        2.85970   0.00316   0.00000   0.01123   0.01123   2.87093
    R2        2.05521   0.01038   0.00000   0.02914   0.02914   2.08436
    R3        2.05480   0.00930   0.00000   0.02611   0.02611   2.08092
    R4        2.05600   0.01036   0.00000   0.02914   0.02914   2.08514
    R5        2.85971   0.00316   0.00000   0.01124   0.01124   2.87094
    R6        3.39963   0.00495   0.00000   0.01855   0.01855   3.41818
    R7        3.38517   0.01107   0.00000   0.04052   0.04052   3.42569
    R8        2.05522   0.01037   0.00000   0.02913   0.02913   2.08435
    R9        2.05601   0.01035   0.00000   0.02912   0.02912   2.08513
   R10        2.05481   0.00930   0.00000   0.02610   0.02610   2.08091
   R11        5.23100   0.00103   0.00000   0.03542   0.03542   5.26642
   R12        5.22045   0.00105   0.00000   0.03621   0.03621   5.25667
   R13        5.22549   0.00104   0.00000   0.03574   0.03574   5.26123
   R14        5.23244   0.00103   0.00000   0.03518   0.03518   5.26762
   R15        2.85969   0.00316   0.00000   0.01126   0.01125   2.87095
   R16        2.05600   0.01035   0.00000   0.02913   0.02913   2.08513
   R17        2.05482   0.00930   0.00000   0.02610   0.02610   2.08091
   R18        2.05522   0.01037   0.00000   0.02914   0.02914   2.08436
   R19        2.85968   0.00317   0.00000   0.01125   0.01125   2.87092
   R20        3.38554   0.01102   0.00000   0.04035   0.04035   3.42589
   R21        3.39938   0.00499   0.00000   0.01866   0.01866   3.41804
   R22        2.05599   0.01036   0.00000   0.02915   0.02915   2.08514
   R23        2.05523   0.01037   0.00000   0.02913   0.02913   2.08436
   R24        2.05481   0.00930   0.00000   0.02611   0.02611   2.08092
    A1        1.91046   0.00003   0.00000  -0.00165  -0.00165   1.90881
    A2        1.93523  -0.00030   0.00000  -0.00271  -0.00272   1.93252
    A3        1.91067  -0.00044   0.00000   0.00048   0.00047   1.91114
    A4        1.89892   0.00007   0.00000   0.00042   0.00041   1.89933
    A5        1.90192  -0.00009   0.00000  -0.00114  -0.00114   1.90077
    A6        1.90631   0.00073   0.00000   0.00463   0.00464   1.91095
    A7        1.98113  -0.00017   0.00000  -0.00336  -0.00339   1.97774
    A8        1.90786  -0.00054   0.00000  -0.00766  -0.00773   1.90013
    A9        1.90117  -0.00005   0.00000   0.00047   0.00047   1.90164
   A10        1.90789  -0.00054   0.00000  -0.00770  -0.00778   1.90012
   A11        1.90104  -0.00005   0.00000   0.00050   0.00051   1.90155
   A12        1.86091   0.00147   0.00000   0.01936   0.01939   1.88030
   A13        1.91053   0.00003   0.00000  -0.00169  -0.00169   1.90884
   A14        1.91063  -0.00044   0.00000   0.00059   0.00058   1.91121
   A15        1.93521  -0.00030   0.00000  -0.00271  -0.00271   1.93249
   A16        1.90195  -0.00008   0.00000  -0.00118  -0.00118   1.90078
   A17        1.89890   0.00007   0.00000   0.00043   0.00042   1.89932
   A18        1.90628   0.00073   0.00000   0.00459   0.00459   1.91087
   A19        1.90206   0.00025   0.00000  -0.00045  -0.00045   1.90161
   A20        1.90048   0.00024   0.00000  -0.00045  -0.00045   1.90003
   A21        0.95238   0.00048   0.00000  -0.00301  -0.00301   0.94937
   A22        2.65786   0.00021   0.00000   0.00098   0.00097   2.65883
   A23        2.65543   0.00022   0.00000   0.00105   0.00105   2.65648
   A24        1.91066  -0.00044   0.00000   0.00057   0.00056   1.91122
   A25        1.93518  -0.00030   0.00000  -0.00270  -0.00271   1.93248
   A26        1.91053   0.00003   0.00000  -0.00169  -0.00168   1.90885
   A27        1.90628   0.00073   0.00000   0.00458   0.00459   1.91087
   A28        1.90195  -0.00008   0.00000  -0.00117  -0.00117   1.90078
   A29        1.89889   0.00007   0.00000   0.00043   0.00042   1.89932
   A30        1.98122  -0.00018   0.00000  -0.00341  -0.00344   1.97778
   A31        1.90089  -0.00005   0.00000   0.00058   0.00059   1.90147
   A32        1.90796  -0.00054   0.00000  -0.00772  -0.00779   1.90017
   A33        1.90103  -0.00005   0.00000   0.00055   0.00055   1.90158
   A34        1.90794  -0.00054   0.00000  -0.00766  -0.00774   1.90020
   A35        1.86097   0.00146   0.00000   0.01928   0.01931   1.88027
   A36        1.91068  -0.00044   0.00000   0.00043   0.00042   1.91110
   A37        1.91051   0.00003   0.00000  -0.00169  -0.00169   1.90882
   A38        1.93520  -0.00030   0.00000  -0.00269  -0.00269   1.93251
   A39        1.90190  -0.00008   0.00000  -0.00112  -0.00112   1.90078
   A40        1.90630   0.00073   0.00000   0.00467   0.00468   1.91098
   A41        1.89891   0.00007   0.00000   0.00042   0.00042   1.89932
   A42        0.95181   0.00048   0.00000  -0.00295  -0.00295   0.94886
   A43        1.89995   0.00025   0.00000  -0.00040  -0.00040   1.89955
   A44        1.90182   0.00026   0.00000  -0.00041  -0.00041   1.90141
   A45        2.65472   0.00022   0.00000   0.00105   0.00105   2.65576
   A46        2.65853   0.00021   0.00000   0.00093   0.00093   2.65946
    D1       -1.07805   0.00032   0.00000   0.00614   0.00613  -1.07193
    D2        1.05683  -0.00089   0.00000  -0.01176  -0.01174   1.04510
    D3        3.08393   0.00054   0.00000   0.00741   0.00741   3.09133
    D4        3.11003   0.00040   0.00000   0.00839   0.00838   3.11840
    D5       -1.03827  -0.00081   0.00000  -0.00950  -0.00949  -1.04776
    D6        0.98882   0.00062   0.00000   0.00966   0.00965   0.99848
    D7        1.00560  -0.00003   0.00000   0.00404   0.00402   1.00962
    D8        3.14048  -0.00124   0.00000  -0.01386  -0.01384   3.12664
    D9       -1.11561   0.00019   0.00000   0.00531   0.00530  -1.11030
   D10       -0.31620  -0.00010   0.00000  -0.01155  -0.01156  -0.32775
   D11        1.77271  -0.00038   0.00000  -0.01396  -0.01397   1.75874
   D12       -2.43814   0.00009   0.00000  -0.01143  -0.01143  -2.44958
   D13        1.07838  -0.00032   0.00000  -0.00629  -0.00628   1.07210
   D14       -1.00534   0.00003   0.00000  -0.00419  -0.00417  -1.00951
   D15       -3.10969  -0.00040   0.00000  -0.00855  -0.00854  -3.11823
   D16       -1.05649   0.00089   0.00000   0.01158   0.01156  -1.04493
   D17       -3.14021   0.00124   0.00000   0.01369   0.01367  -3.12654
   D18        1.03862   0.00081   0.00000   0.00932   0.00930   1.04792
   D19       -3.08353  -0.00054   0.00000  -0.00758  -0.00758  -3.09111
   D20        1.11594  -0.00019   0.00000  -0.00548  -0.00547   1.11046
   D21       -0.98842  -0.00062   0.00000  -0.00985  -0.00984  -0.99825
   D22        1.58866   0.00017   0.00000  -0.00335  -0.00336   1.58530
   D23        0.57681  -0.00044   0.00000   0.00005   0.00004   0.57685
   D24       -0.58059   0.00045   0.00000   0.00019   0.00021  -0.58038
   D25       -1.59244  -0.00016   0.00000   0.00360   0.00361  -1.58883
   D26       -2.63754   0.00031   0.00000  -0.00156  -0.00156  -2.63910
   D27        2.63379  -0.00030   0.00000   0.00184   0.00184   2.63564
   D28        0.31655   0.00010   0.00000   0.01171   0.01172   0.32827
   D29       -1.77245   0.00038   0.00000   0.01413   0.01414  -1.75831
   D30        2.43842  -0.00008   0.00000   0.01163   0.01164   2.45006
   D31       -1.56404  -0.00027   0.00000  -0.00920  -0.00920  -1.57324
   D32        0.18311  -0.00003   0.00000  -0.01013  -0.01012   0.17299
   D33        1.56586   0.00028   0.00000   0.00912   0.00911   1.57497
   D34       -0.18433   0.00002   0.00000   0.01005   0.01004  -0.17429
   D35       -0.18598   0.00003   0.00000   0.01018   0.01017  -0.17581
   D36        1.56414   0.00029   0.00000   0.00928   0.00928   1.57341
   D37        0.18554  -0.00003   0.00000  -0.01027  -0.01026   0.17528
   D38       -1.56099  -0.00028   0.00000  -0.00939  -0.00938  -1.57037
   D39       -1.00508   0.00002   0.00000  -0.00438  -0.00437  -1.00945
   D40        1.11597  -0.00019   0.00000  -0.00555  -0.00554   1.11043
   D41       -3.14016   0.00123   0.00000   0.01355   0.01353  -3.12663
   D42       -3.10944  -0.00041   0.00000  -0.00874  -0.00872  -3.11816
   D43       -0.98839  -0.00062   0.00000  -0.00991  -0.00990  -0.99829
   D44        1.03867   0.00080   0.00000   0.00919   0.00918   1.04785
   D45        1.07866  -0.00033   0.00000  -0.00649  -0.00647   1.07219
   D46       -3.08348  -0.00054   0.00000  -0.00765  -0.00765  -3.09113
   D47       -1.05642   0.00088   0.00000   0.01145   0.01143  -1.04499
   D48        0.31871   0.00011   0.00000   0.01167   0.01168   0.33039
   D49        2.44057  -0.00008   0.00000   0.01159   0.01159   2.45217
   D50       -1.77030   0.00038   0.00000   0.01410   0.01410  -1.75620
   D51        1.00516  -0.00002   0.00000   0.00420   0.00418   1.00934
   D52       -1.07851   0.00032   0.00000   0.00633   0.00631  -1.07220
   D53        3.10957   0.00041   0.00000   0.00859   0.00857   3.11813
   D54       -1.11581   0.00019   0.00000   0.00535   0.00534  -1.11047
   D55        3.08370   0.00053   0.00000   0.00748   0.00747   3.09117
   D56        0.98859   0.00062   0.00000   0.00973   0.00972   0.99832
   D57        3.14025  -0.00124   0.00000  -0.01377  -0.01375   3.12650
   D58        1.05658  -0.00089   0.00000  -0.01164  -0.01162   1.04496
   D59       -1.03853  -0.00080   0.00000  -0.00938  -0.00936  -1.04789
   D60       -1.59273  -0.00017   0.00000   0.00359   0.00360  -1.58913
   D61       -0.58163   0.00045   0.00000   0.00026   0.00028  -0.58135
   D62        0.57646  -0.00044   0.00000   0.00008   0.00006   0.57652
   D63        1.58755   0.00017   0.00000  -0.00324  -0.00326   1.58430
   D64        2.63348  -0.00030   0.00000   0.00186   0.00185   2.63534
   D65       -2.63861   0.00031   0.00000  -0.00147  -0.00146  -2.64007
   D66       -0.31739  -0.00010   0.00000  -0.01150  -0.01151  -0.32890
   D67        1.77158  -0.00038   0.00000  -0.01398  -0.01399   1.75759
   D68       -2.43930   0.00009   0.00000  -0.01140  -0.01141  -2.45071
         Item               Value     Threshold  Converged?
 Maximum Force            0.011068     0.000015     NO 
 RMS     Force            0.003374     0.000010     NO 
 Maximum Displacement     0.071859     0.000060     NO 
 RMS     Displacement     0.022439     0.000040     NO 
 GradGradGradGradGradGradGradGradGradGradGradGradGradGradGradGradGradGrad

                    Distance matrix (angstroms):
                    1          2          3          4          5
     1  C    0.000000
     2  C    1.519232   0.000000
     3  C    2.538353   1.519239   0.000000
     4  Cl   2.712457   1.808825   2.712446   0.000000
     5  Cl   2.717271   1.812799   2.717189   2.924989   0.000000
     6  H    1.102994   2.153148   2.796773   2.885448   3.702154
     7  H    1.101174   2.169032   3.490210   2.906695   2.885570
     8  H    1.103408   2.155166   2.770982   3.699351   2.927304
     9  H    2.796879   2.153174   1.102991   2.885371   3.702099
    10  H    2.770992   2.155217   1.103404   3.699367   2.927343
    11  H    3.490194   2.169018   1.101172   2.906746   2.885324
    12  C    5.110460   4.705758   4.439484   6.353067   3.797708
    13  C    4.701616   4.769558   4.705863   6.536768   4.101800
    14  C    4.430413   4.700505   5.109532   6.346663   3.793993
    15  Cl   3.796146   4.102968   3.798608   5.900982   4.181300
    16  Cl   6.347900   6.536903   6.353556   8.321967   5.899646
    17  H    4.408568   3.786136   3.604252   5.344255   2.786868
    18  H    5.636488   5.159127   4.565054   6.793468   4.510080
    19  H    5.956940   5.514202   5.378435   7.069760   4.323207
    20  H    3.595774   3.779542   4.405193   5.336585   2.781708
    21  H    5.369627   5.509620   5.957163   7.063876   4.319877
    22  H    4.552411   5.150948   5.633100   6.783242   4.504730
                    6          7          8          9         10
     6  H    0.000000
     7  H    1.792473   0.000000
     8  H    1.795216   1.800234   0.000000
     9  H    2.602334   3.802442   3.138004   0.000000
    10  H    3.137827   3.773592   2.545298   1.795215   0.000000
    11  H    3.802387   4.321278   3.773509   1.792468   1.800181
    12  C    5.958168   5.634065   4.406737   5.378797   3.604827
    13  C    5.511019   5.152075   3.781155   5.514841   3.786526
    14  C    5.369933   4.552547   3.596233   5.956444   4.407963
    15  Cl   4.322339   4.506887   2.784121   4.324697   2.787506
    16  Cl   7.065655   6.784337   5.338246   7.070982   5.345045
    17  H    5.294207   4.925256   3.895252   4.628394   2.951486
    18  H    6.354066   6.310390   4.924877   5.400881   3.646210
    19  H    6.877593   6.349982   5.291509   6.370195   4.628778
    20  H    4.620282   3.634747   2.944307   5.290280   3.894039
    21  H    6.361547   5.387650   4.620565   6.876982   5.293747
    22  H    5.387961   4.589752   3.634836   6.349494   4.924443
                   11         12         13         14         15
    11  H    0.000000
    12  C    4.564259   0.000000
    13  C    5.158515   1.519240   0.000000
    14  C    5.635019   2.538385   1.519227   0.000000
    15  Cl   4.510301   2.717208   1.812905   2.717300   0.000000
    16  Cl   6.793189   2.712431   1.808749   2.712449   2.924986
    17  H    3.644877   1.103405   2.155230   2.771020   2.927319
    18  H    4.605623   1.101172   2.169009   3.490207   2.885305
    19  H    5.399693   1.102995   2.153181   2.796965   3.702150
    20  H    4.922901   2.770864   2.155133   1.103410   2.927359
    21  H    6.352481   2.796946   2.153152   1.102997   3.702209
    22  H    6.308969   3.490228   2.169024   1.101174   2.885475
                   16         17         18         19         20
    16  Cl   0.000000
    17  H    3.699342   0.000000
    18  H    2.906706   1.800180   0.000000
    19  H    2.885421   1.795223   1.792466   0.000000
    20  H    3.699307   2.545166   3.773398   3.137897   0.000000
    21  H    2.885407   3.138039   3.802531   2.602584   1.795229
    22  H    2.906784   3.773555   4.321266   3.802574   1.800256
                   21         22
    21  H    0.000000
    22  H    1.792472   0.000000
 Framework group  C1[X(C6H12Cl4)]
 Deg. of freedom    60
                         Standard orientation:                         
 ---------------------------------------------------------------------
 Center     Atomic      Atomic             Coordinates (Angstroms)
 Number     Number       Type             X           Y           Z
 ---------------------------------------------------------------------
      1          6           0       -1.990278    0.973760   -1.268860
      2          6           0       -2.373594    0.231437    0.000034
      3          6           0       -1.994481    0.974971    1.269489
      4         17           0       -4.160735   -0.047793   -0.002776
      5         17           0       -1.561521   -1.389294    0.002243
      6          1           0       -2.521546    1.939804   -1.302132
      7          1           0       -2.262465    0.387700   -2.160506
      8          1           0       -0.903270    1.163281   -1.270617
      9          1           0       -2.525977    1.940972    1.300198
     10          1           0       -0.907511    1.164628    1.274677
     11          1           0       -2.269468    0.389661    2.160766
     12          6           0        1.994185   -0.974278    1.270038
     13          6           0        2.373454   -0.231394    0.000247
     14          6           0        1.989154   -0.973719   -1.268341
     15         17           0        1.562411    1.389972    0.002318
     16         17           0        4.160696    0.046683   -0.003206
     17          1           0        0.907079   -1.163147    1.275628
     18          1           0        2.269873   -0.388893    2.161049
     19          1           0        2.525000   -1.940653    1.300884
     20          1           0        0.902034   -1.162621   -1.269532
     21          1           0        2.519868   -1.940070   -1.301695
     22          1           0        2.261270   -0.387961   -2.160208
 ---------------------------------------------------------------------
 Rotational constants (GHZ):           1.6190682           0.2707136           0.2578474
   180 basis functions,   346 primitive gaussians,   190 cartesian basis functions
    58 alpha electrons       58 beta electrons
       nuclear repulsion energy       939.5443564538 Hartrees.
 NAtoms=   22 NActive=   22 NUniq=   22 SFac= 1.00D+00 NAtFMM=   60 NAOKFM=F Big=F
 Nuclear repulsion after empirical dispersion term =      939.5301986096 Hartrees.
   1 Symmetry operations used in ECPInt.
 ECPInt:  NShTT=    4278 NPrTT=   18734 LenC2=    4040 LenP2D=   12429.
 LDataN:  DoStor=T MaxTD1= 4 Len=   56
 Initial guess from the checkpoint file:  "/scratch/user/peterchao1/peterchao1/6113313_1660079070000000077996759/Gau-158524.chk"
 B after Tr=    -0.000000   -0.000000   -0.000000
         Rot=    1.000000    0.000003   -0.000000   -0.000943 Ang=   0.11 deg.
 ExpMin= 1.22D-01 ExpMax= 1.04D+04 ExpMxC= 1.57D+03 IAcc=3 IRadAn=         5 AccDes= 0.00D+00
 Harris functional with IExCor= 4639 and IRadAn=       5 diagonalized for initial guess.
 HarFok:  IExCor= 4639 AccDes= 0.00D+00 IRadAn=         5 IDoV= 1 UseB2=F ITyADJ=14
 ICtDFT=  3500011 ScaDFX=  1.000000  1.000000  1.000000  1.000000
 FoFCou: FMM=F IPFlag=           0 FMFlag=      100000 FMFlg1=           0
         NFxFlg=           0 DoJE=T BraDBF=F KetDBF=T FulRan=T
         wScrn=  0.000000 ICntrl=       500 IOpCl=  0 I1Cent=   200000004 NGrid=           0
         NMat0=    1 NMatS0=      1 NMatT0=    0 NMatD0=    1 NMtDS0=    0 NMtDT0=    0
 Petite list used in FoFCou.
     Accept linear search using points  3 and  4.
     Minimum is close to point  3 DX=  7.83D-02 DF= -5.26D-07 DXR=  7.26D-02 DFR=  5.30D-03 which will be used.
     Minimum is close to point  2 DX=  9.74D-04 DF= -6.05D-11 DXR=  9.73D-04 DFR=  9.43D-07 which will be used.
 SCF Done:  E(RwB97XD) =  -2075.83540063     a.u. after    5 cycles
            Convg  =    0.3555D-08                    29 Fock formations.
              S**2 =  0.0000                  -V/T =  2.0031
   1 Symmetry operations used in ECPInt.
 ECPInt:  NShTT=    4278 NPrTT=   18734 LenC2=    4040 LenP2D=   12429.
 LDataN:  DoStor=T MaxTD1= 5 Len=  102
 Calling FoFJK, ICntrl=      2127 FMM=F ISym2X=0 I1Cent= 0 IOpClX= 0 NMat=1 NMatS=1 NMatT=0.

 GradGradGradGradGradGradGradGradGradGradGradGradGradGradGradGradGradGrad
 Using GEDIIS/GDIIS optimizer.
 FormGI is forming the generalized inverse of G from B-inverse, IUseBI=4.
 Internal  Forces:  Max     0.000752885 RMS     0.000294042
 Step number   2 out of a maximum of  132
 All quantities printed in internal units (Hartrees-Bohrs-Radians)
 Mixed Optimization -- En-DIIS/RFO-DIIS
 Trust test= 9.50D-01 RLast= 1.61D-01 DXMaxT set to 4.82D-01
 ITU=  1  0
 Use linear search instead of GDIIS.
     Eigenvalues ---    0.00339   0.00351   0.00354   0.00369   0.01420
     Eigenvalues ---    0.01498   0.01801   0.01908   0.02058   0.02575
     Eigenvalues ---    0.03327   0.03640   0.03794   0.05195   0.05373
     Eigenvalues ---    0.05578   0.06119   0.06163   0.06235   0.06564
     Eigenvalues ---    0.06783   0.07577   0.07872   0.08438   0.09716
     Eigenvalues ---    0.10046   0.10259   0.10971   0.11024   0.11047
     Eigenvalues ---    0.11085   0.11376   0.11769   0.11934   0.12089
     Eigenvalues ---    0.14577   0.16903   0.17762   0.18271   0.19037
     Eigenvalues ---    0.25521   0.26196   0.26210   0.26494   0.26880
     Eigenvalues ---    0.29251   0.29754   0.29910   0.31419   0.32771
     Eigenvalues ---    0.33334   0.35065   0.35094   0.35094   0.35095
     Eigenvalues ---    0.35110   0.35119   0.35120   0.35120   0.36151
 Quartic linear search produced a step of -0.01206.
 Iteration  1 RMS(Cart)=  0.00822515 RMS(Int)=  0.00003412
 Iteration  2 RMS(Cart)=  0.00003503 RMS(Int)=  0.00001425
 Iteration  3 RMS(Cart)=  0.00000000 RMS(Int)=  0.00001425
 Variable       Old X    -DE/DX   Delta X   Delta X   Delta X     New X
                                 (Linear)    (Quad)   (Total)
    R1        2.87093  -0.00066  -0.00014  -0.00146  -0.00159   2.86934
    R2        2.08436  -0.00020  -0.00035   0.00078   0.00043   2.08478
    R3        2.08092  -0.00016  -0.00031   0.00076   0.00044   2.08136
    R4        2.08514  -0.00020  -0.00035   0.00079   0.00043   2.08557
    R5        2.87094  -0.00066  -0.00014  -0.00146  -0.00159   2.86936
    R6        3.41818  -0.00058  -0.00022  -0.00134  -0.00157   3.41662
    R7        3.42569   0.00057  -0.00049   0.00399   0.00350   3.42920
    R8        2.08435  -0.00020  -0.00035   0.00078   0.00043   2.08478
    R9        2.08513  -0.00020  -0.00035   0.00079   0.00044   2.08557
   R10        2.08091  -0.00016  -0.00031   0.00076   0.00044   2.08136
   R11        5.26642   0.00065  -0.00043   0.03546   0.03503   5.30145
   R12        5.25667   0.00067  -0.00044   0.03632   0.03588   5.29255
   R13        5.26123   0.00066  -0.00043   0.03577   0.03534   5.29657
   R14        5.26762   0.00064  -0.00042   0.03516   0.03474   5.30236
   R15        2.87095  -0.00066  -0.00014  -0.00145  -0.00159   2.86936
   R16        2.08513  -0.00020  -0.00035   0.00080   0.00044   2.08558
   R17        2.08091  -0.00016  -0.00031   0.00076   0.00044   2.08136
   R18        2.08436  -0.00020  -0.00035   0.00078   0.00043   2.08478
   R19        2.87092  -0.00066  -0.00014  -0.00145  -0.00159   2.86933
   R20        3.42589   0.00055  -0.00049   0.00390   0.00342   3.42931
   R21        3.41804  -0.00057  -0.00023  -0.00127  -0.00149   3.41655
   R22        2.08514  -0.00020  -0.00035   0.00078   0.00043   2.08557
   R23        2.08436  -0.00020  -0.00035   0.00078   0.00043   2.08479
   R24        2.08092  -0.00016  -0.00031   0.00076   0.00044   2.08136
    A1        1.90881  -0.00032   0.00002  -0.00253  -0.00250   1.90632
    A2        1.93252   0.00019   0.00003   0.00107   0.00110   1.93362
    A3        1.91114  -0.00009  -0.00001  -0.00052  -0.00055   1.91059
    A4        1.89933   0.00004  -0.00000   0.00034   0.00033   1.89966
    A5        1.90077   0.00012   0.00001   0.00081   0.00082   1.90159
    A6        1.91095   0.00006  -0.00006   0.00083   0.00079   1.91173
    A7        1.97774   0.00075   0.00004   0.00731   0.00733   1.98507
    A8        1.90013   0.00009   0.00009   0.00276   0.00282   1.90295
    A9        1.90164  -0.00033  -0.00001  -0.00442  -0.00442   1.89722
   A10        1.90012   0.00008   0.00009   0.00274   0.00280   1.90292
   A11        1.90155  -0.00033  -0.00001  -0.00440  -0.00439   1.89715
   A12        1.88030  -0.00030  -0.00023  -0.00457  -0.00480   1.87550
   A13        1.90884  -0.00031   0.00002  -0.00255  -0.00252   1.90633
   A14        1.91121  -0.00009  -0.00001  -0.00046  -0.00049   1.91072
   A15        1.93249   0.00019   0.00003   0.00106   0.00110   1.93359
   A16        1.90078   0.00012   0.00001   0.00080   0.00081   1.90159
   A17        1.89932   0.00004  -0.00001   0.00034   0.00033   1.89965
   A18        1.91087   0.00006  -0.00006   0.00081   0.00077   1.91164
   A19        1.90161  -0.00007   0.00001  -0.00296  -0.00294   1.89867
   A20        1.90003  -0.00007   0.00001  -0.00292  -0.00290   1.89713
   A21        0.94937  -0.00012   0.00004  -0.00293  -0.00292   0.94645
   A22        2.65883   0.00008  -0.00001   0.00062   0.00056   2.65940
   A23        2.65648   0.00009  -0.00001   0.00072   0.00066   2.65713
   A24        1.91122  -0.00009  -0.00001  -0.00046  -0.00049   1.91073
   A25        1.93248   0.00019   0.00003   0.00107   0.00110   1.93358
   A26        1.90885  -0.00031   0.00002  -0.00255  -0.00252   1.90632
   A27        1.91087   0.00006  -0.00006   0.00082   0.00077   1.91164
   A28        1.90078   0.00012   0.00001   0.00079   0.00080   1.90159
   A29        1.89932   0.00004  -0.00001   0.00034   0.00033   1.89965
   A30        1.97778   0.00075   0.00004   0.00728   0.00730   1.98508
   A31        1.90147  -0.00033  -0.00001  -0.00436  -0.00435   1.89712
   A32        1.90017   0.00008   0.00009   0.00271   0.00277   1.90294
   A33        1.90158  -0.00033  -0.00001  -0.00438  -0.00438   1.89720
   A34        1.90020   0.00008   0.00009   0.00273   0.00279   1.90299
   A35        1.88027  -0.00030  -0.00023  -0.00456  -0.00479   1.87548
   A36        1.91110  -0.00009  -0.00001  -0.00054  -0.00057   1.91053
   A37        1.90882  -0.00032   0.00002  -0.00254  -0.00251   1.90631
   A38        1.93251   0.00019   0.00003   0.00108   0.00111   1.93362
   A39        1.90078   0.00012   0.00001   0.00081   0.00082   1.90160
   A40        1.91098   0.00006  -0.00006   0.00085   0.00080   1.91178
   A41        1.89932   0.00004  -0.00001   0.00035   0.00034   1.89966
   A42        0.94886  -0.00012   0.00004  -0.00285  -0.00285   0.94601
   A43        1.89955  -0.00006   0.00000  -0.00286  -0.00284   1.89670
   A44        1.90141  -0.00007   0.00000  -0.00292  -0.00290   1.89851
   A45        2.65576   0.00009  -0.00001   0.00072   0.00066   2.65643
   A46        2.65946   0.00008  -0.00001   0.00057   0.00051   2.65997
    D1       -1.07193  -0.00025  -0.00007   0.00213   0.00204  -1.06988
    D2        1.04510   0.00041   0.00014   0.01243   0.01258   1.05768
    D3        3.09133  -0.00009  -0.00009   0.00604   0.00595   3.09728
    D4        3.11840  -0.00022  -0.00010   0.00266   0.00254   3.12094
    D5       -1.04776   0.00045   0.00011   0.01296   0.01308  -1.03468
    D6        0.99848  -0.00005  -0.00012   0.00657   0.00645   1.00493
    D7        1.00962  -0.00035  -0.00005   0.00128   0.00121   1.01083
    D8        3.12664   0.00031   0.00017   0.01158   0.01175   3.13840
    D9       -1.11030  -0.00019  -0.00006   0.00519   0.00512  -1.10518
   D10       -0.32775   0.00020   0.00014  -0.01713  -0.01700  -0.34476
   D11        1.75874  -0.00017   0.00017  -0.02003  -0.01987   1.73887
   D12       -2.44958  -0.00002   0.00014  -0.01865  -0.01851  -2.46809
   D13        1.07210   0.00025   0.00008  -0.00234  -0.00225   1.06985
   D14       -1.00951   0.00035   0.00005  -0.00150  -0.00143  -1.01094
   D15       -3.11823   0.00022   0.00010  -0.00289  -0.00277  -3.12100
   D16       -1.04493  -0.00041  -0.00014  -0.01265  -0.01280  -1.05773
   D17       -3.12654  -0.00031  -0.00016  -0.01181  -0.01198  -3.13852
   D18        1.04792  -0.00045  -0.00011  -0.01320  -0.01332   1.03460
   D19       -3.09111   0.00009   0.00009  -0.00626  -0.00617  -3.09728
   D20        1.11046   0.00019   0.00007  -0.00542  -0.00535   1.10512
   D21       -0.99825   0.00005   0.00012  -0.00681  -0.00669  -1.00494
   D22        1.58530   0.00018   0.00004  -0.00033  -0.00029   1.58501
   D23        0.57685   0.00033  -0.00000   0.00393   0.00394   0.58079
   D24       -0.58038  -0.00033  -0.00000  -0.00368  -0.00369  -0.58407
   D25       -1.58883  -0.00017  -0.00004   0.00057   0.00054  -1.58830
   D26       -2.63910  -0.00007   0.00002  -0.00200  -0.00199  -2.64109
   D27        2.63564   0.00008  -0.00002   0.00225   0.00224   2.63788
   D28        0.32827  -0.00020  -0.00014   0.01747   0.01734   0.34561
   D29       -1.75831   0.00017  -0.00017   0.02036   0.02021  -1.73810
   D30        2.45006   0.00002  -0.00014   0.01901   0.01887   2.46893
   D31       -1.57324  -0.00019   0.00011  -0.01999  -0.01987  -1.59311
   D32        0.17299  -0.00025   0.00012  -0.02231  -0.02218   0.15081
   D33        1.57497   0.00019  -0.00011   0.01978   0.01967   1.59464
   D34       -0.17429   0.00025  -0.00012   0.02217   0.02204  -0.15225
   D35       -0.17581   0.00025  -0.00012   0.02232   0.02218  -0.15363
   D36        1.57341   0.00019  -0.00011   0.01996   0.01985   1.59326
   D37        0.17528  -0.00025   0.00012  -0.02252  -0.02238   0.15290
   D38       -1.57037  -0.00019   0.00011  -0.02025  -0.02014  -1.59051
   D39       -1.00945   0.00035   0.00005  -0.00162  -0.00155  -1.01099
   D40        1.11043   0.00019   0.00007  -0.00548  -0.00541   1.10502
   D41       -3.12663  -0.00031  -0.00016  -0.01186  -0.01202  -3.13865
   D42       -3.11816   0.00022   0.00011  -0.00302  -0.00289  -3.12105
   D43       -0.99829   0.00005   0.00012  -0.00688  -0.00676  -1.00504
   D44        1.04785  -0.00045  -0.00011  -0.01326  -0.01337   1.03448
   D45        1.07219   0.00025   0.00008  -0.00247  -0.00238   1.06981
   D46       -3.09113   0.00009   0.00009  -0.00633  -0.00624  -3.09737
   D47       -1.04499  -0.00041  -0.00014  -0.01271  -0.01285  -1.05785
   D48        0.33039  -0.00020  -0.00014   0.01733   0.01720   0.34760
   D49        2.45217   0.00002  -0.00014   0.01888   0.01874   2.47091
   D50       -1.75620   0.00017  -0.00017   0.02024   0.02008  -1.73612
   D51        1.00934  -0.00035  -0.00005   0.00138   0.00131   1.01065
   D52       -1.07220  -0.00025  -0.00008   0.00225   0.00216  -1.07004
   D53        3.11813  -0.00022  -0.00010   0.00277   0.00265   3.12079
   D54       -1.11047  -0.00019  -0.00006   0.00523   0.00516  -1.10531
   D55        3.09117  -0.00009  -0.00009   0.00610   0.00601   3.09718
   D56        0.99832  -0.00005  -0.00012   0.00662   0.00650   1.00482
   D57        3.12650   0.00031   0.00017   0.01161   0.01178   3.13828
   D58        1.04496   0.00041   0.00014   0.01248   0.01263   1.05759
   D59       -1.04789   0.00045   0.00011   0.01300   0.01312  -1.03477
   D60       -1.58913  -0.00017  -0.00004   0.00057   0.00053  -1.58860
   D61       -0.58135  -0.00032  -0.00000  -0.00359  -0.00360  -0.58495
   D62        0.57652   0.00033  -0.00000   0.00394   0.00394   0.58046
   D63        1.58430   0.00018   0.00004  -0.00022  -0.00019   1.58411
   D64        2.63534   0.00008  -0.00002   0.00226   0.00224   2.63758
   D65       -2.64007  -0.00007   0.00002  -0.00190  -0.00189  -2.64196
   D66       -0.32890   0.00020   0.00014  -0.01705  -0.01692  -0.34582
   D67        1.75759  -0.00017   0.00017  -0.01998  -0.01982   1.73777
   D68       -2.45071  -0.00002   0.00014  -0.01858  -0.01845  -2.46915
         Item               Value     Threshold  Converged?
 Maximum Force            0.000753     0.000015     NO 
 RMS     Force            0.000294     0.000010     NO 
 Maximum Displacement     0.029016     0.000060     NO 
 RMS     Displacement     0.008219     0.000040     NO 
 GradGradGradGradGradGradGradGradGradGradGradGradGradGradGradGradGradGrad

                    Distance matrix (angstroms):
                    1          2          3          4          5
     1  C    0.000000
     2  C    1.518389   0.000000
     3  C    2.543049   1.518398   0.000000
     4  Cl   2.713798   1.807996   2.713771   0.000000
     5  Cl   2.713950   1.814653   2.713893   2.920688   0.000000
     6  H    1.103220   2.150743   2.800117   2.892260   3.699454
     7  H    1.101408   2.169262   3.493852   2.903073   2.884924
     8  H    1.103638   2.154198   2.777658   3.700050   2.919366
     9  H    2.800113   2.150757   1.103218   2.892261   3.699415
    10  H    2.777818   2.154296   1.103637   3.700083   2.919362
    11  H    3.493835   2.169246   1.101408   2.902971   2.884830
    12  C    5.123827   4.724226   4.452032   6.368999   3.816548
    13  C    4.720265   4.791309   4.724256   6.555878   4.120701
    14  C    4.443396   4.719316   5.122978   6.363049   3.813215
    15  Cl   3.815105   4.121724   3.817290   5.920008   4.195030
    16  Cl   6.364139   6.556030   6.369401   8.339182   5.918870
    17  H    4.416215   3.800275   3.608400   5.356995   2.805406
    18  H    5.655507   5.183151   4.585584   6.816152   4.532890
    19  H    5.965525   5.527626   5.386199   7.079402   4.336104
    20  H    3.600360   3.794121   4.413078   5.349872   2.800696
    21  H    5.377862   5.523480   5.965936   7.074090   4.333297
    22  H    4.573392   5.175302   5.652103   6.806450   4.527924
                    6          7          8          9         10
     6  H    0.000000
     7  H    1.793061   0.000000
     8  H    1.796115   1.801114   0.000000
     9  H    2.604571   3.804598   3.143326   0.000000
    10  H    3.143495   3.780283   2.555128   1.796108   0.000000
    11  H    3.804572   4.323096   3.780132   1.793054   1.801056
    12  C    5.966881   5.652949   4.414477   5.386540   3.608922
    13  C    5.524698   5.176245   3.795516   5.528167   3.800545
    14  C    5.378138   4.573485   3.600763   5.965112   4.415630
    15  Cl   4.335479   4.529809   2.802822   4.337419   2.805888
    16  Cl   7.075668   6.807395   5.351331   7.080489   5.357648
    17  H    5.297242   4.939616   3.895251   4.628327   2.942799
    18  H    6.368309   6.333497   4.939491   5.415980   3.659189
    19  H    6.882714   6.363920   5.294520   6.374643   4.628668
    20  H    4.620668   3.648103   2.936032   5.293455   3.894119
    21  H    6.366481   5.403213   4.620912   6.882168   5.296764
    22  H    5.403515   4.620040   3.648206   6.363562   4.938873
                   11         12         13         14         15
    11  H    0.000000
    12  C    4.584797   0.000000
    13  C    5.182479   1.518399   0.000000
    14  C    5.654106   2.543055   1.518386   0.000000
    15  Cl   4.532982   2.713912   1.814713   2.713981   0.000000
    16  Cl   6.815810   2.713762   1.807959   2.713800   2.920686
    17  H    3.657901   1.103640   2.154311   2.777866   2.919325
    18  H    4.635388   1.101408   2.169241   3.493835   2.884870
    19  H    5.414831   1.103220   2.150759   2.800101   3.699450
    20  H    4.937638   2.777532   2.154150   1.103639   2.919401
    21  H    6.366763   2.800193   2.150740   1.103222   3.699493
    22  H    6.332177   3.493858   2.169263   1.101408   2.884887
                   16         17         18         19         20
    16  Cl   0.000000
    17  H    3.700075   0.000000
    18  H    2.902900   1.801057   0.000000
    19  H    2.892325   1.796113   1.793053   0.000000
    20  H    3.700015   2.555034   3.780036   3.143140   0.000000
    21  H    2.892228   3.143662   3.804611   2.604633   1.796124
    22  H    2.903147   3.780286   4.323093   3.804629   1.801144
                   21         22
    21  H    0.000000
    22  H    1.793064   0.000000
 Framework group  C1[X(C6H12Cl4)]
 Deg. of freedom    60
                         Standard orientation:                         
 ---------------------------------------------------------------------
 Center     Atomic      Atomic             Coordinates (Angstroms)
 Number     Number       Type             X           Y           Z
 ---------------------------------------------------------------------
      1          6           0       -1.998025    0.972520   -1.271315
      2          6           0       -2.383935    0.237452    0.000005
      3          6           0       -2.001942    0.973882    1.271730
      4         17           0       -4.169340   -0.047454   -0.002559
      5         17           0       -1.573540   -1.386193    0.002188
      6          1           0       -2.522371    1.942637   -1.303405
      7          1           0       -2.277806    0.387329   -2.161469
      8          1           0       -0.909286    1.153196   -1.275687
      9          1           0       -2.526351    1.944046    1.301163
     10          1           0       -0.913217    1.154532    1.279437
     11          1           0       -2.284529    0.389641    2.161621
     12          6           0        2.001719   -0.973241    1.272239
     13          6           0        2.383786   -0.237394    0.000197
     14          6           0        1.997031   -0.972549   -1.270812
     15         17           0        1.574305    1.386774    0.002212
     16         17           0        4.169313    0.046507   -0.002969
     17          1           0        0.912874   -1.153163    1.280369
     18          1           0        2.285001   -0.388957    2.161880
     19          1           0        2.525493   -1.943748    1.301748
     20          1           0        0.908197   -1.152674   -1.274661
     21          1           0        2.520882   -1.942937   -1.302881
     22          1           0        2.276763   -0.387699   -2.161205
 ---------------------------------------------------------------------
 Rotational constants (GHZ):           1.6208035           0.2691301           0.2565485
   180 basis functions,   346 primitive gaussians,   190 cartesian basis functions
    58 alpha electrons       58 beta electrons
       nuclear repulsion energy       938.4724268407 Hartrees.
 NAtoms=   22 NActive=   22 NUniq=   22 SFac= 1.00D+00 NAtFMM=   60 NAOKFM=F Big=F
 Nuclear repulsion after empirical dispersion term =      938.4583221953 Hartrees.
   1 Symmetry operations used in ECPInt.
 ECPInt:  NShTT=    4278 NPrTT=   18734 LenC2=    4040 LenP2D=   12421.
 LDataN:  DoStor=T MaxTD1= 4 Len=   56
 Initial guess from the checkpoint file:  "/scratch/user/peterchao1/peterchao1/6113313_1660079070000000077996759/Gau-158524.chk"
 B after Tr=    -0.000000    0.000000   -0.000000
         Rot=    1.000000    0.000003   -0.000000    0.000315 Ang=   0.04 deg.
 ExpMin= 1.22D-01 ExpMax= 1.04D+04 ExpMxC= 1.57D+03 IAcc=3 IRadAn=         5 AccDes= 0.00D+00
 Harris functional with IExCor= 4639 and IRadAn=       5 diagonalized for initial guess.
 HarFok:  IExCor= 4639 AccDes= 0.00D+00 IRadAn=         5 IDoV= 1 UseB2=F ITyADJ=14
 ICtDFT=  3500011 ScaDFX=  1.000000  1.000000  1.000000  1.000000
 FoFCou: FMM=F IPFlag=           0 FMFlag=      100000 FMFlg1=           0
         NFxFlg=           0 DoJE=T BraDBF=F KetDBF=T FulRan=T
         wScrn=  0.000000 ICntrl=       500 IOpCl=  0 I1Cent=   200000004 NGrid=           0
         NMat0=    1 NMatS0=      1 NMatT0=    0 NMatD0=    1 NMtDS0=    0 NMtDT0=    0
 Petite list used in FoFCou.
     Accept linear search using points  2 and  3.
     Minimum is close to point  2 DX=  4.20D-05 DF=  0.00D+00 DXR=  4.20D-05 DFR=  0.00D+00 which will be used.
 QCLLim is confused:  Bigger=T Turned=T
 NLin=  4 IMin12=  1  3 I12=  0  2 IX=  1 XLMin= 0.000D+00 XLMax= 0.000D+00
 X = 0.000D+00 1.000D+00 2.000D+00 4.000D+00
 DE= 0.000D+00 7.276D-12 9.095D-13 1.955D-11
 QCLLim is confused:  Bigger=T Turned=T
 NLin=  5 IMin12=  1  3 I12=  0  2 IX=  1 XLMin= 0.000D+00 XLMax= 0.000D+00
 X = 0.000D+00 1.000D+00 2.000D+00 4.000D+00 8.000D+00
 DE= 0.000D+00 7.276D-12 9.095D-13 1.955D-11 9.186D-11
 QCLLim is confused:  Bigger=T Turned=T
 NLin=  6 IMin12=  1  3 I12=  0  2 IX=  1 XLMin= 0.000D+00 XLMax= 0.000D+00
 X = 0.000D+00 1.000D+00 2.000D+00 4.000D+00 8.000D+00 1.600D+01
 DE= 0.000D+00 7.276D-12 9.095D-13 1.955D-11 9.186D-11 4.520D-10
 QCLLim is confused:  Bigger=T Turned=T
 NLin=  7 IMin12=  1  3 I12=  0  2 IX=  1 XLMin= 0.000D+00 XLMax= 0.000D+00
 X = 0.000D+00 1.000D+00 2.000D+00 4.000D+00 8.000D+00 1.600D+01 3.200D+01
 DE= 0.000D+00 7.276D-12 9.095D-13 1.955D-11 9.186D-11 4.520D-10 1.954D-09
 QCLLim is confused:  Bigger=T Turned=T
 NLin= 10 IMin12=  1  3 I12=  0  2 IX=  1 XLMin= 0.000D+00 XLMax= 0.000D+00
 X = 0.000D+00 1.000D+00 2.000D+00 4.000D+00 8.000D+00 1.600D+01 3.200D+01 6.400D+01 1.280D+02 2.560D+02
 DE= 0.000D+00 7.276D-12 9.095D-13 1.955D-11 9.186D-11 4.520D-10 1.954D-09 8.079D-09 3.284D-08 1.324D-07
 Search did not lower the energy significantly.
 No lower point found -- using Newton-Raphson step.
 SCF Done:  E(RwB97XD) =  -2075.83556315     a.u. after    4 cycles
            Convg  =    0.1469D-09                    42 Fock formations.
              S**2 =  0.0000                  -V/T =  2.0031
   1 Symmetry operations used in ECPInt.
 ECPInt:  NShTT=    4278 NPrTT=   18734 LenC2=    4040 LenP2D=   12421.
 LDataN:  DoStor=T MaxTD1= 5 Len=  102
 Calling FoFJK, ICntrl=      2127 FMM=F ISym2X=0 I1Cent= 0 IOpClX= 0 NMat=1 NMatS=1 NMatT=0.

 GradGradGradGradGradGradGradGradGradGradGradGradGradGradGradGradGradGrad
 Using GEDIIS/GDIIS optimizer.
 FormGI is forming the generalized inverse of G from B-inverse, IUseBI=4.
 Internal  Forces:  Max     0.000931686 RMS     0.000205373
 Step number   3 out of a maximum of  132
 All quantities printed in internal units (Hartrees-Bohrs-Radians)
 Mixed Optimization -- En-DIIS/RFO-DIIS
 Swapping is turned off.
 Trust test= 1.46D+00 RLast= 1.25D-01 DXMaxT set to 4.82D-01
 ITU=  1  1  0
     Eigenvalues ---    0.00239   0.00340   0.00351   0.00370   0.01101
     Eigenvalues ---    0.01430   0.01493   0.01922   0.01938   0.02581
     Eigenvalues ---    0.03314   0.03644   0.03781   0.05182   0.05574
     Eigenvalues ---    0.05682   0.06129   0.06155   0.06173   0.06698
     Eigenvalues ---    0.06791   0.07952   0.08086   0.08539   0.09718
     Eigenvalues ---    0.10060   0.10216   0.10958   0.11039   0.11073
     Eigenvalues ---    0.11076   0.11374   0.11762   0.11927   0.12249
     Eigenvalues ---    0.16067   0.16915   0.17654   0.18346   0.18991
     Eigenvalues ---    0.25533   0.25558   0.26201   0.26544   0.26907
     Eigenvalues ---    0.29263   0.29705   0.29934   0.31424   0.32758
     Eigenvalues ---    0.33365   0.35076   0.35094   0.35094   0.35095
     Eigenvalues ---    0.35119   0.35120   0.35120   0.35168   0.37696
 En-DIIS/RFO-DIIS/Sim-DIIS IScMMF=       -3 using points:     3    2
 RFO step:  Lambda=-2.40455049D-04.
 DidBck=F Rises=F RFO-DIIS coefs:    3.00000   -2.00000
 Iteration  1 RMS(Cart)=  0.01704647 RMS(Int)=  0.00014535
 Iteration  2 RMS(Cart)=  0.00013905 RMS(Int)=  0.00008594
 Iteration  3 RMS(Cart)=  0.00000002 RMS(Int)=  0.00008594
 Variable       Old X    -DE/DX   Delta X   Delta X   Delta X     New X
                                 (Linear)    (Quad)   (Total)
    R1        2.86934  -0.00036  -0.00319   0.00030  -0.00291   2.86643
    R2        2.08478  -0.00023   0.00086  -0.00066   0.00019   2.08498
    R3        2.08136  -0.00041   0.00089  -0.00180  -0.00091   2.08045
    R4        2.08557  -0.00043   0.00087  -0.00178  -0.00090   2.08467
    R5        2.86936  -0.00036  -0.00318   0.00029  -0.00291   2.86645
    R6        3.41662  -0.00042  -0.00313  -0.00031  -0.00344   3.41318
    R7        3.42920   0.00093   0.00701   0.00396   0.01097   3.44017
    R8        2.08478  -0.00023   0.00086  -0.00066   0.00020   2.08498
    R9        2.08557  -0.00043   0.00088  -0.00178  -0.00090   2.08468
   R10        2.08136  -0.00041   0.00089  -0.00180  -0.00091   2.08045
   R11        5.30145   0.00048   0.07006   0.00650   0.07658   5.37803
   R12        5.29255   0.00050   0.07176   0.00661   0.07839   5.37094
   R13        5.29657   0.00049   0.07068   0.00647   0.07717   5.37373
   R14        5.30236   0.00047   0.06947   0.00641   0.07590   5.37826
   R15        2.86936  -0.00036  -0.00318   0.00029  -0.00291   2.86645
   R16        2.08558  -0.00043   0.00089  -0.00178  -0.00090   2.08468
   R17        2.08136  -0.00041   0.00089  -0.00180  -0.00091   2.08045
   R18        2.08478  -0.00023   0.00085  -0.00066   0.00019   2.08498
   R19        2.86933  -0.00036  -0.00318   0.00030  -0.00290   2.86643
   R20        3.42931   0.00092   0.00683   0.00397   0.01080   3.44011
   R21        3.41655  -0.00041  -0.00298  -0.00033  -0.00331   3.41324
   R22        2.08557  -0.00043   0.00086  -0.00178  -0.00091   2.08466
   R23        2.08479  -0.00024   0.00085  -0.00066   0.00019   2.08498
   R24        2.08136  -0.00041   0.00088  -0.00180  -0.00091   2.08045
    A1        1.90632   0.00008  -0.00500   0.00483  -0.00009   1.90623
    A2        1.93362  -0.00011   0.00220  -0.00334  -0.00111   1.93251
    A3        1.91059   0.00005  -0.00110   0.00126  -0.00006   1.91053
    A4        1.89966   0.00001   0.00067  -0.00039   0.00026   1.89992
    A5        1.90159  -0.00010   0.00165  -0.00129   0.00038   1.90198
    A6        1.91173   0.00006   0.00157  -0.00105   0.00064   1.91237
    A7        1.98507   0.00002   0.01466  -0.00879   0.00575   1.99082
    A8        1.90295  -0.00000   0.00564  -0.00414   0.00145   1.90440
    A9        1.89722   0.00002  -0.00884   0.00537  -0.00342   1.89380
   A10        1.90292  -0.00000   0.00560  -0.00412   0.00142   1.90434
   A11        1.89715   0.00002  -0.00879   0.00537  -0.00337   1.89379
   A12        1.87550  -0.00006  -0.00959   0.00729  -0.00233   1.87317
   A13        1.90633   0.00009  -0.00503   0.00484  -0.00011   1.90621
   A14        1.91072   0.00004  -0.00098   0.00121   0.00001   1.91073
   A15        1.93359  -0.00010   0.00219  -0.00334  -0.00112   1.93247
   A16        1.90159  -0.00010   0.00162  -0.00126   0.00037   1.90196
   A17        1.89965   0.00001   0.00066  -0.00038   0.00025   1.89990
   A18        1.91164   0.00007   0.00154  -0.00104   0.00062   1.91227
   A19        1.89867  -0.00014  -0.00588  -0.00296  -0.00874   1.88993
   A20        1.89713  -0.00014  -0.00580  -0.00294  -0.00866   1.88848
   A21        0.94645  -0.00019  -0.00584  -0.00297  -0.00896   0.93749
   A22        2.65940   0.00006   0.00113   0.00043   0.00124   2.66064
   A23        2.65713   0.00008   0.00132   0.00051   0.00150   2.65863
   A24        1.91073   0.00004  -0.00098   0.00121   0.00002   1.91075
   A25        1.93358  -0.00010   0.00220  -0.00334  -0.00111   1.93246
   A26        1.90632   0.00009  -0.00505   0.00485  -0.00012   1.90620
   A27        1.91164   0.00007   0.00155  -0.00105   0.00062   1.91226
   A28        1.90159  -0.00010   0.00161  -0.00126   0.00037   1.90195
   A29        1.89965   0.00001   0.00066  -0.00039   0.00026   1.89991
   A30        1.98508   0.00002   0.01460  -0.00875   0.00572   1.99080
   A31        1.89712   0.00002  -0.00870   0.00534  -0.00331   1.89381
   A32        1.90294  -0.00000   0.00554  -0.00411   0.00138   1.90432
   A33        1.89720   0.00002  -0.00875   0.00534  -0.00337   1.89383
   A34        1.90299  -0.00000   0.00558  -0.00413   0.00140   1.90439
   A35        1.87548  -0.00006  -0.00958   0.00729  -0.00231   1.87317
   A36        1.91053   0.00005  -0.00114   0.00128  -0.00008   1.91045
   A37        1.90631   0.00008  -0.00502   0.00485  -0.00010   1.90622
   A38        1.93362  -0.00011   0.00222  -0.00335  -0.00109   1.93253
   A39        1.90160  -0.00010   0.00164  -0.00128   0.00039   1.90199
   A40        1.91178   0.00006   0.00161  -0.00108   0.00064   1.91242
   A41        1.89966   0.00001   0.00068  -0.00039   0.00027   1.89993
   A42        0.94601  -0.00019  -0.00570  -0.00296  -0.00881   0.93720
   A43        1.89670  -0.00013  -0.00569  -0.00291  -0.00850   1.88820
   A44        1.89851  -0.00013  -0.00580  -0.00294  -0.00864   1.88987
   A45        2.65643   0.00008   0.00133   0.00053   0.00153   2.65796
   A46        2.65997   0.00006   0.00103   0.00041   0.00112   2.66109
    D1       -1.06988   0.00001   0.00408   0.00435   0.00839  -1.06149
    D2        1.05768   0.00002   0.02517  -0.00996   0.01524   1.07293
    D3        3.09728  -0.00004   0.01190  -0.00055   0.01136   3.10864
    D4        3.12094   0.00002   0.00508   0.00381   0.00881   3.12975
    D5       -1.03468   0.00002   0.02616  -0.01049   0.01567  -1.01901
    D6        1.00493  -0.00004   0.01289  -0.00108   0.01178   1.01671
    D7        1.01083  -0.00003   0.00243   0.00644   0.00877   1.01960
    D8        3.13840  -0.00002   0.02351  -0.00787   0.01562  -3.12916
    D9       -1.10518  -0.00008   0.01024   0.00154   0.01174  -1.09344
   D10       -0.34476  -0.00010  -0.03400  -0.00895  -0.04301  -0.38777
[...]
 0014152,-0.00016179,-0.00006964,0.00003707,0.00005448,-0.00000352,0.00
 003901,0.00012805,-0.00004825,0.00001237,0.00000270,0.01551561,0.57551
 573,0.00002123,0.00008271,0.00006150,-0.00004293,-0.00051227,-0.000133
 41,0.00005053,0.00001595,-0.00003780,0.00008893,0.00012095,0.00004520,
 0.00056411,0.00022364,0.00000760,0.00001805,0.00001731,-0.00001201,-0.
 00004959,-0.00000428,0.00001906,0.00001775,-0.00008024,-0.00006111,-0.
 00004361,0.00001449,0.00006378,-0.00006620,0.00000525,0.00002435,0.000
 06063,0.00001948,0.00000990,-0.03218736,0.04955970,0.53962733,-0.00030
 126,0.00014545,-0.00004285,-0.00109215,0.00005806,-0.00000010,-0.00030
 117,0.00014535,0.00004288,0.00073877,-0.00013360,0.00000006,0.00057770
 ,-0.00015433,0.,0.00014082,-0.00000162,0.00003666,0.00016843,-0.000046
 06,0.00000142,-0.00028023,-0.00022367,0.00032884,0.00014076,-0.0000016
 3,-0.00003664,-0.00028018,-0.00022362,-0.00032885,0.00016847,-0.000046
 05,-0.00000139,-0.08094886,0.02124753,-0.03219588,0.32252465,-0.000568
 71,-0.00067387,-0.00051227,0.00005801,0.00286448,-0.00000052,-0.000568
 86,-0.00067370,0.00051243,0.00027857,-0.00066943,0.00000014,-0.0009541
 2,-0.00153355,0.,-0.00012609,-0.00013014,0.00014905,0.00056838,-0.0000
 6755,-0.00003876,-0.00046863,0.00081876,0.00103759,-0.00012607,-0.0001
 3018,-0.00014904,-0.00046814,0.00081809,-0.00103771,0.00056829,-0.0000
 6753,0.00003881,0.02097380,-0.09983304,0.05006814,-0.04167761,0.351477
 09,0.00009650,-0.00024100,-0.00013340,-0.00000003,-0.00000031,0.000281
 65,-0.00009616,0.00024118,-0.00013367,-0.00000005,0.00000006,-0.000129
 96,0.00000003,0.00000007,-0.00062063,-0.00015681,0.00000778,-0.0000612
 2,0.00014904,0.00000834,-0.00004595,-0.00005122,0.00048540,0.00016433,
 0.00015687,-0.00000776,-0.00006117,0.00005142,-0.00048548,0.00016490,-
 0.00014924,-0.00000832,-0.00004596,-0.03266625,0.05089874,-0.18216073,
 0.00000037,0.00002789,0.48867940,0.00002010,0.00017755,0.00005058,-0.0
 0030115,-0.00056885,-0.00009627,0.00008761,0.00009070,-0.00002126,0.00
 015395,0.00010204,0.00004163,-0.00024864,0.00046243,-0.00012465,0.0001
 0579,0.00003076,0.00000044,-0.00006970,-0.00003092,0.00002717,0.000043
 49,-0.00026615,-0.00003009,0.00001108,0.00002917,0.00003911,0.00007005
 ,-0.00006963,0.00001480,-0.00000532,-0.00000031,0.00000471,0.00598217,
 -0.00505076,-0.00751201,-0.08095541,0.02099149,0.03266797,0.59605625,0
 .00017742,-0.00003294,0.00001590,0.00014550,-0.00067355,0.00024114,0.0
 0009069,0.00014608,-0.00008273,-0.00001525,0.00017619,-0.00004285,0.00
 024181,0.00069246,-0.00003423,-0.00006947,0.00003700,-0.00005446,-0.00
 004820,0.00001236,-0.00000271,-0.00000062,0.00004082,-0.00012847,0.000
 02734,0.00003069,0.00002597,0.00010220,-0.00014141,0.00016183,-0.00009
 528,0.00000557,-0.00002050,-0.00504907,0.01115362,0.01201782,0.0212651
 0,-0.09987338,-0.05092945,0.01553340,0.57547473,-0.00005064,-0.0000159
 4,-0.00003782,0.00004278,0.00051236,-0.00013364,-0.00002128,-0.0000827
 2,0.00006155,-0.00008892,-0.00012100,0.00004525,-0.00056458,-0.0002238
 3,0.00000752,0.00004364,-0.00001448,0.00006380,-0.00006059,-0.00001949
 ,0.00000992,0.00006634,-0.00000512,0.00002448,-0.00001806,-0.00001731,
 -0.00001200,-0.00001778,0.00008022,-0.00006120,0.00004963,0.00000428,0
 .00001906,0.00751765,-0.01203415,-0.02880837,0.03219731,-0.05009875,-0
 .18211410,0.03218777,-0.04957235,0.53967188,-0.00024838,0.00024208,0.0
 0056459,0.00057772,-0.00095416,0.00000047,-0.00024889,0.00024207,-0.00
 056424,-0.00047743,0.00028787,-0.00000018,0.00016814,0.00031461,-0.000
 00005,-0.00019158,-0.00001583,-0.00006321,-0.00039476,0.00001896,0.000
 01121,-0.00103758,0.00044611,0.00009076,-0.00019129,-0.00001582,0.0000
 6321,-0.00104194,0.00044621,-0.00009311,-0.00039444,0.00001894,-0.0000
 1129,0.00186839,-0.00103068,0.00004234,-0.03646542,-0.02528531,0.00000
 425,0.00186937,-0.00102848,-0.00004181,0.06015501,0.00046242,0.0006925
 3,0.00022363,-0.00015431,-0.00153355,0.00000020,0.00046240,0.00069239,
 -0.00022387,-0.00023727,0.00034455,-0.00000005,0.00031459,0.00083669,-
 0.00000007,0.00020674,0.00005855,-0.00010743,-0.00030862,0.00006221,0.
 00000738,0.00029810,-0.00097036,-0.00058710,0.00020668,0.00005858,0.00
 010743,0.00029864,-0.00096990,0.00058748,-0.00030864,0.00006220,-0.000
 00740,-0.01179558,-0.03327209,0.00205356,-0.01122005,-0.09863222,0.000
 00889,-0.01179883,-0.03328203,-0.00204146,0.05078864,0.17232110,0.0001
 2447,0.00003396,0.00000746,0.00000012,0.00000022,-0.00062067,-0.000124
 81,-0.00003416,0.00000757,0.00000006,-0.00000004,0.00023535,-0.0000000
 6,-0.00000014,0.00011993,0.00015795,0.00001199,0.00002109,0.00009111,-
 0.00001208,0.00004184,0.00031998,-0.00045901,-0.00020998,-0.00015794,-
 0.00001201,0.00002105,-0.00032222,0.00045915,-0.00021145,-0.00009095,0
 .00001207,0.00004183,0.00832272,0.02339889,0.00035403,0.00000134,0.000
 00806,-0.03823570,-0.00831797,-0.02338555,0.00036319,-0.00000641,-0.00
 002194,0.03678553,0.00015391,-0.00001522,0.00008894,0.00073876,0.00027
 855,0.,0.00015391,-0.00001527,-0.00008892,-0.00055463,0.00000898,-0.00
 000002,-0.00047741,-0.00023726,-0.00000004,-0.00004179,-0.00002867,-0.
 00003789,-0.00007914,0.00005861,-0.00002643,0.00004219,-0.00002365,-0.
 00023499,-0.00004178,-0.00002866,0.00003790,0.00004193,-0.00002360,0.0
 0023492,-0.00007913,0.00005861,0.00002640,-0.03161614,0.00479168,-0.00
 205679,-0.11100573,0.02066522,-0.00000707,-0.03161879,0.00479308,0.002
 05165,-0.02785475,-0.01931672,0.00000239,0.20019147,0.00010198,0.00017
 627,0.00012097,-0.00013359,-0.00066944,0.00000011,0.00010204,0.0001762
 3,-0.00012099,0.00000898,0.00014247,-0.00000002,0.00028787,0.00034456,
 0.00000003,0.00004241,0.00002992,-0.00002928,-0.00011596,0.00000760,0.
 00001251,0.00006677,-0.00020437,-0.00022236,0.00004241,0.00002993,0.00
 002928,0.00006667,-0.00020420,0.00022236,-0.00011593,0.00000759,-0.000
 01252,0.01554461,0.00004622,0.00095639,0.00543585,-0.03423509,-0.00000
 063,0.01555468,0.00004442,-0.00095464,-0.02562251,-0.00587291,0.000000
 58,-0.01397748,0.03745398,-0.00004165,0.00004282,0.00004520,0.00000005
 ,0.00000005,-0.00012996,0.00004161,-0.00004287,0.00004525,-0.00000001,
 0.,0.00005445,-0.00000001,0.00000001,0.00023533,0.00003572,-0.00000010
 ,0.00001986,-0.00005080,-0.00000393,0.00001956,0.00001887,-0.00008661,
 -0.00007252,-0.00003575,0.00000010,0.00001986,-0.00001895,0.00008661,-
 0.00007263,0.00005084,0.00000394,0.00001957,-0.02506691,0.00313305,0.0
 0070005,-0.00000392,0.,-0.03910699,0.02505755,-0.00313248,0.00070453,0
 .00000359,0.00000083,0.00327493,0.00001020,-0.00000065,0.03651308,0.00
 007009,0.00010219,0.00001771,-0.00028005,-0.00046816,-0.00005103,0.000
 04220,-0.00000142,0.00006634,0.00004211,0.00006667,0.00001883,-0.00104
 028,0.00029799,0.00032190,-0.00001402,0.00003087,-0.00003308,-0.000006
 66,-0.00001053,0.00001212,0.00001896,0.00000395,-0.00001296,-0.0000224
 9,0.00002925,0.00001775,-0.00041137,-0.00042592,0.00000341,-0.00001981
 ,-0.00001257,-0.00004455,-0.32262459,0.02032681,-0.00132229,-0.0097661
 7,-0.00038532,0.00063962,0.00048583,-0.00008597,0.00078663,0.00099241,
 -0.00027251,0.00029929,0.00017289,0.00097297,-0.00165087,0.34358234,-0
 .00006959,-0.00014152,-0.00008023,-0.00022350,0.00081876,0.00048545,-0
 .00026629,0.00004054,-0.00000510,-0.00002360,-0.00020437,-0.00008666,0
 .00044604,-0.00097017,-0.00045910,0.00002327,-0.00003479,0.00003924,0.
 00002868,0.00001427,-0.00004070,0.00000396,-0.00001063,0.00005227,0.00
 012103,-0.00004604,-0.00006980,-0.00042422,-0.00058305,0.00005165,-0.0
 0001430,0.00001466,-0.00000250,0.01841032,-0.05150491,-0.00062993,0.01
 493329,-0.00267682,0.00011451,-0.00027015,-0.00004724,-0.00073420,0.00
 024137,-0.00011935,-0.00015544,0.00240322,0.00013380,0.00222577,-0.021
 94817,0.05039454,-0.00001477,-0.00016178,-0.00006112,0.00032890,0.0010
 3740,0.00016442,-0.00003030,-0.00012814,0.00002447,-0.00023488,-0.0002
 2230,-0.00007255,0.00009320,-0.00058726,-0.00021133,-0.00002278,-0.000
 03364,0.00003859,0.00000566,0.00002138,-0.00003001,-0.00001296,0.00005
 230,-0.00002448,0.00004583,-0.00004194,-0.00010411,-0.00000185,-0.0000
 4998,0.00017580,-0.00015192,0.00000213,-0.00001123,0.00308081,-0.00020
 961,-0.05089259,-0.02658611,0.00083447,0.00007554,-0.00019314,-0.00014
 628,0.00080539,0.00024170,-0.00064920,0.00032194,-0.00455730,0.0024666
 2,-0.00289583,0.00229832,-0.00238948,0.05161469,-0.00000532,-0.0000953
 0,-0.00004960,0.00016846,0.00056831,0.00014906,-0.00006978,-0.00004824
 ,-0.00006062,-0.00007910,-0.00011594,-0.00005081,-0.00039448,-0.000308
 57,0.00009098,-0.00000550,-0.00002151,0.00002691,0.00000161,0.00000929
 ,-0.00002365,-0.00000666,0.00002868,0.00000566,0.00002898,-0.00002168,
 -0.00004155,-0.00001995,-0.00001434,0.00015198,-0.00005722,0.00002064,
 0.00000086,-0.07597061,0.04444104,0.07094462,0.00155557,-0.00582987,-0
 .00970728,-0.00032708,0.00118467,-0.00147070,-0.00041495,-0.00056349,0
 .00038305,0.00080611,-0.00054608,-0.00051081,-0.00448855,0.01525742,0.
 02473456,0.07441582,-0.00000031,0.00000558,-0.00000427,-0.00004605,-0.
 00006755,0.00000832,-0.00003091,0.00001236,-0.00001948,0.00005860,0.00
 000760,-0.00000393,0.00001895,0.00006220,-0.00001207,-0.00000418,0.000
 00388,-0.00000210,0.00000929,-0.00000564,0.00000132,-0.00001054,0.0000
 1427,0.00002138,-0.00000017,0.00000065,0.00000516,-0.00001250,0.000014
 71,-0.00000213,0.00002064,-0.00000496,-0.00000407,0.04420522,-0.123234
 55,-0.11909551,-0.00540763,0.00705662,0.01572908,0.00114133,-0.0014440
 5,0.00230893,0.00004668,0.00137637,0.00052764,-0.00119099,0.00013053,-
 0.00018481,-0.00074048,-0.00081005,0.00044000,-0.04813764,0.12669990,-
 0.00000471,0.00002051,0.00001905,0.00000143,-0.00003877,-0.00004594,0.
 00002718,-0.00000270,0.00000991,-0.00002643,0.00001251,0.00001956,0.00
 001124,0.00000739,0.00004184,0.00001135,0.00000117,0.00000258,-0.00002
 365,0.00000132,0.00000652,0.00001214,-0.00004070,-0.00003001,-0.000014
 46,0.00000156,0.00000874,0.00004457,0.00000251,-0.00001122,-0.00000087
 ,0.00000407,0.00000674,0.06735870,-0.11335782,-0.22689301,0.00933988,-
 0.01544627,-0.02273546,-0.00250026,0.00408009,-0.00346959,-0.00041955,
 -0.00066270,0.00139245,0.00072553,0.00012429,0.00140526,-0.00124500,0.
 00222476,0.00282755,-0.07225470,0.12133640,0.24497524,0.00001108,0.000
 02735,0.00001805,0.00014078,-0.00012614,-0.00015682,0.00010560,-0.0000
 6959,0.00004363,-0.00004178,0.00004242,0.00003573,-0.00019134,0.000206
 72,0.00015783,-0.00001059,0.00000544,-0.00000643,-0.00000550,-0.000004
 18,0.00001135,-0.00001403,0.00002327,-0.00002278,-0.00008162,0.0000077
 6,0.00002680,-0.00002308,0.00012054,-0.00004587,0.00002898,-0.00000016
 ,0.00001446,-0.09263404,-0.10189364,0.00324845,0.00179689,0.00928271,-
 0.00083943,-0.00014773,-0.00000014,0.00026376,0.00137671,0.00188630,-0
 .00124222,0.00004480,0.00092807,-0.00014846,-0.00739532,-0.02836614,0.
 00069167,0.00402344,0.01001184,-0.00140054,0.09284657,0.00002915,0.000
 03069,0.00001730,-0.00000161,-0.00013012,0.00000778,0.00003082,0.00003
 705,-0.00001448,-0.00002867,0.00002992,-0.00000010,-0.00001584,0.00005
 855,0.00001200,0.00000544,0.00000564,-0.00000920,-0.00002151,0.0000038
 8,0.00000117,0.00003089,-0.00003479,-0.00003364,0.00000776,0.00000765,
 0.00000717,0.00002945,-0.00004583,0.00004193,-0.00002167,0.00000065,-0
 .00000156,-0.09889814,-0.27809768,0.00571900,-0.00681224,-0.01410420,-
 0.00097952,0.00026334,0.00042901,-0.00102266,0.00028534,-0.00155367,0.
 00274138,0.00029306,0.00109967,-0.00042525,0.00250597,0.00561858,-0.00
 031211,-0.00584868,-0.01065572,0.00242331,0.10790992,0.29658893,-0.000
 03912,-0.00002599,-0.00001200,0.00003665,0.00014905,-0.00006123,0.0000
 0043,-0.00005448,0.00006380,-0.00003789,-0.00002928,0.00001987,-0.0000
 6322,-0.00010742,0.00002108,-0.00000643,-0.00000921,0.00000579,0.00002
 691,-0.00000210,0.00000258,-0.00003310,0.00003924,0.00003860,-0.000026
 81,-0.00000717,-0.00000148,-0.00001780,0.00006975,-0.00010417,0.000041
 56,-0.00000516,0.00000875,0.00104796,0.00266745,-0.05007973,0.01131153
 ,0.02388007,-0.00056614,0.00019469,0.00004270,0.00082811,-0.00015008,0
 .00495851,-0.00271368,0.00061225,-0.00050184,0.00035475,-0.00001066,-0
 .00037856,-0.00093580,-0.01177517,-0.02202086,0.00319320,-0.00088607,-
 0.00832022,0.05064240,0.00004505,-0.00000318,-0.00006616,-0.00028035,-
 0.00046872,0.00005167,0.00007006,0.00010229,-0.00001783,0.00004200,0.0
 0006680,-0.00001902,-0.00103964,0.00029876,-0.00032080,-0.00002331,0.0
 0002952,-0.00001783,-0.00002012,-0.00001252,0.00004457,-0.00041969,-0.
 00043009,-0.00000177,-0.00001403,0.00003090,0.00003310,0.00001898,0.00
 000393,0.00001297,-0.00000665,-0.00001055,-0.00001216,0.00048586,-0.00
 008641,-0.00078660,-0.00976888,-0.00038539,-0.00064055,-0.32262172,0.0
 2032927,0.00128333,0.00099217,-0.00027222,-0.00029866,0.00017228,0.000
 97394,0.00165078,0.00050182,-0.00013061,0.00014758,0.00021763,0.000032
 64,-0.00007810,-0.00005697,0.00011239,0.00004223,0.34358713,-0.0002649
 5,0.00003891,0.00000529,-0.00022386,0.00081795,-0.00048535,-0.00006962
 ,-0.00014138,0.00008021,-0.00002365,-0.00020417,0.00008654,0.00044626,
 -0.00096998,0.00045905,0.00012040,-0.00004579,0.00006975,-0.00001449,0
 .00001469,0.00000252,-0.00043224,-0.00058795,-0.00004965,0.00002329,-0
 .00003478,-0.00003920,0.00000393,-0.00001074,-0.00005237,0.00002869,0.
 00001427,0.00004066,-0.00027013,-0.00004675,0.00073467,0.01494401,-0.0
 0267767,-0.00011205,0.01841509,-0.05150871,0.00063208,0.00024134,-0.00
 011872,0.00015599,0.00240508,0.00013206,-0.00222661,-0.00013066,0.0003
 0554,0.00002762,0.00000155,-0.00014904,0.00008444,-0.00013368,-0.00004
 275,0.00004984,-0.02194749,0.05040669,0.00003010,0.00012834,0.00002434
 ,-0.00032873,-0.00103778,0.00016480,0.00001480,0.00016182,-0.00006119,
 0.00023499,0.00022241,-0.00007260,-0.00009138,0.00058731,-0.00021045,-
 0.00004578,0.00004190,-0.00010416,0.00015200,-0.00000213,-0.00001123,0
 .00000365,0.00005157,0.00017550,0.00002277,0.00003367,0.00003860,0.000
 01298,-0.00005234,-0.00002441,-0.00000567,-0.00002140,-0.00003001,0.00
 019321,0.00014659,0.00080496,0.02657937,-0.00083385,0.00007886,-0.0031
 1987,0.00021300,-0.05089305,-0.00024182,0.00064927,0.00032144,0.004556
 82,-0.00246783,-0.00289350,-0.00014728,-0.00002783,-0.00106614,-0.0002
 0185,-0.00004060,0.00027966,0.00006413,-0.00000898,-0.00002291,-0.0022
 6017,0.00238531,0.05161168,0.00010579,-0.00006953,-0.00004363,0.000140
 81,-0.00012600,0.00015686,0.00001107,0.00002733,-0.00001806,-0.0000418
 0,0.00004239,-0.00003574,-0.00019154,0.00020666,-0.00015804,-0.0000816
 2,0.00000775,-0.00002680,0.00002899,-0.00000017,-0.00001446,-0.0000225
 8,0.00012101,0.00004575,-0.00001059,0.00000544,0.00000643,-0.00001402,
 0.00002329,0.00002277,-0.00000550,-0.00000418,-0.00001135,-0.00014771,
 -0.00000025,-0.00026385,0.00179804,0.00928548,0.00083613,-0.09263667,-
 0.10189752,-0.00321332,0.00137653,0.00188738,0.00124191,0.00004489,0.0
 0092819,0.00014816,-0.00005693,-0.00013369,-0.00006407,-0.00004526,0.0
 0016325,-0.00006430,0.00027240,-0.00002202,-0.00010844,-0.00739644,-0.
 02836696,-0.00068102,0.09285007,0.00003074,0.00003704,0.00001450,-0.00
 000164,-0.00013019,-0.00000776,0.00002917,0.00003070,-0.00001732,-0.00
 002866,0.00002993,0.00000010,-0.00001580,0.00005857,-0.00001199,0.0000
 0776,0.00000765,-0.00000717,-0.00002168,0.00000065,0.00000156,0.000029
 26,-0.00004606,-0.00004191,0.00000545,0.00000565,0.00000921,0.00003088
 ,-0.00003479,0.00003367,-0.00002152,0.00000388,-0.00000117,0.00026321,
 0.00042937,0.00102281,-0.00681703,-0.01411331,0.00098414,-0.09890087,-
 0.27809556,-0.00564008,0.00028566,-0.00155676,-0.00274184,0.00029273,0
 .00110009,0.00042509,0.00011236,-0.00004275,0.00000902,0.00016690,0.00
 017625,0.00004288,-0.00002198,0.00057838,-0.00020022,0.00250656,0.0056
 1965,0.00030976,0.10791253,0.29658962,-0.00000046,0.00005447,0.0000637
 7,-0.00003664,-0.00014903,-0.00006116,0.00003911,0.00002597,-0.0000120
 1,0.00003789,0.00002928,0.00001985,0.00006320,0.00010743,0.00002105,0.
 00002680,0.00000717,-0.00000147,-0.00004156,0.00000516,0.00000874,0.00
 001776,-0.00006981,-0.00010410,0.00000643,0.00000921,0.00000579,0.0000
 3307,-0.00003921,0.00003860,-0.00002691,0.00000210,0.00000258,-0.00019
 485,-0.00004255,0.00082763,-0.01130904,-0.02387349,-0.00055836,-0.0010
 1394,-0.00258884,-0.05007674,0.00015040,-0.00495867,-0.00271041,-0.000
 61242,0.00050169,0.00035447,-0.00004225,-0.00004987,-0.00002291,0.0001
 5934,0.00019419,0.00027686,0.00010856,0.00019954,-0.00095874,0.0000090
 9,0.00037295,-0.00093616,0.00084845,0.00823531,0.05063576,-0.00006976,
 -0.00004821,0.00006061,0.00016841,0.00056833,-0.00014923,-0.00000531,-
 0.00009529,0.00004963,-0.00007914,-0.00011595,0.00005084,-0.00039464,-
 0.00030867,-0.00009101,0.00002899,-0.00002166,0.00004157,-0.00005725,0
 .00002064,-0.00000086,-0.00001995,-0.00001443,-0.00015194,-0.00000550,
 -0.00002152,-0.00002691,-0.00000665,0.00002868,-0.00000567,0.00000161,
 0.00000930,0.00002365,-0.00032744,0.00118561,0.00147049,0.00155536,-0.
 00582782,0.00971187,-0.07595347,0.04439954,-0.07094279,-0.00041504,-0.
 00056366,-0.00038316,0.00080613,-0.00054587,0.00051078,0.00021760,0.00
 000166,0.00020186,0.00066683,-0.00012702,0.00050055,-0.00004526,0.0001
 6685,-0.00015943,-0.00448518,0.01524809,-0.02474125,0.00402205,-0.0058
 4405,0.01177798,0.07439762,-0.00003094,0.00001236,0.00001949,-0.000046
 05,-0.00006755,-0.00000833,-0.00000032,0.00000557,0.00000428,0.0000586
 2,0.00000760,0.00000394,0.00001896,0.00006221,0.00001207,-0.00000016,0
 .00000065,-0.00000516,0.00002064,-0.00000496,0.00000407,-0.00001260,0.
 00001465,0.00000214,-0.00000418,0.00000388,0.00000210,-0.00001054,0.00
 001427,-0.00002140,0.00000930,-0.00000564,-0.00000131,0.00114258,-0.00
 144662,-0.00230963,-0.00540949,0.00705663,-0.01574154,0.04416449,-0.12
 314409,0.11906032,0.00004694,0.00137640,-0.00052770,-0.00119128,0.0001
 3067,0.00018506,0.00003267,-0.00014903,0.00004079,-0.00012715,0.000810
 63,-0.00081825,0.00016329,0.00017616,-0.00019412,-0.00073981,-0.000811
 33,-0.00043820,0.01000962,-0.01064803,0.02202702,-0.04809454,0.1266055
 7,-0.00002716,0.00000271,0.00000991,-0.00000139,0.00003881,-0.00004598
 ,0.00000470,-0.00002052,0.00001907,0.00002640,-0.00001252,0.00001957,-
 0.00001127,-0.00000740,0.00004182,0.00001446,-0.00000156,0.00000875,0.
 00000085,-0.00000406,0.00000674,-0.00004456,-0.00000251,-0.00001125,-0
 .00001135,-0.00000117,0.00000258,-0.00001213,0.00004067,-0.00003002,0.
 00002364,-0.00000131,0.00000653,0.00250015,-0.00408074,-0.00346662,-0.
 00933486,0.01543403,-0.02273524,-0.06735692,0.11332248,-0.22699815,0.0
 0041923,0.00066272,0.00139227,-0.00072514,-0.00012406,0.00140528,0.000
 07807,-0.00008424,0.00027969,-0.00050031,0.00081740,-0.00127994,0.0000
 6420,-0.00004284,0.00027696,0.00124433,-0.00222169,0.00282599,0.001396
 63,-0.00241859,0.00318698,0.07225243,-0.12129561,0.24508507\\-0.000000
 07,0.00000012,-0.00000021,-0.00000009,0.00000115,-0.00000014,-0.000000
 05,-0.00000005,0.00000050,0.00000021,0.00000036,0.,0.,-0.00000014,0.00
 000043,-0.00000024,0.00000028,0.00000007,-0.00000004,0.00000028,0.0000
 0005,-0.00000009,-0.00000007,0.00000007,-0.00000023,0.00000026,-0.0000
 0006,-0.00000005,0.00000028,-0.00000049,-0.00000005,0.00000025,-0.0000
 0005,0.00000003,-0.00000002,0.00000040,0.00000012,-0.00000115,-0.00000
 013,0.00000004,-0.00000021,0.00000020,-0.00000011,0.00000008,0.0000002
 8,-0.00000023,-0.00000036,0.,0.00000014,-0.00000020,-0.00000037,0.0000
 0005,-0.00000027,-0.00000005,0.00000023,-0.00000027,-0.00000007,0.0000
 0015,0.00000023,-0.00000053,0.00000025,-0.00000028,0.00000007,0.000000
 04,-0.00000026,0.00000004\\\@


 Experience is what you get when you don't get what you want.
 -- Dan Stanford
 Job cpu time:       0 days  0 hours 10 minutes 48.2 seconds.
 Elapsed time:       0 days  0 hours  2 minutes 43.5 seconds.
 File lengths (MBytes):  RWF=    108 Int=      0 D2E=      0 Chk=      4 Scr=      1
 Normal termination of Gaussian 16 at Tue Aug  9 16:20:31 2022.
real 960.46
user 3530.87
sys 26.96
