 Entering Gaussian System, Link 0=g16
 Input=gaussian_test.inp
 Output=gaussian_test.log
 Initial command:
 /sw/restricted/lms/sw/Gaussian/g16_B01/g16/l1.exe "/scratch/user/peterchao1/peterchao1/9993827_1712001977000000198519639/Gau-117827.inp" -scrdir="/scratch/user/peterchao1/peterchao1/9993827_1712001977000000198519639/"
 Entering Link 1 = /sw/restricted/lms/sw/Gaussian/g16_B01/g16/l1.exe PID=    117828.
  
 Copyright (c) 1988-2017, Gaussian, Inc.  All Rights Reserved.
  
 This is part of the Gaussian(R) 16 program.  It is based on
 the Gaussian(R) 09 system (copyright 2009, Gaussian, Inc.),
 the Gaussian(R) 03 system (copyright 2003, Gaussian, Inc.),
 the Gaussian(R) 98 system (copyright 1998, Gaussian, Inc.),
 the Gaussian(R) 94 system (copyright 1995, Gaussian, Inc.),
 the Gaussian 92(TM) system (copyright 1992, Gaussian, Inc.),
 the Gaussian 90(TM) system (copyright 1990, Gaussian, Inc.),
 the Gaussian 88(TM) system (copyright 1988, Gaussian, Inc.),
 the Gaussian 86(TM) system (copyright 1986, Carnegie Mellon
 University), and the Gaussian 82(TM) system (copyright 1983,
 Carnegie Mellon University). Gaussian is a federally registered
 trademark of Gaussian, Inc.
  
 This software contains proprietary and confidential information,
 including trade secrets, belonging to Gaussian, Inc.
  
 This software is provided under written license and may be
 used, copied, transmitted, or stored only in accord with that
 written license.
  
 The following legend is applicable only to US Government
 contracts under FAR:
  
                    RESTRICTED RIGHTS LEGEND
  
 Use, reproduction and disclosure by the US Government is
 subject to restrictions as set forth in subparagraphs (a)
 and (c) of the Commercial Computer Software - Restricted
 Rights clause in FAR 52.227-19.
  
 Gaussian, Inc.
 340 Quinnipiac St., Bldg. 40, Wallingford CT 06492
  
  
 ---------------------------------------------------------------
 Warning -- This program may not be used in any manner that
 competes with the business of Gaussian, Inc. or will provide
 assistance to any competitor of Gaussian, Inc.  The licensee
 of this program is prohibited from giving any competitor of
 Gaussian, Inc. access to this program.  By using this program,
 the user acknowledges that Gaussian, Inc. is engaged in the
 business of creating and licensing software in the field of
 computational chemistry and represents and warrants to the
 licensee that it is not a competitor of Gaussian, Inc. and that
 it will not use this program in any manner prohibited above.
 ---------------------------------------------------------------
  

 Cite this work as:
 Gaussian 16, Revision B.01,
 M. J. Frisch, G. W. Trucks, H. B. Schlegel, G. E. Scuseria, 
 M. A. Robb, J. R. Cheeseman, G. Scalmani, V. Barone, 
 G. A. Petersson, H. Nakatsuji, X. Li, M. Caricato, A. V. Marenich, 
 J. Bloino, B. G. Janesko, R. Gomperts, B. Mennucci, H. P. Hratchian, 
 J. V. Ortiz, A. F. Izmaylov, J. L. Sonnenberg, D. Williams-Young, 
 F. Ding, F. Lipparini, F. Egidi, J. Goings, B. Peng, A. Petrone, 
 T. Henderson, D. Ranasinghe, V. G. Zakrzewski, J. Gao, N. Rega, 
 G. Zheng, W. Liang, M. Hada, M. Ehara, K. Toyota, R. Fukuda, 
 J. Hasegawa, M. Ishida, T. Nakajima, Y. Honda, O. Kitao, H. Nakai, 
 T. Vreven, K. Throssell, J. A. Montgomery, Jr., J. E. Peralta, 
 F. Ogliaro, M. J. Bearpark, J. J. Heyd, E. N. Brothers, K. N. Kudin, 
 V. N. Staroverov, T. A. Keith, R. Kobayashi, J. Normand, 
 K. Raghavachari, A. P. Rendell, J. C. Burant, S. S. Iyengar, 
 J. Tomasi, M. Cossi, J. M. Millam, M. Klene, C. Adamo, R. Cammi, 
 J. W. Ochterski, R. L. Martin, K. Morokuma, O. Farkas, 
 J. B. Foresman, and D. J. Fox, Gaussian, Inc., Wallingford CT, 2016.
 
 ******************************************
 Gaussian 16:  ES64L-G16RevB.01 20-Dec-2017
                 1-Apr-2024 
 ******************************************
 %nprocshared=4
 Will use up to    4 processors via shared memory.
 %mem=8000mb
 %chk=dimer.chk
 %nprocshared=4
 Will use up to    4 processors via shared memory.
 %mem=8000mb
 ----------------------------------------------------------------------
 #T wB97XD/def2svpp opt=tight freq int(grid=ultrafine) scf=(verytight,q
 c) Volume=tight
 ----------------------------------------------------------------------
 -----
 Dimer
 -----
 Symbolic Z-matrix:
 Charge =  0 Multiplicity = 1
 C                    -3.56998  -0.19473   1.25352 
 C                    -2.72426  -0.00032  -0.00043 
 C                    -3.56848   0.19363  -1.25545 
 C                    -1.71639   1.14545   0.15615 
 O                    -1.32001   1.31949   1.39796 
 O                    -1.26437   1.75825  -0.78292 
 C                    -1.71547  -1.14547  -0.1557 
 O                    -1.31855  -1.3204   -1.39725 
 O                    -1.26334  -1.75719   0.78402 
 H                    -4.12863   0.71126   1.47218 
 H                    -2.93591  -0.43295   2.10251 
 H                    -4.26951  -1.01243   1.09804 
 H                    -4.12683  -0.71246  -1.47447 
 H                    -2.93344   0.43161  -2.10378 
 H                    -4.26823   1.01136  -1.1011 
 H                    -0.50904   1.87435   1.43722 
 H                    -0.50741  -1.87511  -1.43557 
 C                     3.5684   -0.19304  -1.25557 
 C                     2.72419   0.00035  -0.00044 
 C                     3.56988   0.19449   1.25357 
 C                     1.71542   1.14556  -0.15531 
 O                     1.31862   1.32123  -1.3968 
 O                     1.26319   1.75676   0.78472 
 C                     1.71643  -1.14557   0.15573 
 O                     1.32034  -1.32058   1.39751 
 O                     1.26431  -1.75787  -0.78364 
 H                     4.12543   0.71371  -1.4752 
 H                     2.93346  -0.43229  -2.10362 
 H                     4.26931  -1.00972  -1.10097 
 H                     4.12877  -0.71144   1.47185 
 H                     2.93578   0.43219   2.10266 
 H                     4.2692    1.01243   1.0984 
 H                     0.50747   1.87597  -1.43468 
 H                     0.50952  -1.87567   1.43636 
 
 Add virtual bond connecting atoms O23        and H16        Dist= 3.58D+00.
 Add virtual bond connecting atoms O26        and H17        Dist= 3.57D+00.
 Add virtual bond connecting atoms H33        and O6         Dist= 3.57D+00.
 Add virtual bond connecting atoms H34        and O9         Dist= 3.58D+00.

 GradGradGradGradGradGradGradGradGradGradGradGradGradGradGradGradGradGrad
 Initialization pass.
                           ----------------------------
                           !    Initial Parameters    !
                           ! (Angstroms and Degrees)  !
 --------------------------                            --------------------------
 ! Name  Definition              Value          Derivative Info.                !
 --------------------------------------------------------------------------------
 ! R1    R(1,2)                  1.5249         estimate D2E/DX2                !
 ! R2    R(1,10)                 1.0866         estimate D2E/DX2                !
 ! R3    R(1,11)                 1.0861         estimate D2E/DX2                !
 ! R4    R(1,12)                 1.0873         estimate D2E/DX2                !
 ! R5    R(2,3)                  1.5249         estimate D2E/DX2                !
 ! R6    R(2,4)                  1.534          estimate D2E/DX2                !
 ! R7    R(2,7)                  1.534          estimate D2E/DX2                !
 ! R8    R(3,13)                 1.0866         estimate D2E/DX2                !
 ! R9    R(3,14)                 1.0861         estimate D2E/DX2                !
 ! R10   R(3,15)                 1.0873         estimate D2E/DX2                !
 ! R11   R(4,5)                  1.3151         estimate D2E/DX2                !
 ! R12   R(4,6)                  1.209          estimate D2E/DX2                !
 ! R13   R(5,16)                 0.9834         estimate D2E/DX2                !
 ! R14   R(6,33)                 1.8916         estimate D2E/DX2                !
 ! R15   R(7,8)                  1.3151         estimate D2E/DX2                !
 ! R16   R(7,9)                  1.209          estimate D2E/DX2                !
 ! R17   R(8,17)                 0.9834         estimate D2E/DX2                !
 ! R18   R(9,34)                 1.8928         estimate D2E/DX2                !
 ! R19   R(16,23)                1.8922         estimate D2E/DX2                !
 ! R20   R(17,26)                1.8915         estimate D2E/DX2                !
 ! R21   R(18,19)                1.5249         estimate D2E/DX2                !
 ! R22   R(18,27)                1.0866         estimate D2E/DX2                !
 ! R23   R(18,28)                1.0861         estimate D2E/DX2                !
 ! R24   R(18,29)                1.0873         estimate D2E/DX2                !
 ! R25   R(19,20)                1.5249         estimate D2E/DX2                !
 ! R26   R(19,21)                1.534          estimate D2E/DX2                !
 ! R27   R(19,24)                1.534          estimate D2E/DX2                !
 ! R28   R(20,30)                1.0866         estimate D2E/DX2                !
 ! R29   R(20,31)                1.0861         estimate D2E/DX2                !
 ! R30   R(20,32)                1.0873         estimate D2E/DX2                !
 ! R31   R(21,22)                1.3151         estimate D2E/DX2                !
 ! R32   R(21,23)                1.209          estimate D2E/DX2                !
 ! R33   R(22,33)                0.9834         estimate D2E/DX2                !
 ! R34   R(24,25)                1.3151         estimate D2E/DX2                !
 ! R35   R(24,26)                1.209          estimate D2E/DX2                !
 ! R36   R(25,34)                0.9834         estimate D2E/DX2                !
 ! A1    A(2,1,10)             110.1391         estimate D2E/DX2                !
 ! A2    A(2,1,11)             110.3027         estimate D2E/DX2                !
 ! A3    A(2,1,12)             109.5789         estimate D2E/DX2                !
 ! A4    A(10,1,11)            109.01           estimate D2E/DX2                !
 ! A5    A(10,1,12)            108.9684         estimate D2E/DX2                !
 ! A6    A(11,1,12)            108.8109         estimate D2E/DX2                !
 ! A7    A(1,2,3)              112.7022         estimate D2E/DX2                !
 ! A8    A(1,2,4)              112.0657         estimate D2E/DX2                !
 ! A9    A(1,2,7)              110.6568         estimate D2E/DX2                !
 ! A10   A(3,2,4)              110.6553         estimate D2E/DX2                !
 ! A11   A(3,2,7)              112.0686         estimate D2E/DX2                !
 ! A12   A(4,2,7)               97.8077         estimate D2E/DX2                !
 ! A13   A(2,3,13)             110.1391         estimate D2E/DX2                !
 ! A14   A(2,3,14)             110.3047         estimate D2E/DX2                !
 ! A15   A(2,3,15)             109.5795         estimate D2E/DX2                !
 ! A16   A(13,3,14)            109.0092         estimate D2E/DX2                !
 ! A17   A(13,3,15)            108.9693         estimate D2E/DX2                !
 ! A18   A(14,3,15)            108.8082         estimate D2E/DX2                !
 ! A19   A(2,4,5)              113.1577         estimate D2E/DX2                !
 ! A20   A(2,4,6)              123.0216         estimate D2E/DX2                !
 ! A21   A(5,4,6)              123.6191         estimate D2E/DX2                !
 ! A22   A(4,5,16)             111.1569         estimate D2E/DX2                !
 ! A23   A(4,6,33)             130.4954         estimate D2E/DX2                !
 ! A24   A(2,7,8)              113.1613         estimate D2E/DX2                !
 ! A25   A(2,7,9)              123.0229         estimate D2E/DX2                !
 ! A26   A(8,7,9)              123.6149         estimate D2E/DX2                !
 ! A27   A(7,8,17)             111.1463         estimate D2E/DX2                !
 ! A28   A(7,9,34)             130.5286         estimate D2E/DX2                !
 ! A29   A(5,16,23)            136.3481         estimate D2E/DX2                !
 ! A30   A(8,17,26)            136.4012         estimate D2E/DX2                !
 ! A31   A(19,18,27)           110.141          estimate D2E/DX2                !
 ! A32   A(19,18,28)           110.3023         estimate D2E/DX2                !
 ! A33   A(19,18,29)           109.5792         estimate D2E/DX2                !
 ! A34   A(27,18,28)           109.0074         estimate D2E/DX2                !
 ! A35   A(27,18,29)           108.9699         estimate D2E/DX2                !
 ! A36   A(28,18,29)           108.8102         estimate D2E/DX2                !
 ! A37   A(18,19,20)           112.7036         estimate D2E/DX2                !
 ! A38   A(18,19,21)           112.0638         estimate D2E/DX2                !
 ! A39   A(18,19,24)           110.6557         estimate D2E/DX2                !
 ! A40   A(20,19,21)           110.6513         estimate D2E/DX2                !
 ! A41   A(20,19,24)           112.0684         estimate D2E/DX2                !
 ! A42   A(21,19,24)            97.8139         estimate D2E/DX2                !
 ! A43   A(19,20,30)           110.1392         estimate D2E/DX2                !
 ! A44   A(19,20,31)           110.3023         estimate D2E/DX2                !
 ! A45   A(19,20,32)           109.5792         estimate D2E/DX2                !
 ! A46   A(30,20,31)           109.0094         estimate D2E/DX2                !
 ! A47   A(30,20,32)           108.969          estimate D2E/DX2                !
 ! A48   A(31,20,32)           108.8109         estimate D2E/DX2                !
 ! A49   A(19,21,22)           113.1687         estimate D2E/DX2                !
 ! A50   A(19,21,23)           123.0172         estimate D2E/DX2                !
 ! A51   A(22,21,23)           123.6133         estimate D2E/DX2                !
 ! A52   A(21,22,33)           111.1356         estimate D2E/DX2                !
 ! A53   A(16,23,21)           130.5318         estimate D2E/DX2                !
 ! A54   A(19,24,25)           113.1665         estimate D2E/DX2                !
 ! A55   A(19,24,26)           123.0175         estimate D2E/DX2                !
 ! A56   A(25,24,26)           123.6152         estimate D2E/DX2                !
 ! A57   A(24,25,34)           111.1464         estimate D2E/DX2                !
 ! A58   A(17,26,24)           130.5011         estimate D2E/DX2                !
 ! A59   A(6,33,22)            136.4045         estimate D2E/DX2                !
 ! A60   A(9,34,25)            136.3297         estimate D2E/DX2                !
 ! D1    D(10,1,2,3)           -65.5894         estimate D2E/DX2                !
 ! D2    D(10,1,2,4)            60.0143         estimate D2E/DX2                !
 ! D3    D(10,1,2,7)           168.0422         estimate D2E/DX2                !
 ! D4    D(11,1,2,3)           174.0392         estimate D2E/DX2                !
 ! D5    D(11,1,2,4)           -60.3571         estimate D2E/DX2                !
 ! D6    D(11,1,2,7)            47.6708         estimate D2E/DX2                !
 ! D7    D(12,1,2,3)            54.2712         estimate D2E/DX2                !
 ! D8    D(12,1,2,4)           179.8749         estimate D2E/DX2                !
 ! D9    D(12,1,2,7)           -72.0971         estimate D2E/DX2                !
 ! D10   D(1,2,3,13)           -65.555          estimate D2E/DX2                !
 ! D11   D(1,2,3,14)           174.0734         estimate D2E/DX2                !
 ! D12   D(1,2,3,15)            54.3071         estimate D2E/DX2                !
 ! D13   D(4,2,3,13)           168.0816         estimate D2E/DX2                !
 ! D14   D(4,2,3,14)            47.71           estimate D2E/DX2                !
 ! D15   D(4,2,3,15)           -72.0563         estimate D2E/DX2                !
 ! D16   D(7,2,3,13)            60.0529         estimate D2E/DX2                !
 ! D17   D(7,2,3,14)           -60.3187         estimate D2E/DX2                !
 ! D18   D(7,2,3,15)           179.915          estimate D2E/DX2                !
 ! D19   D(1,2,4,5)             29.6954         estimate D2E/DX2                !
 ! D20   D(1,2,4,6)           -155.2984         estimate D2E/DX2                !
 ! D21   D(3,2,4,5)            156.4125         estimate D2E/DX2                !
 ! D22   D(3,2,4,6)            -28.5814         estimate D2E/DX2                !
 ! D23   D(7,2,4,5)            -86.3954         estimate D2E/DX2                !
 ! D24   D(7,2,4,6)             88.6107         estimate D2E/DX2                !
 ! D25   D(1,2,7,8)            156.3367         estimate D2E/DX2                !
 ! D26   D(1,2,7,9)            -28.6489         estimate D2E/DX2                !
 ! D27   D(3,2,7,8)             29.6162         estimate D2E/DX2                !
 ! D28   D(3,2,7,9)           -155.3693         estimate D2E/DX2                !
 ! D29   D(4,2,7,8)            -86.474          estimate D2E/DX2                !
 ! D30   D(4,2,7,9)             88.5405         estimate D2E/DX2                !
 ! D31   D(2,4,5,16)           164.2821         estimate D2E/DX2                !
 ! D32   D(6,4,5,16)           -10.6896         estimate D2E/DX2                !
 ! D33   D(2,4,6,33)          -115.3367         estimate D2E/DX2                !
 ! D34   D(5,4,6,33)            59.148          estimate D2E/DX2                !
 ! D35   D(4,5,16,23)          -60.9393         estimate D2E/DX2                !
 ! D36   D(4,6,33,22)           24.3443         estimate D2E/DX2                !
 ! D37   D(2,7,8,17)           164.3129         estimate D2E/DX2                !
 ! D38   D(9,7,8,17)           -10.6676         estimate D2E/DX2                !
 ! D39   D(2,7,9,34)          -115.4304         estimate D2E/DX2                !
 ! D40   D(8,7,9,34)            59.0639         estimate D2E/DX2                !
 ! D41   D(7,8,17,26)          -60.9629         estimate D2E/DX2                !
 ! D42   D(7,9,34,25)           24.3892         estimate D2E/DX2                !
 ! D43   D(5,16,23,21)          24.3374         estimate D2E/DX2                !
 ! D44   D(8,17,26,24)          24.3219         estimate D2E/DX2                !
 ! D45   D(27,18,19,20)        -65.6417         estimate D2E/DX2                !
 ! D46   D(27,18,19,21)         59.9561         estimate D2E/DX2                !
 ! D47   D(27,18,19,24)        167.9899         estimate D2E/DX2                !
 ! D48   D(28,18,19,20)        173.9892         estimate D2E/DX2                !
 ! D49   D(28,18,19,21)        -60.413          estimate D2E/DX2                !
 ! D50   D(28,18,19,24)         47.6208         estimate D2E/DX2                !
 ! D51   D(29,18,19,20)         54.2221         estimate D2E/DX2                !
 ! D52   D(29,18,19,21)        179.8199         estimate D2E/DX2                !
 ! D53   D(29,18,19,24)        -72.1463         estimate D2E/DX2                !
 ! D54   D(18,19,20,30)        -65.5835         estimate D2E/DX2                !
 ! D55   D(18,19,20,31)        174.046          estimate D2E/DX2                !
 ! D56   D(18,19,20,32)         54.2781         estimate D2E/DX2                !
 ! D57   D(21,19,20,30)        168.0578         estimate D2E/DX2                !
 ! D58   D(21,19,20,31)         47.6874         estimate D2E/DX2                !
 ! D59   D(21,19,20,32)        -72.0806         estimate D2E/DX2                !
 ! D60   D(24,19,20,30)         60.0239         estimate D2E/DX2                !
 ! D61   D(24,19,20,31)        -60.3465         estimate D2E/DX2                !
 ! D62   D(24,19,20,32)        179.8856         estimate D2E/DX2                !
 ! D63   D(18,19,21,22)         29.6055         estimate D2E/DX2                !
 ! D64   D(18,19,21,23)       -155.3792         estimate D2E/DX2                !
 ! D65   D(20,19,21,22)        156.3199         estimate D2E/DX2                !
 ! D66   D(20,19,21,23)        -28.6648         estimate D2E/DX2                !
 ! D67   D(24,19,21,22)        -86.4866         estimate D2E/DX2                !
 ! D68   D(24,19,21,23)         88.5287         estimate D2E/DX2                !
 ! D69   D(18,19,24,25)        156.3896         estimate D2E/DX2                !
 ! D70   D(18,19,24,26)        -28.594          estimate D2E/DX2                !
 ! D71   D(20,19,24,25)         29.6682         estimate D2E/DX2                !
 ! D72   D(20,19,24,26)       -155.3154         estimate D2E/DX2                !
 ! D73   D(21,19,24,25)        -86.4205         estimate D2E/DX2                !
 ! D74   D(21,19,24,26)         88.5959         estimate D2E/DX2                !
 ! D75   D(19,21,22,33)        164.3112         estimate D2E/DX2                !
 ! D76   D(23,21,22,33)        -10.6698         estimate D2E/DX2                !
 ! D77   D(19,21,23,16)       -115.403          estimate D2E/DX2                !
 ! D78   D(22,21,23,16)         59.0927         estimate D2E/DX2                !
 ! D79   D(21,22,33,6)         -60.9715         estimate D2E/DX2                !
 ! D80   D(19,24,25,34)        164.2923         estimate D2E/DX2                !
 ! D81   D(26,24,25,34)        -10.6896         estimate D2E/DX2                !
 ! D82   D(19,24,26,17)       -115.3196         estimate D2E/DX2                !
 ! D83   D(25,24,26,17)         59.177          estimate D2E/DX2                !
 ! D84   D(24,25,34,9)         -60.9618         estimate D2E/DX2                !
 --------------------------------------------------------------------------------
 Number of steps in this run=    190 maximum allowed number of steps=    204.
 GradGradGradGradGradGradGradGradGradGradGradGradGradGradGradGradGradGrad

                    Distance matrix (angstroms):
                    1          2          3          4          5
     1  C    0.000000
     2  C    1.524938   0.000000
     3  C    2.538854   1.524925   0.000000
     4  C    2.536947   1.533985   2.515710   0.000000
     5  O    2.715894   2.381033   3.655648   1.315107   0.000000
     6  O    3.643772   2.415813   2.824935   1.209006   2.225273
     7  C    2.515754   1.533998   2.536990   2.312055   2.940458
     8  O    3.655493   2.381117   2.715619   2.941381   3.844761
     9  O    2.825299   2.415838   3.644016   3.004139   3.137855
    10  H    1.086610   2.155732   2.832253   2.781970   2.874684
    11  H    1.086079   2.157392   3.473998   2.786921   2.485678
    12  H    1.087270   2.149141   2.735862   3.473044   3.771919
    13  H    2.831974   2.155721   1.086611   3.452674   4.500879
    14  H    3.474042   2.157406   1.086079   2.664221   3.956476
    15  H    2.736136   2.149138   1.087270   2.847894   3.877138
    16  H    3.699208   3.238580   4.408563   1.905289   0.983399
    17  H    4.408426   3.238656   3.698959   3.622017   4.346803
    18  C    7.566500   6.419506   7.147346   5.631475   5.764155
    19  C    6.420824   5.448447   6.419506   4.588521   4.477856
    20  C    7.150462   6.420804   7.566467   5.482098   5.019717
    21  C    5.631754   4.587790   5.480520   3.445920   3.414200
    22  O    5.763742   4.476742   5.017492   3.413773   3.843572
    23  O    5.233310   4.427584   5.472718   3.105910   2.690755
    24  C    5.482277   4.588652   5.631623   4.127114   4.103614
    25  O    5.020310   4.478409   5.764688   4.104153   3.733827
    26  O    5.473913   4.428438   5.233240   4.265799   4.572549
    27  H    8.215259   7.042942   7.714599   6.080673   6.186664
    28  H    7.322674   6.051431   6.586837   5.405272   5.781161
    29  H    8.225709   7.151233   7.931137   6.484889   6.550603
    30  H    7.719157   7.045379   8.216144   6.272566   5.815442
    31  H    6.590819   6.053601   7.323878   5.093166   4.404047
    32  H    7.933093   7.151333   8.224369   6.060762   5.605646
    33  H    5.304697   4.002700   4.413132   2.830186   3.416608
    34  H    4.416030   4.004832   5.306410   3.964952   3.682084
                    6          7          8          9         10
     6  O    0.000000
     7  C    3.004752   0.000000
     8  O    3.139812   1.315137   0.000000
     9  O    3.848854   1.209006   2.225256   0.000000
    10  H    3.792843   3.452650   4.500864   3.844052   0.000000
    11  H    3.990133   2.663961   3.956228   2.507898   1.768930
    12  H    4.499508   2.848281   3.876789   3.112938   1.769441
    13  H    3.844002   2.782325   2.874370   3.793659   3.272569
    14  H    2.508085   2.786698   2.485277   3.989927   3.780761
    15  H    3.111634   3.473083   3.771661   4.499771   2.594469
    16  H    2.347980   3.621072   4.346938   3.766127   3.802028
    17  H    3.768324   1.905216   0.983424   2.347748   5.315783
    18  C    5.233217   5.480519   5.017295   5.472857   8.215996
    19  C    4.428437   4.587762   4.476510   4.427720   7.045219
    20  C    5.473814   5.631738   5.763545   5.233504   7.718937
    21  C    3.106193   4.125512   4.102233   4.263959   6.081966
    22  O    2.690665   4.102517   3.732672   4.571560   6.186731
    23  O    2.974225   4.263768   4.571127   4.327954   5.535101
    24  C    4.265961   3.446000   3.413706   3.106099   6.272608
    25  O    4.573206   3.414565   3.843746   2.691171   5.815951
    26  O    4.330971   3.106187   2.690546   2.974314   6.345792
    27  H    5.533556   6.270068   5.812106   6.344152   8.764505
    28  H    4.915740   5.090735   4.400827   5.263740   7.997949
    29  H    6.195520   6.060493   5.604328   5.892547   8.950325
    30  H    6.345812   6.082142   6.186747   5.535482   8.379068
    31  H    5.265570   5.405858   5.781020   4.915769   7.097975
    32  H    5.892025   6.484254   6.549293   6.195048   8.411537
    33  H    1.891575   3.963127   3.681371   4.610671   5.594623
    34  H    4.612733   2.831683   3.417528   1.892782   5.310931
                   11         12         13         14         15
    11  H    0.000000
    12  H    1.767272   0.000000
    13  H    3.780372   2.593866   0.000000
    14  H    4.294226   3.757921   1.768922   0.000000
    15  H    3.758217   2.988630   1.769452   1.767243   0.000000
    16  H    3.414079   4.752857   5.315814   4.527463   4.617279
    17  H    4.527195   4.617015   3.801773   3.413664   4.752617
    18  C    7.323955   8.224580   7.715845   6.586625   7.930143
    19  C    6.053670   7.151520   7.043954   6.051348   7.150347
    20  C    6.590888   7.933284   8.216091   7.322658   8.224825
    21  C    5.405961   6.484386   6.270911   5.090995   6.059422
    22  O    5.781296   6.549612   5.813336   4.401289   5.603247
    23  O    4.915673   6.194943   6.344543   5.264140   5.891387
    24  C    5.093339   6.061123   6.081845   5.405019   6.484452
    25  O    4.404618   5.606349   6.187872   5.781341   6.550810
    26  O    5.265655   5.892331   5.534844   4.915050   6.195029
    27  H    7.998589   8.948530   8.374591   7.092421   8.407263
    28  H    7.220881   7.903798   7.093803   5.930170   7.413065
    29  H    7.906341   8.817437   8.409703   7.413690   8.773506
    30  H    7.098245   8.411988   8.765602   7.997914   8.949733
    31  H    5.935084   7.417035   7.999157   7.220937   7.905516
    32  H    7.416941   8.775515   8.949201   7.903758   8.816203
    33  H    5.449748   6.130014   5.308320   3.791274   4.864782
    34  H    3.794239   4.868148   5.596587   5.450704   6.131930
                   16         17         18         19         20
    16  H    0.000000
    17  H    4.723488   0.000000
    18  C    5.305722   4.412932   0.000000
    19  C    4.004060   4.002519   1.524934   0.000000
    20  C    4.415121   5.304622   2.538883   1.524938   0.000000
    21  C    2.831172   3.962888   2.536911   1.533979   2.515654
    22  O    3.417300   3.681367   2.715590   2.381201   3.655426
    23  O    1.892187   4.610332   3.643965   2.415776   2.825133
    24  C    3.964196   2.830181   2.515721   1.533982   2.536985
    25  O    3.681819   3.416797   3.655665   2.381156   2.715987
    26  O    4.611935   1.891493   2.824932   2.415776   3.643840
    27  H    5.595317   5.307238   1.086609   2.155751   2.832733
    28  H    5.450591   3.790462   1.086086   2.157389   3.473988
    29  H    6.131305   4.865998   1.087269   2.149142   2.735533
    30  H    5.310066   5.594766   2.832236   2.155726   1.086602
    31  H    3.793335   5.449611   3.474019   2.157384   1.086074
    32  H    4.867163   6.129835   2.735952   2.149145   1.087269
    33  H    3.046494   3.885946   3.698942   3.238647   4.408228
    34  H    3.885885   3.046660   4.408449   3.238609   3.699292
                   21         22         23         24         25
    21  C    0.000000
    22  O    1.315136   0.000000
    23  O    1.209027   2.225257   0.000000
    24  C    2.312149   2.941713   3.004094   0.000000
    25  O    2.940951   3.845422   3.138280   1.315113   0.000000
    26  O    3.004694   3.140021   3.848680   1.209020   2.225250
    27  H    2.781496   2.872871   3.793101   3.452555   4.501031
    28  H    2.787315   2.486388   3.990522   2.663567   3.955893
    29  H    3.473017   3.771923   4.499558   2.848674   3.877552
    30  H    3.452588   4.500866   3.843923   2.782092   2.874691
    31  H    2.663946   3.956230   2.507790   2.786878   2.485777
    32  H    2.848032   3.876498   3.112641   3.473072   3.772024
    33  H    1.905109   0.983438   2.347567   3.622253   4.347414
    34  H    3.621526   4.347592   3.766588   1.905172   0.983392
                   26         27         28         29         30
    26  O    0.000000
    27  H    3.843565   0.000000
    28  H    2.507107   1.768907   0.000000
    29  H    3.112953   1.769456   1.767270   0.000000
    30  H    3.793072   3.273554   3.780302   2.593860   0.000000
    31  H    3.990099   3.780951   4.294198   3.757746   1.768913
    32  H    4.499554   2.594859   3.758237   2.987694   1.769441
    33  H    3.768480   3.800281   3.414819   4.752900   5.315682
    34  H    2.347756   5.315716   4.526618   4.617780   3.802058
                   31         32         33         34
    31  H    0.000000
    32  H    1.767267   0.000000
    33  H    4.527028   4.616581   0.000000
    34  H    3.414219   4.752947   4.724162   0.000000
 Framework group  C1[X(C10H16O8)]
 Deg. of freedom    96
                         Standard orientation:                         
 ---------------------------------------------------------------------
 Center     Atomic      Atomic             Coordinates (Angstroms)
 Number     Number       Type             X           Y           Z
 ---------------------------------------------------------------------
      1          6           0       -3.569982    0.194644   -1.253558
      2          6           0       -2.724260    0.000254    0.000398
      3          6           0       -3.568475   -0.193719    1.255416
      4          6           0       -1.716364   -1.145494   -0.156181
      5          8           0       -1.319977   -1.319522   -1.397994
      6          8           0       -1.264323   -1.758282    0.782885
      7          6           0       -1.715497    1.145434    0.155663
      8          8           0       -1.318581    1.320367    1.397211
      9          8           0       -1.263382    1.757166   -0.784056
     10          1           0       -4.128614   -0.711361   -1.472211
     11          1           0       -2.935925    0.432880   -2.102547
     12          1           0       -4.269539    1.012322   -1.098073
     13          1           0       -4.126848    0.712357    1.474436
     14          1           0       -2.933434   -0.431677    2.103747
     15          1           0       -4.268203   -1.011467    1.101060
     16          1           0       -0.508995   -1.874356   -1.437254
     17          1           0       -0.507456    1.875100    1.435535
     18          6           0        3.568394    0.193131    1.255529
     19          6           0        2.724187   -0.000280    0.000407
     20          6           0        3.569889   -0.194394   -1.253604
     21          6           0        1.715452   -1.145513    0.155279
     22          8           0        1.318657   -1.321190    1.396760
     23          8           0        1.263229   -1.756724   -0.784754
     24          6           0        1.716402    1.145618   -0.155765
     25          8           0        1.320310    1.320618   -1.397541
     26          8           0        1.264264    1.757903    0.783601
     27          1           0        4.125449   -0.713605    1.475160
     28          1           0        2.933451    0.432368    2.103584
     29          1           0        4.269288    1.009832    1.100929
     30          1           0        4.128754    0.711546   -1.471888
     31          1           0        2.935787   -0.432116   -2.102697
     32          1           0        4.269224   -1.012322   -1.098435
     33          1           0        0.507516   -1.875954    1.434649
     34          1           0        0.509478    1.875687   -1.436395
 ---------------------------------------------------------------------
 Rotational constants (GHZ):           0.7478424           0.3152501           0.2942606
   284 basis functions,   514 primitive gaussians,   302 cartesian basis functions
    70 alpha electrons       70 beta electrons
       nuclear repulsion energy      1572.2199533525 Hartrees.
 NAtoms=   34 NActive=   34 NUniq=   34 SFac= 1.00D+00 NAtFMM=   60 NAOKFM=F Big=F
 Nuclear repulsion after empirical dispersion term =     1572.1933084319 Hartrees.
   1 Symmetry operations used in ECPInt.
 ECPInt:  NShTT=    9870 NPrTT=   39622 LenC2=    9486 LenP2D=   26336.
 LDataN:  DoStor=T MaxTD1= 4 Len=   56
 ExpMin= 1.22D-01 ExpMax= 2.27D+03 ExpMxC= 3.41D+02 IAcc=3 IRadAn=         5 AccDes= 0.00D+00
 Harris functional with IExCor= 4639 and IRadAn=       5 diagonalized for initial guess.
 HarFok:  IExCor= 4639 AccDes= 0.00D+00 IRadAn=         5 IDoV= 1 UseB2=F ITyADJ=14
 ICtDFT=  3500011 ScaDFX=  1.000000  1.000000  1.000000  1.000000
 FoFCou: FMM=F IPFlag=           0 FMFlag=      100000 FMFlg1=           0
         NFxFlg=           0 DoJE=T BraDBF=F KetDBF=T FulRan=T
         wScrn=  0.000000 ICntrl=       500 IOpCl=  0 I1Cent=   200000004 NGrid=           0
         NMat0=    1 NMatS0=      1 NMatT0=    0 NMatD0=    1 NMtDS0=    0 NMtDT0=    0
 Petite list used in FoFCou.
     Accept linear search using points  2 and  3.
     Minimum is close to point  2 DX=  4.47D-02 DF= -1.23D-05 DXR=  6.93D-02 DFR=  4.83D-03 which will be used.
     Minimum is close to point  2 DX=  1.97D-02 DF= -4.59D-07 DXR=  2.74D-02 DFR=  7.51D-04 which will be used.
     Accept linear search using points  1 and  2.
     Minimum is close to point  2 DX=  2.52D-05 DF= -1.14D-13 DXR=  2.52D-05 DFR=  1.56D-09 which will be used.
 SCF Done:  E(RwB97XD) =  -991.505292381     a.u. after    8 cycles
            Convg  =    0.1627D-08                    37 Fock formations.
              S**2 =  0.0000                  -V/T =  2.0080

 **********************************************************************

            Population analysis using the SCF Density.

 **********************************************************************

 Orbital symmetries:
       Occupied  (A) (A) (A) (A) (A) (A) (A) (A) (A) (A) (A) (A)
                 (A) (A) (A) (A) (A) (A) (A) (A) (A) (A) (A) (A)
                 (A) (A) (A) (A) (A) (A) (A) (A) (A) (A) (A) (A)
                 (A) (A) (A) (A) (A) (A) (A) (A) (A) (A) (A) (A)
                 (A) (A) (A) (A) (A) (A) (A) (A) (A) (A) (A) (A)
                 (A) (A) (A) (A) (A) (A) (A) (A) (A) (A)
       Virtual   (A) (A) (A) (A) (A) (A) (A) (A) (A) (A) (A) (A)
                 (A) (A) (A) (A) (A) (A) (A) (A) (A) (A) (A) (A)
                 (A) (A) (A) (A) (A) (A) (A) (A) (A) (A) (A) (A)
                 (A) (A) (A) (A) (A) (A) (A) (A) (A) (A) (A) (A)
                 (A) (A) (A) (A) (A) (A) (A) (A) (A) (A) (A) (A)
                 (A) (A) (A) (A) (A) (A) (A) (A) (A) (A) (A) (A)
                 (A) (A) (A) (A) (A) (A) (A) (A) (A) (A) (A) (A)
                 (A) (A) (A) (A) (A) (A) (A) (A) (A) (A) (A) (A)
                 (A) (A) (A) (A) (A) (A) (A) (A) (A) (A) (A) (A)
                 (A) (A) (A) (A) (A) (A) (A) (A) (A) (A) (A) (A)
                 (A) (A) (A) (A) (A) (A) (A) (A) (A) (A) (A) (A)
                 (A) (A) (A) (A) (A) (A) (A) (A) (A) (A) (A) (A)
                 (A) (A) (A) (A) (A) (A) (A) (A) (A) (A) (A) (A)
                 (A) (A) (A) (A) (A) (A) (A) (A) (A) (A) (A) (A)
                 (A) (A) (A) (A) (A) (A) (A) (A) (A) (A) (A) (A)
                 (A) (A) (A) (A) (A) (A) (A) (A) (A) (A) (A) (A)
                 (A) (A) (A) (A) (A) (A) (A) (A) (A) (A) (A) (A)
                 (A) (A) (A) (A) (A) (A) (A) (A) (A) (A)
 The electronic state is 1-A.
 Alpha  occ. eigenvalues --  -19.30842 -19.30837 -19.30834 -19.30831 -19.26295
 Alpha  occ. eigenvalues --  -19.26293 -19.26290 -19.26288 -10.44976 -10.44971
 Alpha  occ. eigenvalues --  -10.44969 -10.44968 -10.34269 -10.34267 -10.29012
 Alpha  occ. eigenvalues --  -10.29011 -10.29009 -10.29007  -1.22937  -1.21980
 Alpha  occ. eigenvalues --   -1.21905  -1.20986  -1.12874  -1.12497  -1.12058
 Alpha  occ. eigenvalues --   -1.11641  -0.93597  -0.93253  -0.79632  -0.79597
 Alpha  occ. eigenvalues --   -0.78551  -0.77876  -0.75967  -0.74324  -0.68369
 Alpha  occ. eigenvalues --   -0.68283  -0.62940  -0.62488  -0.60463  -0.60075
 Alpha  occ. eigenvalues --   -0.60002  -0.58607  -0.58165  -0.58127  -0.56665
 Alpha  occ. eigenvalues --   -0.54061  -0.53773  -0.52489  -0.52340  -0.50777
 Alpha  occ. eigenvalues --   -0.50456  -0.50274  -0.49982  -0.49182  -0.48746
 Alpha  occ. eigenvalues --   -0.48339  -0.45911  -0.45910  -0.45862  -0.45512
 Alpha  occ. eigenvalues --   -0.43767  -0.43746  -0.43417  -0.42404  -0.41715
 Alpha  occ. eigenvalues --   -0.40995  -0.38604  -0.37869  -0.37789  -0.35873
 Alpha virt. eigenvalues --    0.02539   0.04446   0.11543   0.11949   0.13493
 Alpha virt. eigenvalues --    0.15084   0.17360   0.17659   0.17998   0.18821
 Alpha virt. eigenvalues --    0.19899   0.20254   0.20816   0.21253   0.21484
 Alpha virt. eigenvalues --    0.22431   0.23506   0.24349   0.24577   0.24952
 Alpha virt. eigenvalues --    0.25096   0.27464   0.29100   0.29687   0.30192
 Alpha virt. eigenvalues --    0.30691   0.32510   0.33883   0.36376   0.37744
 Alpha virt. eigenvalues --    0.39971   0.41476   0.41697   0.41797   0.42185
 Alpha virt. eigenvalues --    0.43404   0.48586   0.48879   0.50373   0.50581
 Alpha virt. eigenvalues --    0.50678   0.55369   0.55383   0.56104   0.58951
 Alpha virt. eigenvalues --    0.59319   0.59523   0.60073   0.64197   0.64465
 Alpha virt. eigenvalues --    0.64947   0.67125   0.67294   0.69639   0.69664
 Alpha virt. eigenvalues --    0.69899   0.70214   0.71940   0.72066   0.72115
 Alpha virt. eigenvalues --    0.72169   0.74614   0.76009   0.76077   0.76636
 Alpha virt. eigenvalues --    0.76935   0.77436   0.77626   0.77756   0.78365
 Alpha virt. eigenvalues --    0.80437   0.81004   0.81582   0.81787   0.82089
 Alpha virt. eigenvalues --    0.82404   0.82530   0.84109   0.85167   0.86987
 Alpha virt. eigenvalues --    0.89817   0.90813   0.92545   0.92973   0.94214
 Alpha virt. eigenvalues --    0.96254   0.97483   0.97539   1.01488   1.01531
 Alpha virt. eigenvalues --    1.03363   1.03982   1.05838   1.06315   1.12852
 Alpha virt. eigenvalues --    1.13157   1.13289   1.14535   1.15499   1.16706
 Alpha virt. eigenvalues --    1.17855   1.20109   1.20273   1.22219   1.23722
 Alpha virt. eigenvalues --    1.26390   1.26905   1.27674   1.32586   1.33750
 Alpha virt. eigenvalues --    1.34651   1.36358   1.36430   1.40610   1.48132
 Alpha virt. eigenvalues --    1.48790   1.49241   1.49699   1.50235   1.57005
 Alpha virt. eigenvalues --    1.61593   1.61685   1.63046   1.64376   1.64652
 Alpha virt. eigenvalues --    1.65523   1.66116   1.66216   1.71301   1.71391
 Alpha virt. eigenvalues --    1.82626   1.84202   1.88582   1.89928   1.90150
 Alpha virt. eigenvalues --    1.92097   1.93273   1.93763   1.96781   1.96834
 Alpha virt. eigenvalues --    1.97287   2.00477   2.00571   2.03775   2.04040
 Alpha virt. eigenvalues --    2.05827   2.08476   2.08822   2.11990   2.12105
 Alpha virt. eigenvalues --    2.14809   2.15638   2.18576   2.20399   2.20880
 Alpha virt. eigenvalues --    2.23500   2.25235   2.25424   2.26098   2.26135
 Alpha virt. eigenvalues --    2.28107   2.28727   2.35339   2.37440   2.49288
 Alpha virt. eigenvalues --    2.49710   2.52340   2.53608   2.61997   2.62972
 Alpha virt. eigenvalues --    2.64992   2.65309   2.65598   2.66520   2.66774
 Alpha virt. eigenvalues --    2.66911   2.68577   2.69271   2.72109   2.73037
 Alpha virt. eigenvalues --    2.73837   2.74912   2.77154   2.77220   2.78896
 Alpha virt. eigenvalues --    2.80142   2.94711   2.96367   2.96806   2.99195
 Alpha virt. eigenvalues --    3.00801   3.02282   3.02728   3.04642   3.13697
 Alpha virt. eigenvalues --    3.16396   3.16818   3.17454   3.27152   3.27342
 Alpha virt. eigenvalues --    3.27543   3.27911   3.39049   3.39125   3.40400
 Alpha virt. eigenvalues --    3.40704   3.65732   3.66966   3.67029   3.69013
 Alpha virt. eigenvalues --    3.74825   3.75063   3.75351   3.75876
          Condensed to atoms (all electrons):
 Mulliken charges:
               1
     1  C   -0.212713
     2  C   -0.388283
     3  C   -0.212609
     4  C    0.268085
     5  O   -0.348602
     6  O   -0.280065
     7  C    0.268017
     8  O   -0.348645
     9  O   -0.280007
    10  H    0.121898
    11  H    0.153177
    12  H    0.120420
    13  H    0.121892
    14  H    0.153134
    15  H    0.120404
    16  H    0.371941
    17  H    0.371925
    18  C   -0.212599
    19  C   -0.388306
    20  C   -0.212700
    21  C    0.268041
    22  O   -0.348604
    23  O   -0.280085
    24  C    0.268115
    25  O   -0.348561
    26  O   -0.280095
    27  H    0.121904
    28  H    0.153127
    29  H    0.120409
    30  H    0.121907
    31  H    0.153174
    32  H    0.120425
    33  H    0.371932
    34  H    0.371946
 Sum of Mulliken charges =   0.00000
 Mulliken charges with hydrogens summed into heavy atoms:
               1
     1  C    0.182782
     2  C   -0.388283
     3  C    0.182822
     4  C    0.268085
     5  O    0.023339
     6  O   -0.280065
     7  C    0.268017
     8  O    0.023280
     9  O   -0.280007
    18  C    0.182841
    19  C   -0.388306
    20  C    0.182806
    21  C    0.268041
    22  O    0.023328
    23  O   -0.280085
    24  C    0.268115
    25  O    0.023385
    26  O   -0.280095
 Electronic spatial extent (au):  <R**2>=           4215.9861
 Charge=              0.0000 electrons
 Dipole moment (field-independent basis, Debye):
    X=              0.0014    Y=              0.0003    Z=             -0.0008  Tot=              0.0017
 Evaluate density.
 Using the total density.
 Monte-Carlo method of calculating molar volume:
 based on  0.001 e/bohr**3 density envelope.
 Number of points per bohr**3 =  100 CutOff= 1.00D-04
 Using the SCF density.
 There are      2014 points.  Will hold      2014 in memory.
 LenV=  1047873493 MDV=  1048576000.
 Box volume = 8176.787 fraction occupied=0.241
 Integrated density= 2.2855045262911858D+02 error= 8.8550452629118581D+01
 Molar volume = 1969.087 bohr**3/mol (175.719 cm**3/mol)
 Recommended a0 for SCRF calculation =  5.03 angstrom (  9.50 bohr)
   1 Symmetry operations used in ECPInt.
 ECPInt:  NShTT=    9870 NPrTT=   39622 LenC2=    9486 LenP2D=   26336.
 LDataN:  DoStor=T MaxTD1= 5 Len=  102
 Calling FoFJK, ICntrl=      2127 FMM=F ISym2X=0 I1Cent= 0 IOpClX= 0 NMat=1 NMatS=1 NMatT=0.

 GradGradGradGradGradGradGradGradGradGradGradGradGradGradGradGradGradGrad
 FormGI is forming the generalized inverse of G from B-inverse, IUseBI=4.
 Internal  Forces:  Max     0.010553985 RMS     0.003142092
 Step number   1 out of a maximum of  190
 All quantities printed in internal units (Hartrees-Bohrs-Radians)
 Mixed Optimization -- RFO/linear search
 Second derivative matrix not updated -- first step.
 ITU=  0
     Eigenvalues ---    0.00316   0.00436   0.00436   0.00436   0.00436
     Eigenvalues ---    0.00939   0.01284   0.01555   0.01651   0.01676
     Eigenvalues ---    0.01715   0.01863   0.02449   0.02634   0.03208
     Eigenvalues ---    0.03298   0.03623   0.04027   0.04028   0.04590
     Eigenvalues ---    0.04985   0.05076   0.05277   0.05712   0.05712
     Eigenvalues ---    0.05712   0.05712   0.05790   0.05790   0.05790
     Eigenvalues ---    0.05790   0.05834   0.06172   0.07097   0.07764
     Eigenvalues ---    0.08904   0.11743   0.11798   0.12904   0.13619
     Eigenvalues ---    0.14818   0.15449   0.16000   0.16000   0.16000
     Eigenvalues ---    0.16000   0.16000   0.16000   0.16000   0.16000
     Eigenvalues ---    0.16000   0.16000   0.16000   0.16000   0.16692
     Eigenvalues ---    0.18145   0.18713   0.19468   0.19715   0.20737
     Eigenvalues ---    0.22543   0.23062   0.24831   0.24964   0.27982
     Eigenvalues ---    0.28479   0.29037   0.29058   0.29896   0.29896
     Eigenvalues ---    0.29896   0.29897   0.35130   0.35130   0.35130
     Eigenvalues ---    0.35130   0.35207   0.35207   0.35207   0.35208
     Eigenvalues ---    0.35269   0.35270   0.35270   0.35270   0.46208
     Eigenvalues ---    0.48298   0.49337   0.49957   0.60552   0.60627
     Eigenvalues ---    0.61571   0.62989   0.93445   0.95258   0.96787
     Eigenvalues ---    0.98283
 Linear search not attempted -- first point.
 Iteration  1 RMS(Cart)=  0.03055149 RMS(Int)=  0.00051173
 Iteration  2 RMS(Cart)=  0.00067080 RMS(Int)=  0.00019644
 Iteration  3 RMS(Cart)=  0.00000049 RMS(Int)=  0.00019644
 Variable       Old X    -DE/DX   Delta X   Delta X   Delta X     New X
                                 (Linear)    (Quad)   (Total)
    R1        2.88172   0.00354   0.00000   0.01154   0.01154   2.89325
    R2        2.05340   0.01055   0.00000   0.02931   0.02931   2.08271
    R3        2.05239   0.00854   0.00000   0.02367   0.02367   2.07607
    R4        2.05464   0.01048   0.00000   0.02918   0.02918   2.08382
    R5        2.88169   0.00354   0.00000   0.01153   0.01153   2.89322
    R6        2.89881   0.00547   0.00000   0.01848   0.01849   2.91730
    R7        2.89884   0.00547   0.00000   0.01849   0.01849   2.91733
    R8        2.05340   0.01055   0.00000   0.02931   0.02931   2.08270
    R9        2.05239   0.00853   0.00000   0.02366   0.02366   2.07605
   R10        2.05464   0.01048   0.00000   0.02918   0.02918   2.08382
   R11        2.48519   0.00358   0.00000   0.00593   0.00596   2.49115
   R12        2.28469   0.00299   0.00000   0.00272   0.00269   2.28738
   R13        1.85835   0.00194   0.00000   0.00394   0.00394   1.86229
   R14        3.57456   0.00075   0.00000   0.01127   0.01126   3.58581
   R15        2.48525   0.00356   0.00000   0.00591   0.00595   2.49119
   R16        2.28469   0.00296   0.00000   0.00269   0.00267   2.28736
   R17        1.85840   0.00194   0.00000   0.00395   0.00394   1.86234
   R18        3.57684   0.00074   0.00000   0.01108   0.01107   3.58791
   R19        3.57572   0.00074   0.00000   0.01115   0.01114   3.58686
   R20        3.57440   0.00075   0.00000   0.01127   0.01126   3.58567
   R21        2.88171   0.00354   0.00000   0.01153   0.01153   2.89324
   R22        2.05339   0.01055   0.00000   0.02930   0.02930   2.08270
   R23        2.05241   0.00853   0.00000   0.02366   0.02366   2.07606
   R24        2.05464   0.01048   0.00000   0.02918   0.02918   2.08382
   R25        2.88171   0.00354   0.00000   0.01154   0.01154   2.89326
   R26        2.89880   0.00548   0.00000   0.01849   0.01850   2.91730
   R27        2.89881   0.00547   0.00000   0.01848   0.01848   2.91729
   R28        2.05338   0.01055   0.00000   0.02932   0.02932   2.08270
   R29        2.05238   0.00854   0.00000   0.02368   0.02368   2.07607
   R30        2.05464   0.01048   0.00000   0.02918   0.02918   2.08382
   R31        2.48525   0.00355   0.00000   0.00589   0.00592   2.49117
   R32        2.28473   0.00294   0.00000   0.00267   0.00265   2.28738
   R33        1.85843   0.00194   0.00000   0.00394   0.00393   1.86236
   R34        2.48520   0.00357   0.00000   0.00591   0.00595   2.49115
   R35        2.28472   0.00296   0.00000   0.00269   0.00267   2.28739
   R36        1.85834   0.00194   0.00000   0.00394   0.00393   1.86227
    A1        1.92229  -0.00007   0.00000  -0.00149  -0.00150   1.92079
    A2        1.92515   0.00226   0.00000   0.01555   0.01552   1.94066
    A3        1.91251   0.00025   0.00000   0.00046   0.00043   1.91295
    A4        1.90258  -0.00087   0.00000  -0.00322  -0.00324   1.89934
    A5        1.90186  -0.00065   0.00000  -0.00801  -0.00801   1.89384
    A6        1.89911  -0.00097   0.00000  -0.00361  -0.00365   1.89546
    A7        1.96702   0.00090   0.00000  -0.00844  -0.00875   1.95827
    A8        1.95592   0.00054   0.00000   0.00017   0.00016   1.95608
    A9        1.93133  -0.00235   0.00000  -0.01578  -0.01576   1.91557
   A10        1.93130  -0.00235   0.00000  -0.01578  -0.01576   1.91554
   A11        1.95597   0.00054   0.00000   0.00018   0.00017   1.95613
   A12        1.70707   0.00288   0.00000   0.04602   0.04574   1.75281
   A13        1.92229  -0.00007   0.00000  -0.00150  -0.00152   1.92077
   A14        1.92518   0.00226   0.00000   0.01557   0.01554   1.94072
   A15        1.91252   0.00024   0.00000   0.00044   0.00041   1.91294
   A16        1.90257  -0.00087   0.00000  -0.00321  -0.00323   1.89934
   A17        1.90187  -0.00065   0.00000  -0.00800  -0.00801   1.89386
   A18        1.89906  -0.00097   0.00000  -0.00361  -0.00365   1.89541
   A19        1.97497  -0.00109   0.00000  -0.00081  -0.00095   1.97403
   A20        2.14713   0.00006   0.00000   0.00258   0.00261   2.14974
   A21        2.15756   0.00101   0.00000  -0.00123  -0.00115   2.15641
   A22        1.94005  -0.00297   0.00000  -0.02988  -0.02974   1.91032
   A23        2.27757  -0.00263   0.00000  -0.02476  -0.02516   2.25241
   A24        1.97504  -0.00110   0.00000  -0.00087  -0.00101   1.97403
   A25        2.14715   0.00006   0.00000   0.00257   0.00259   2.14974
   A26        2.15749   0.00102   0.00000  -0.00118  -0.00110   2.15639
   A27        1.93987  -0.00297   0.00000  -0.02976  -0.02962   1.91025
   A28        2.27815  -0.00263   0.00000  -0.02476  -0.02516   2.25299
   A29        2.37972   0.00323   0.00000   0.01513   0.01450   2.39423
   A30        2.38065   0.00323   0.00000   0.01512   0.01450   2.39515
   A31        1.92232  -0.00007   0.00000  -0.00151  -0.00153   1.92080
   A32        1.92514   0.00226   0.00000   0.01557   0.01554   1.94068
   A33        1.91252   0.00024   0.00000   0.00045   0.00043   1.91295
   A34        1.90254  -0.00087   0.00000  -0.00322  -0.00324   1.89930
   A35        1.90188  -0.00065   0.00000  -0.00802  -0.00802   1.89386
   A36        1.89910  -0.00097   0.00000  -0.00360  -0.00364   1.89545
   A37        1.96705   0.00090   0.00000  -0.00845  -0.00877   1.95828
   A38        1.95588   0.00054   0.00000   0.00018   0.00017   1.95605
   A39        1.93131  -0.00235   0.00000  -0.01575  -0.01573   1.91558
   A40        1.93123  -0.00234   0.00000  -0.01570  -0.01568   1.91555
   A41        1.95596   0.00054   0.00000   0.00012   0.00011   1.95607
   A42        1.70718   0.00288   0.00000   0.04598   0.04570   1.75288
   A43        1.92229  -0.00007   0.00000  -0.00149  -0.00151   1.92078
   A44        1.92514   0.00226   0.00000   0.01556   0.01553   1.94067
   A45        1.91252   0.00024   0.00000   0.00044   0.00042   1.91294
   A46        1.90257  -0.00087   0.00000  -0.00321  -0.00323   1.89934
   A47        1.90187  -0.00065   0.00000  -0.00801  -0.00802   1.89385
   A48        1.89911  -0.00097   0.00000  -0.00362  -0.00365   1.89545
   A49        1.97517  -0.00111   0.00000  -0.00095  -0.00109   1.97408
   A50        2.14706   0.00007   0.00000   0.00268   0.00270   2.14976
   A51        2.15746   0.00101   0.00000  -0.00120  -0.00112   2.15634
   A52        1.93968  -0.00296   0.00000  -0.02968  -0.02954   1.91015
   A53        2.27821  -0.00262   0.00000  -0.02477  -0.02518   2.25303
   A54        1.97513  -0.00110   0.00000  -0.00091  -0.00106   1.97407
   A55        2.14706   0.00007   0.00000   0.00268   0.00270   2.14976
   A56        2.15749   0.00101   0.00000  -0.00123  -0.00115   2.15634
   A57        1.93987  -0.00297   0.00000  -0.02979  -0.02965   1.91022
   A58        2.27767  -0.00262   0.00000  -0.02473  -0.02513   2.25254
   A59        2.38071   0.00322   0.00000   0.01508   0.01446   2.39517
   A60        2.37940   0.00323   0.00000   0.01512   0.01449   2.39390
    D1       -1.14475   0.00096   0.00000   0.01664   0.01672  -1.12804
    D2        1.04745  -0.00105   0.00000  -0.01119  -0.01102   1.03643
    D3        2.93289   0.00141   0.00000   0.03553   0.03530   2.96819
    D4        3.03756   0.00063   0.00000   0.01163   0.01170   3.04926
    D5       -1.05343  -0.00137   0.00000  -0.01620  -0.01603  -1.06947
    D6        0.83201   0.00109   0.00000   0.03051   0.03028   0.86230
    D7        0.94721   0.00027   0.00000   0.00613   0.00620   0.95341
    D8        3.13941  -0.00174   0.00000  -0.02169  -0.02154   3.11787
    D9       -1.25833   0.00072   0.00000   0.02502   0.02478  -1.23355
   D10       -1.14415   0.00096   0.00000   0.01648   0.01656  -1.12759
   D11        3.03815   0.00063   0.00000   0.01145   0.01152   3.04968
   D12        0.94784   0.00027   0.00000   0.00596   0.00602   0.95386
   D13        2.93358   0.00141   0.00000   0.03537   0.03514   2.96872
   D14        0.83270   0.00108   0.00000   0.03034   0.03011   0.86280
   D15       -1.25762   0.00072   0.00000   0.02485   0.02460  -1.23302
   D16        1.04812  -0.00105   0.00000  -0.01135  -0.01118   1.03694
   D17       -1.05276  -0.00138   0.00000  -0.01638  -0.01621  -1.06897
   D18        3.14011  -0.00174   0.00000  -0.02187  -0.02172   3.11839
   D19        0.51828   0.00001   0.00000   0.00324   0.00339   0.52168
   D20       -2.71047  -0.00020   0.00000   0.00990   0.00984  -2.70063
   D21        2.72991  -0.00022   0.00000  -0.02024  -0.02011   2.70981
   D22       -0.49884  -0.00043   0.00000  -0.01357  -0.01366  -0.51250
   D23       -1.50788   0.00099   0.00000  -0.00278  -0.00295  -1.51084
   D24        1.54655   0.00078   0.00000   0.00388   0.00349   1.55004
   D25        2.72859  -0.00021   0.00000  -0.01931  -0.01918   2.70941
   D26       -0.50002  -0.00043   0.00000  -0.01295  -0.01303  -0.51305
   D27        0.51690   0.00003   0.00000   0.00416   0.00432   0.52122
   D28       -2.71171  -0.00020   0.00000   0.01052   0.01047  -2.70124
   D29       -1.50926   0.00101   0.00000  -0.00186  -0.00203  -1.51129
   D30        1.54532   0.00079   0.00000   0.00450   0.00412   1.54944
   D31        2.86726  -0.00232   0.00000  -0.02072  -0.02123   2.84604
   D32       -0.18657  -0.00205   0.00000  -0.02764  -0.02792  -0.21449
   D33       -2.01301   0.00154   0.00000  -0.00828  -0.00790  -2.02091
   D34        1.03233   0.00119   0.00000  -0.00087  -0.00075   1.03158
   D35       -1.06359  -0.00228   0.00000  -0.05191  -0.05214  -1.11573
   D36        0.42489   0.00214   0.00000   0.08713   0.08722   0.51211
   D37        2.86780  -0.00232   0.00000  -0.02098  -0.02149   2.84631
   D38       -0.18618  -0.00205   0.00000  -0.02761  -0.02788  -0.21406
   D39       -2.01464   0.00155   0.00000  -0.00807  -0.00769  -2.02233
   D40        1.03086   0.00119   0.00000  -0.00100  -0.00087   1.02999
   D41       -1.06400  -0.00227   0.00000  -0.05172  -0.05195  -1.11596
   D42        0.42567   0.00215   0.00000   0.08733   0.08742   0.51309
   D43        0.42477   0.00216   0.00000   0.08757   0.08766   0.51243
   D44        0.42450   0.00214   0.00000   0.08727   0.08736   0.51185
   D45       -1.14566   0.00096   0.00000   0.01683   0.01691  -1.12876
   D46        1.04643  -0.00104   0.00000  -0.01090  -0.01073   1.03570
   D47        2.93198   0.00142   0.00000   0.03579   0.03556   2.96754
   D48        3.03668   0.00063   0.00000   0.01181   0.01189   3.04857
   D49       -1.05441  -0.00137   0.00000  -0.01592  -0.01575  -1.07016
   D50        0.83114   0.00109   0.00000   0.03077   0.03054   0.86168
   D51        0.94635   0.00027   0.00000   0.00630   0.00636   0.95271
   D52        3.13845  -0.00173   0.00000  -0.02144  -0.02128   3.11717
   D53       -1.25919   0.00073   0.00000   0.02525   0.02501  -1.23418
   D54       -1.14465   0.00096   0.00000   0.01662   0.01669  -1.12796
   D55        3.03768   0.00063   0.00000   0.01158   0.01166   3.04933
   D56        0.94733   0.00027   0.00000   0.00610   0.00616   0.95349
   D57        2.93316   0.00141   0.00000   0.03545   0.03522   2.96838
   D58        0.83230   0.00108   0.00000   0.03041   0.03018   0.86248
   D59       -1.25804   0.00072   0.00000   0.02492   0.02468  -1.23336
   D60        1.04762  -0.00105   0.00000  -0.01123  -0.01107   1.03655
   D61       -1.05324  -0.00137   0.00000  -0.01627  -0.01610  -1.06935
   D62        3.13960  -0.00174   0.00000  -0.02176  -0.02160   3.11799
   D63        0.51671   0.00003   0.00000   0.00421   0.00437   0.52108
   D64       -2.71188  -0.00019   0.00000   0.01067   0.01061  -2.70126
   D65        2.72830  -0.00020   0.00000  -0.01921  -0.01909   2.70921
   D66       -0.50030  -0.00042   0.00000  -0.01275  -0.01284  -0.51314
   D67       -1.50948   0.00101   0.00000  -0.00182  -0.00199  -1.51147
   D68        1.54512   0.00079   0.00000   0.00464   0.00426   1.54937
   D69        2.72951  -0.00021   0.00000  -0.02003  -0.01990   2.70961
   D70       -0.49906  -0.00043   0.00000  -0.01352  -0.01361  -0.51267
   D71        0.51781   0.00002   0.00000   0.00349   0.00365   0.52145
   D72       -2.71077  -0.00019   0.00000   0.01000   0.00994  -2.70083
   D73       -1.50832   0.00100   0.00000  -0.00257  -0.00275  -1.51107
   D74        1.54629   0.00078   0.00000   0.00393   0.00354   1.54983
   D75        2.86777  -0.00232   0.00000  -0.02094  -0.02145   2.84633
   D76       -0.18622  -0.00205   0.00000  -0.02767  -0.02794  -0.21416
   D77       -2.01416   0.00155   0.00000  -0.00823  -0.00784  -2.02201
   D78        1.03136   0.00119   0.00000  -0.00105  -0.00092   1.03044
   D79       -1.06415  -0.00227   0.00000  -0.05161  -0.05184  -1.11599
   D80        2.86744  -0.00232   0.00000  -0.02073  -0.02124   2.84620
   D81       -0.18657  -0.00204   0.00000  -0.02751  -0.02778  -0.21435
   D82       -2.01271   0.00154   0.00000  -0.00828  -0.00791  -2.02061
   D83        1.03283   0.00119   0.00000  -0.00106  -0.00093   1.03191
   D84       -1.06398  -0.00227   0.00000  -0.05182  -0.05205  -1.11603
         Item               Value     Threshold  Converged?
 Maximum Force            0.010554     0.000015     NO 
 RMS     Force            0.003142     0.000010     NO 
 Maximum Displacement     0.109031     0.000060     NO 
 RMS     Displacement     0.030281     0.000040     NO 
 GradGradGradGradGradGradGradGradGradGradGradGradGradGradGradGradGradGrad

                    Distance matrix (angstroms):
                    1          2          3          4          5
     1  C    0.000000
     2  C    1.531043   0.000000
     3  C    2.541566   1.531025   0.000000
     4  C    2.550269   1.543767   2.514919   0.000000
     5  O    2.729657   2.391263   3.656324   1.318262   0.000000
     6  O    3.657314   2.427582   2.824070   1.210431   2.228641
     7  C    2.514971   1.543784   2.550313   2.372605   3.005433
     8  O    3.656311   2.391297   2.729602   3.005728   3.913501
     9  O    2.824269   2.427589   3.657440   3.073043   3.225171
    10  H    1.102120   2.171620   2.830391   2.793844   2.884086
    11  H    1.098607   2.183369   3.497665   2.824748   2.522006
    12  H    1.102710   2.166322   2.744372   3.500483   3.803882
    13  H    2.830169   2.171594   1.102119   3.471966   4.519790
    14  H    3.497703   2.183388   1.098600   2.688273   3.983698
    15  H    2.744553   2.166298   1.102710   2.838895   3.863397
    16  H    3.714427   3.236779   4.394349   1.890583   0.985483
    17  H    4.394356   3.236839   3.714397   3.675729   4.404839
    18  C    7.543590   6.386981   7.123727   5.626244   5.775506
    19  C    6.387629   5.405693   6.386974   4.574608   4.481578
    20  C    7.125289   6.387624   7.543566   5.475162   5.027129
    21  C    5.626151   4.573975   5.474142   3.442930   3.418582
    22  O    5.774848   4.480509   5.025541   3.418157   3.852162
    23  O    5.246912   4.435203   5.485131   3.119899   2.705160
    24  C    5.475307   4.574743   5.626399   4.160551   4.161432
    25  O    5.027546   4.481983   5.775906   4.161751   3.821242
    26  O    5.486019   4.435994   5.247216   4.320907   4.648255
    27  H    8.210229   7.029588   7.711240   6.086536   6.202458
    28  H    7.321084   6.037946   6.576080   5.418977   5.815030
    29  H    8.207729   7.125862   7.916268   6.492592   6.575505
    30  H    7.713885   7.031119   8.210934   6.289306   5.851054
    31  H    6.578017   6.038987   7.321669   5.105803   4.425096
    32  H    7.916947   7.125612   8.206771   6.053539   5.609611
    33  H    5.309643   4.008048   4.429605   2.821346   3.397270
    34  H    4.431888   4.010013   5.311302   4.028619   3.786504
                    6          7          8          9         10
     6  O    0.000000
     7  C    3.073348   0.000000
     8  O    3.225919   1.318284   0.000000
     9  O    3.926193   1.210418   2.228637   0.000000
    10  H    3.801690   3.471978   4.519835   3.866446   0.000000
    11  H    4.029274   2.688069   3.983510   2.528413   1.789684
    12  H    4.525050   2.839226   3.863456   3.099181   1.789487
    13  H    3.866434   2.794120   2.884257   3.802161   3.263328
    14  H    2.528615   2.824619   2.521758   4.029145   3.801634
    15  H    3.098358   3.500518   3.803785   4.525193   2.584310
    16  H    2.326099   3.675365   4.404823   3.852457   3.817962
    17  H    3.853385   1.890575   0.985509   2.325999   5.323166
    18  C    5.247169   5.474209   5.025438   5.485310   8.210818
    19  C    4.435999   4.574006   4.480365   4.435331   7.030985
    20  C    5.486002   5.626189   5.774724   5.247059   7.713713
    21  C    3.120209   4.159149   4.159815   4.319378   6.087266
    22  O    2.705099   4.160021   3.819366   4.646939   6.202341
    23  O    3.002134   4.319290   4.646668   4.403594   5.558158
    24  C    4.321049   3.443067   3.418147   3.120109   6.289345
    25  O    4.648686   3.418917   3.852322   2.705536   5.851375
    26  O    4.405779   3.120213   2.705005   3.002211   6.379053
    27  H    5.557333   6.287626   5.848592   6.377878   8.775412
    28  H    4.943633   5.104393   4.422971   5.299263   8.011316
    29  H    6.224263   6.053606   5.608910   5.900468   8.952599
    30  H    6.379112   6.087444   6.202353   5.558467   8.395670
    31  H    5.300469   5.418966   5.814395   4.943204   7.105254
    32  H    5.900051   6.491876   6.574188   6.223600   8.412639
    33  H    1.897531   4.026575   3.784662   4.682121   5.599396
    34  H    4.684251   2.822751   3.398084   1.898641   5.355831
                   11         12         13         14         15
    11  H    0.000000
    12  H    1.787672   0.000000
    13  H    3.801332   2.583870   0.000000
    14  H    4.342703   3.781040   1.789676   0.000000
    15  H    3.781238   3.007750   1.789497   1.787637   0.000000
    16  H    3.455445   4.784769   5.323131   4.533255   4.590948
    17  H    4.533058   4.591074   3.818157   3.455226   4.784697
    18  C    7.321705   8.206936   7.712200   6.575936   7.915487
    19  C    6.039007   7.125747   7.030358   6.037894   7.125157
    20  C    6.578049   7.917092   8.210868   7.321089   8.207034
    21  C    5.418980   6.491925   6.288195   5.104541   6.052701
    22  O    5.814558   6.574392   5.849455   4.423296   5.608033
    23  O    4.943146   6.223526   6.378111   5.299488   5.899469
    24  C    5.105912   6.053827   6.087484   5.418848   6.492285
    25  O    4.425469   5.610146   6.203418   5.815168   6.575624
    26  O    5.300429   5.900221   5.558347   4.943189   6.223911
    27  H    8.011405   8.951289   8.393125   7.102169   8.410200
    28  H    7.245395   7.905424   7.103219   5.925206   7.412006
    29  H    7.906920   8.802143   8.412099   7.412523   8.769542
    30  H    7.105446   8.412983   8.776259   8.011306   8.952131
    31  H    5.927569   7.413935   8.011860   7.245474   7.906293
    32  H    7.413845   8.770304   8.951797   7.905404   8.801172
    33  H    5.471719   6.152349   5.353678   3.830397   4.872527
    34  H    3.832599   4.874987   5.601077   5.472972   6.154170
                   16         17         18         19         20
    16  H    0.000000
    17  H    4.775028   0.000000
    18  C    5.310713   4.429532   0.000000
    19  C    4.009396   4.007941   1.531037   0.000000
    20  C    4.431220   5.309583   2.541584   1.531045   0.000000
    21  C    2.822258   4.026410   2.550245   1.543769   2.514941
    22  O    3.397823   3.784676   2.729501   2.391311   3.656260
    23  O    1.898083   4.681921   3.657403   2.427593   2.824269
    24  C    4.028092   2.821355   2.514954   1.543763   2.550261
    25  O    3.786269   3.397410   3.656335   2.391292   2.729628
    26  O    4.683669   1.897452   2.824184   2.427596   3.657352
    27  H    5.599987   5.352973   1.102115   2.171619   2.830752
    28  H    5.472804   3.829866   1.098604   2.183373   3.497662
    29  H    6.153667   4.873526   1.102710   2.166318   2.744083
    30  H    5.355232   5.599467   2.830370   2.171621   1.102120
    31  H    3.831992   5.471615   3.497687   2.183374   1.098606
    32  H    4.874219   6.152232   2.744416   2.166316   1.102709
    33  H    2.989391   4.000267   3.714304   3.236811   4.394252
    34  H    4.001705   2.989560   4.394296   3.236767   3.714385
                   21         22         23         24         25
    21  C    0.000000
    22  O    1.318271   0.000000
    23  O    1.210428   2.228604   0.000000
    24  C    2.372658   3.005923   3.073085   0.000000
    25  O    3.005667   3.913861   3.225449   1.318259   0.000000
    26  O    3.073322   3.226071   3.926130   1.210434   2.228600
    27  H    2.793489   2.883067   3.801703   3.471910   4.519884
    28  H    2.825046   2.522472   4.029561   2.687811   3.983265
    29  H    3.500460   3.803889   4.525058   2.839530   3.863772
    30  H    3.471965   4.519806   3.866483   2.793891   2.884054
    31  H    2.688120   3.983548   2.528508   2.824689   2.521949
    32  H    2.839091   3.863255   3.099045   3.500472   3.803854
    33  H    1.890506   0.985518   2.325858   3.675883   4.405197
    34  H    3.675611   4.405236   3.852783   1.890506   0.985472
                   26         27         28         29         30
    26  O    0.000000
    27  H    3.866241   0.000000
    28  H    2.528019   1.789652   0.000000
    29  H    3.099477   1.789492   1.787670   0.000000
    30  H    3.801818   3.264096   3.801283   2.583821   0.000000
    31  H    4.029225   3.801784   4.342690   3.780880   1.789684
    32  H    4.525096   2.584606   3.781266   3.006995   1.789490
    33  H    3.853490   3.816961   3.455947   4.784819   5.323105
    34  H    2.325921   5.323071   4.532678   4.591416   3.817908
                   31         32         33         34
    31  H    0.000000
    32  H    1.787671   0.000000
    33  H    4.533031   4.590806   0.000000
    34  H    3.455404   4.784729   4.775486   0.000000
 Framework group  C1[X(C10H16O8)]
 Deg. of freedom    96
                         Standard orientation:                         
 ---------------------------------------------------------------------
 Center     Atomic      Atomic             Coordinates (Angstroms)
 Number     Number       Type             X           Y           Z
 ---------------------------------------------------------------------
      1          6           0       -3.557150    0.198449   -1.254802
      2          6           0       -2.702872    0.000301    0.000204
      3          6           0       -3.556432   -0.197428    1.255743
      4          6           0       -1.715373   -1.176768   -0.150036
      5          8           0       -1.329002   -1.372119   -1.395174
      6          8           0       -1.275273   -1.796389    0.792050
      7          6           0       -1.714588    1.176818    0.149777
      8          8           0       -1.327672    1.372296    1.394749
      9          8           0       -1.274305    1.795794   -0.792629
     10          1           0       -4.136375   -0.715143   -1.465791
     11          1           0       -2.932297    0.431540   -2.127822
     12          1           0       -4.262385    1.030896   -1.094667
     13          1           0       -4.135412    0.716295    1.466834
     14          1           0       -2.931155   -0.430409    2.128480
     15          1           0       -4.261858   -1.029830    1.096216
     16          1           0       -0.518080   -1.932046   -1.403171
     17          1           0       -0.516527    1.931953    1.402253
     18          6           0        3.556379    0.196799    1.255866
     19          6           0        2.702821   -0.000322    0.000216
     20          6           0        3.557097   -0.198078   -1.254854
     21          6           0        1.714514   -1.176855    0.149359
     22          8           0        1.327727   -1.372958    1.394260
     23          8           0        1.274150   -1.795448   -0.793274
     24          6           0        1.715438    1.176892   -0.149605
     25          8           0        1.329280    1.372954   -1.394695
     26          8           0        1.275207    1.796095    0.792698
     27          1           0        4.134342   -0.717481    1.467308
     28          1           0        2.931158    0.430614    2.128426
     29          1           0        4.262724    1.028410    1.096275
     30          1           0        4.136505    0.715495   -1.465421
     31          1           0        2.932230   -0.430665   -2.127999
     32          1           0        4.262163   -1.030734   -1.095059
     33          1           0        0.516565   -1.932611    1.401462
     34          1           0        0.518500    1.933073   -1.402419
 ---------------------------------------------------------------------
 Rotational constants (GHZ):           0.7235660           0.3159452           0.2911323
   284 basis functions,   514 primitive gaussians,   302 cartesian basis functions
    70 alpha electrons       70 beta electrons
       nuclear repulsion energy      1562.4537646309 Hartrees.
 NAtoms=   34 NActive=   34 NUniq=   34 SFac= 1.00D+00 NAtFMM=   60 NAOKFM=F Big=F
 Nuclear repulsion after empirical dispersion term =     1562.4271678368 Hartrees.
   1 Symmetry operations used in ECPInt.
 ECPInt:  NShTT=    9870 NPrTT=   39622 LenC2=    9478 LenP2D=   26271.
 LDataN:  DoStor=T MaxTD1= 4 Len=   56
 Initial guess from the checkpoint file:  "dimer.chk"
 B after Tr=     0.000000    0.000000   -0.000000
         Rot=    1.000000    0.000007   -0.000000    0.000001 Ang=   0.00 deg.
 ExpMin= 1.22D-01 ExpMax= 2.27D+03 ExpMxC= 3.41D+02 IAcc=3 IRadAn=         5 AccDes= 0.00D+00
 Harris functional with IExCor= 4639 and IRadAn=       5 diagonalized for initial guess.
 HarFok:  IExCor= 4639 AccDes= 0.00D+00 IRadAn=         5 IDoV= 1 UseB2=F ITyADJ=14
 ICtDFT=  3500011 ScaDFX=  1.000000  1.000000  1.000000  1.000000
 FoFCou: FMM=F IPFlag=           0 FMFlag=      100000 FMFlg1=           0
         NFxFlg=           0 DoJE=T BraDBF=F KetDBF=T FulRan=T
         wScrn=  0.000000 ICntrl=       500 IOpCl=  0 I1Cent=   200000004 NGrid=           0
         NMat0=    1 NMatS0=      1 NMatT0=    0 NMatD0=    1 NMtDS0=    0 NMtDT0=    0
 Petite list used in FoFCou.
     Accept linear search using points  3 and  4.
     Minimum is close to point  3 DX=  6.40D-02 DF= -1.58D-06 DXR=  5.50D-02 DFR=  3.03D-03 which will be used.
     Accept linear search using points  1 and  2.
     Accept linear search using points  1 and  2.
     Minimum is close to point  2 DX= -7.61D-02 DF= -8.35D-07 DXR=  8.24D-02 DFR=  6.83D-03 which will be used.
     Accept linear search using points  1 and  2.
     Accept linear search using points  1 and  2.
     Minimum is close to point  2 DX= -2.97D-04 DF= -1.55D-11 DXR=  2.97D-04 DFR=  8.88D-08 which will be used.
 SCF Done:  E(RwB97XD) =  -991.509700027     a.u. after    8 cycles
            Convg  =    0.3567D-08                    37 Fock formations.
              S**2 =  0.0000                  -V/T =  2.0084
   1 Symmetry operations used in ECPInt.
 ECPInt:  NShTT=    9870 NPrTT=   39622 LenC2=    9478 LenP2D=   26271.
 LDataN:  DoStor=T MaxTD1= 5 Len=  102
 Calling FoFJK, ICntrl=      2127 FMM=F ISym2X=0 I1Cent= 0 IOpClX= 0 NMat=1 NMatS=1 NMatT=0.

 GradGradGradGradGradGradGradGradGradGradGradGradGradGradGradGradGradGrad
 Using GEDIIS/GDIIS optimizer.
 FormGI is forming the generalized inverse of G from B-inverse, IUseBI=4.
 Internal  Forces:  Max     0.002218394 RMS     0.000680699
 Step number   2 out of a maximum of  190
 All quantities printed in internal units (Hartrees-Bohrs-Radians)
 Mixed Optimization -- En-DIIS/RFO-DIIS
 Trust test= 1.03D+00 RLast= 3.02D-01 DXMaxT set to 5.05D-01
 ITU=  1  0
 Use linear search instead of GDIIS.
     Eigenvalues ---    0.00316   0.00434   0.00436   0.00436   0.00436
     Eigenvalues ---    0.00891   0.01268   0.01533   0.01646   0.01665
     Eigenvalues ---    0.01692   0.01866   0.02489   0.02644   0.03198
     Eigenvalues ---    0.03397   0.03641   0.04255   0.04255   0.04627
     Eigenvalues ---    0.04971   0.05070   0.05140   0.05614   0.05614
     Eigenvalues ---    0.05614   0.05614   0.05784   0.05785   0.05785
     Eigenvalues ---    0.05785   0.05834   0.06041   0.07368   0.07479
     Eigenvalues ---    0.09099   0.11511   0.11656   0.12806   0.12865
     Eigenvalues ---    0.14478   0.15155   0.15954   0.16000   0.16000
     Eigenvalues ---    0.16000   0.16000   0.16000   0.16000   0.16000
     Eigenvalues ---    0.16000   0.16000   0.16000   0.16071   0.16727
     Eigenvalues ---    0.17843   0.18640   0.18977   0.19698   0.20807
     Eigenvalues ---    0.22777   0.22931   0.24900   0.24970   0.27935
     Eigenvalues ---    0.28539   0.29058   0.29519   0.29896   0.29896
     Eigenvalues ---    0.29897   0.30334   0.35130   0.35130   0.35130
     Eigenvalues ---    0.35164   0.35207   0.35207   0.35208   0.35230
     Eigenvalues ---    0.35269   0.35270   0.35270   0.37989   0.45993
     Eigenvalues ---    0.48186   0.49383   0.49926   0.60548   0.60631
     Eigenvalues ---    0.61272   0.62994   0.93609   0.95394   0.96874
     Eigenvalues ---    0.98284
 Quartic linear search produced a step of  0.16952.
 Iteration  1 RMS(Cart)=  0.02071415 RMS(Int)=  0.00038107
 Iteration  2 RMS(Cart)=  0.00046798 RMS(Int)=  0.00018840
 Iteration  3 RMS(Cart)=  0.00000016 RMS(Int)=  0.00018840
 Variable       Old X    -DE/DX   Delta X   Delta X   Delta X     New X
                                 (Linear)    (Quad)   (Total)
    R1        2.89325  -0.00030   0.00196  -0.00199  -0.00003   2.89322
    R2        2.08271   0.00018   0.00497  -0.00146   0.00351   2.08622
    R3        2.07607  -0.00011   0.00401  -0.00201   0.00200   2.07807
    R4        2.08382   0.00007   0.00495  -0.00183   0.00312   2.08693
    R5        2.89322  -0.00030   0.00195  -0.00197  -0.00001   2.89320
    R6        2.91730  -0.00193   0.00313  -0.00870  -0.00557   2.91173
    R7        2.91733  -0.00193   0.00313  -0.00871  -0.00557   2.91175
    R8        2.08270   0.00018   0.00497  -0.00145   0.00351   2.08622
    R9        2.07605  -0.00010   0.00401  -0.00200   0.00201   2.07806
   R10        2.08382   0.00007   0.00495  -0.00183   0.00312   2.08694
   R11        2.49115   0.00109   0.00101   0.00239   0.00341   2.49457
   R12        2.28738  -0.00027   0.00046  -0.00113  -0.00067   2.28671
   R13        1.86229   0.00024   0.00067   0.00091   0.00155   1.86384
   R14        3.58581   0.00051   0.00191   0.00690   0.00881   3.59462
   R15        2.49119   0.00108   0.00101   0.00237   0.00339   2.49459
   R16        2.28736  -0.00027   0.00045  -0.00113  -0.00067   2.28669
   R17        1.86234   0.00024   0.00067   0.00090   0.00154   1.86388
   R18        3.58791   0.00051   0.00188   0.00670   0.00858   3.59649
   R19        3.58686   0.00051   0.00189   0.00684   0.00873   3.59559
   R20        3.58567   0.00051   0.00191   0.00693   0.00884   3.59451
   R21        2.89324  -0.00030   0.00196  -0.00198  -0.00002   2.89322
   R22        2.08270   0.00018   0.00497  -0.00145   0.00352   2.08621
   R23        2.07606  -0.00010   0.00401  -0.00201   0.00200   2.07806
   R24        2.08382   0.00007   0.00495  -0.00183   0.00312   2.08694
   R25        2.89326  -0.00030   0.00196  -0.00199  -0.00003   2.89323
   R26        2.91730  -0.00193   0.00314  -0.00870  -0.00556   2.91174
   R27        2.91729  -0.00193   0.00313  -0.00870  -0.00556   2.91173
   R28        2.08270   0.00018   0.00497  -0.00146   0.00351   2.08622
   R29        2.07607  -0.00011   0.00401  -0.00201   0.00200   2.07807
   R30        2.08382   0.00007   0.00495  -0.00183   0.00312   2.08694
   R31        2.49117   0.00108   0.00100   0.00238   0.00340   2.49457
   R32        2.28738  -0.00028   0.00045  -0.00114  -0.00068   2.28670
   R33        1.86236   0.00024   0.00067   0.00089   0.00153   1.86389
   R34        2.49115   0.00109   0.00101   0.00240   0.00342   2.49457
   R35        2.28739  -0.00028   0.00045  -0.00114  -0.00068   2.28671
   R36        1.86227   0.00024   0.00067   0.00090   0.00154   1.86381
    A1        1.92079   0.00043  -0.00026   0.00318   0.00292   1.92371
    A2        1.94066   0.00003   0.00263  -0.00050   0.00213   1.94279
    A3        1.91295   0.00005   0.00007  -0.00005   0.00002   1.91297
    A4        1.89934  -0.00016  -0.00055  -0.00019  -0.00075   1.89859
    A5        1.89384  -0.00033  -0.00136  -0.00261  -0.00397   1.88987
    A6        1.89546  -0.00003  -0.00062   0.00006  -0.00056   1.89489
    A7        1.95827   0.00009  -0.00148   0.00028  -0.00139   1.95688
    A8        1.95608   0.00032   0.00003  -0.00208  -0.00200   1.95408
    A9        1.91557  -0.00038  -0.00267   0.00017  -0.00236   1.91321
   A10        1.91554  -0.00038  -0.00267   0.00020  -0.00233   1.91321
   A11        1.95613   0.00032   0.00003  -0.00211  -0.00202   1.95411
   A12        1.75281   0.00004   0.00775   0.00378   0.01118   1.76399
   A13        1.92077   0.00043  -0.00026   0.00319   0.00292   1.92370
   A14        1.94072   0.00002   0.00263  -0.00053   0.00209   1.94281
   A15        1.91294   0.00005   0.00007  -0.00003   0.00003   1.91297
   A16        1.89934  -0.00016  -0.00055  -0.00019  -0.00075   1.89859
   A17        1.89386  -0.00033  -0.00136  -0.00262  -0.00398   1.88988
   A18        1.89541  -0.00003  -0.00062   0.00009  -0.00054   1.89487
   A19        1.97403  -0.00027  -0.00016   0.00054   0.00020   1.97423
   A20        2.14974  -0.00026   0.00044   0.00055   0.00097   2.15071
   A21        2.15641   0.00053  -0.00019  -0.00084  -0.00087   2.15554
   A22        1.91032  -0.00091  -0.00504  -0.00702  -0.01184   1.89848
   A23        2.25241  -0.00156  -0.00427  -0.02571  -0.03013   2.22228
   A24        1.97403  -0.00027  -0.00017   0.00053   0.00018   1.97421
   A25        2.14974  -0.00027   0.00044   0.00055   0.00097   2.15072
[...]
 .00000147,-0.00000368,-0.00000128,0.00000352,0.00000357,0.00000383,-0.
 00000151,0.00000353,0.00000433,0.00000135,-0.00000466,-0.00000161,-0.0
 0000450,0.00000074,-0.00000363,0.00000097,-0.00010957,-0.00000340,0.00
 004641,-0.00009067,-0.00000568,-0.00003610,0.13053504,-0.22481078,0.02
 113341,0.00084920,-0.00138271,0.00030664,-0.00020449,0.00013427,0.0004
 6747,-0.00058856,0.00113048,0.00011931,0.00004424,0.00011584,-0.000151
 79,0.00014511,-0.00013902,-0.00024284,-0.00123587,0.00025261,-0.000183
 90,0.00025541,0.00011529,-0.00010858,0.00016732,0.00022252,0.00035950,
 0.01584970,-0.01650614,0.00212303,-0.00415406,0.00487262,-0.00024239,-
 0.14125457,0.23571071,0.00000092,0.00000421,0.00000509,-0.00000427,0.0
 0001376,0.00000906,0.00000328,0.00000628,-0.00000507,-0.00010059,-0.00
 001473,-0.00013380,0.00014912,0.00003397,0.00005331,0.00001621,-0.0000
 0598,0.00007183,0.00001798,-0.00002165,-0.00003475,-0.00002727,0.00000
 262,0.00003291,-0.00000212,0.00000786,0.00000841,-0.00000084,-0.000000
 96,-0.00000031,-0.00000215,-0.00000321,0.00000317,0.00000290,0.0000015
 1,-0.00000052,0.00000187,0.00000032,0.00000328,0.00000153,-0.00000046,
 -0.00000145,-0.00000071,-0.00000097,0.00000058,-0.00018748,-0.00003131
 ,0.00005375,0.00000883,0.00003023,-0.00001642,-0.01800840,0.02304086,-
 0.05029192,0.01872258,-0.02312182,0.00068283,0.00051191,-0.00076999,0.
 00151523,0.00065811,0.00303386,-0.00637785,-0.00023486,-0.00014948,0.0
 0152826,0.00102323,-0.00246993,0.00019035,-0.00052250,-0.00082092,0.00
 083601,-0.00020026,0.00008481,-0.00025891,0.00027159,0.00014894,0.0001
 4066,-0.00238782,0.00200101,-0.00131486,-0.01274525,0.02162917,0.00005
 876,0.01334699,-0.02307125,0.05360606,0.00000040,-0.00001275,-0.000012
 82,0.00001603,-0.00006550,-0.00001074,-0.00000049,-0.00001429,0.000002
 84,0.00018829,0.00018181,-0.00002814,-0.00017434,-0.00007297,-0.000009
 10,-0.00023470,-0.00007239,0.00008958,-0.00006100,0.00017201,-0.000131
 93,-0.00000355,-0.00007486,0.00004182,0.00011567,-0.00011324,0.0001097
 0,0.00000397,0.00000058,0.00000098,0.00000274,0.00001087,-0.00000228,-
 0.00001108,-0.00000353,0.00000187,-0.00000889,-0.00000396,-0.00000302,
 0.00000476,0.00000782,0.00000492,0.00000554,0.00000177,0.00000084,0.00
 025345,0.00000547,-0.00005847,-0.00005472,0.00005835,-0.00001678,0.000
 29654,-0.00014588,0.00122934,-0.01138874,0.01396810,-0.00105421,-0.137
 03939,0.12491845,-0.01713153,-0.00068070,-0.00154488,-0.00218651,-0.00
 137834,0.00106316,-0.00074757,-0.00007558,0.00023417,-0.00038984,0.000
 30210,0.00198289,-0.00046328,-0.00004974,-0.00053686,0.00053041,-0.000
 06720,-0.00034455,-0.00006310,0.00004829,-0.00011084,-0.00003459,-0.00
 002406,-0.00019617,0.00007601,0.00053233,-0.00014940,-0.00016747,0.144
 16483,0.00000032,0.00000220,0.00000860,-0.00000580,0.00000584,0.000002
 55,0.00000079,0.00000351,-0.00000766,-0.00010197,-0.00003533,-0.000105
 86,0.00015534,0.00003922,0.00005251,0.00005168,0.00000553,0.00004291,-
 0.00003302,-0.00000625,0.00002411,0.00007290,0.00000416,-0.00000174,0.
 00005569,0.00002202,-0.00000300,0.00000058,-0.00000318,-0.00000170,-0.
 00000477,-0.00000360,0.00000451,0.00000419,0.00000433,-0.00000032,0.00
 000396,0.00000392,0.00000228,-0.00000370,-0.00000131,-0.00000381,0.000
 00076,-0.00000336,0.00000096,-0.00017112,-0.00002283,0.00002623,-0.000
 08557,-0.00000777,-0.00003527,-0.00026925,0.00020615,-0.00007093,-0.00
 398264,0.00422798,-0.00172672,0.12653867,-0.22986278,0.02618808,-0.000
 55421,-0.00030850,-0.00241137,-0.00021145,0.00043400,0.00030526,0.0004
 7644,0.00042466,0.00086678,-0.00074930,0.00035802,0.00028470,0.0002266
 2,0.00024297,-0.00021746,0.00039429,0.00035322,0.00020647,0.00011089,-
 0.00005848,0.00000658,-0.00016097,0.00016679,0.00006031,-0.00007916,0.
 00021602,0.00030327,-0.13643425,0.24131153,0.00000003,-0.00000210,-0.0
 0000729,0.00001750,-0.00002396,0.00000192,0.00000183,-0.00000142,0.000
 00357,0.00002475,0.00009692,-0.00018587,0.00001438,-0.00000389,0.00011
 514,-0.00017462,-0.00005099,0.00014689,-0.00000318,0.00002497,-0.00002
 546,-0.00002274,-0.00002520,-0.00000425,0.00000155,-0.00001600,0.00001
 084,-0.00000098,0.00000170,0.00000028,-0.00000057,-0.00000152,-0.00000
 060,-0.00000183,-0.00000135,0.00000328,-0.00000302,-0.00000228,0.00000
 018,0.00000326,0.00000266,0.00000330,0.00000054,0.00000147,-0.00000031
 ,0.00002738,0.00000750,-0.00010980,0.00000974,0.00002587,0.00002065,-0
 .00042854,0.00105203,0.00129100,-0.01575687,0.02232217,-0.00393491,-0.
 01561450,0.02395714,-0.05215278,-0.00123374,-0.00374123,-0.00504544,-0
 .00188494,0.00171099,-0.00038075,0.00049630,0.00029651,0.00142845,0.00
 059594,0.00123847,0.00121027,-0.00010250,0.00006675,-0.00014114,0.0000
 2501,-0.00033130,-0.00045289,0.00003458,0.00000660,-0.00011244,0.00008
 524,-0.00025027,0.00025257,0.00024733,-0.00047615,-0.00070016,0.022887
 04,-0.02632587,0.05428562,-0.00000180,0.00000500,0.00000536,-0.0000104
 0,-0.00000546,0.00000987,0.00000126,0.00000420,-0.00001032,-0.00014827
 ,0.00001901,-0.00028159,0.00025445,-0.00002613,0.00019250,0.00000843,-
 0.00006245,0.00012883,-0.00002684,0.00004238,-0.00013117,-0.00000908,0
 .00001476,0.00007047,0.00011089,-0.00000406,0.00009509,0.00000274,-0.0
 0000477,0.00000057,-0.00001192,-0.00000362,0.00000717,0.00000532,0.000
 00467,0.00000153,0.00000476,0.00000370,0.00000326,-0.00000261,-0.00000
 138,-0.00000227,0.00000238,-0.00000368,0.00000215,-0.00013582,0.000134
 20,-0.00009787,-0.00001176,-0.00002017,-0.00004092,-0.00259423,-0.0001
 9646,-0.00279647,0.01234533,-0.00261840,-0.01599701,-0.14373016,0.0199
 5255,0.13607075,0.00082852,0.00057200,-0.00081795,0.00026842,-0.000099
 22,0.00032044,-0.00140113,0.00062188,-0.00044501,0.00160974,-0.0002871
 9,-0.00055395,-0.00226341,-0.00137253,-0.00038537,-0.00010903,0.000186
 18,0.00038170,-0.00002422,0.00016088,-0.00008512,0.00077130,-0.0000820
 0,-0.00105656,-0.00004687,-0.00017171,-0.00001374,-0.00827486,-0.00056
 330,0.01246658,0.15152765,-0.00000320,-0.00001599,-0.00000738,-0.00001
 405,-0.00008017,-0.00001478,-0.00000224,-0.00001923,-0.00000664,0.0001
 8568,0.00018482,0.00002759,-0.00016453,-0.00014335,-0.00007011,-0.0001
 6499,-0.00009308,0.00003913,-0.00013906,0.00026478,-0.00022692,0.00003
 239,-0.00008041,0.00008292,0.00028137,-0.00014253,0.00020467,0.0000108
 7,-0.00000360,0.00000152,-0.00000361,0.00001697,0.00000152,-0.00001116
 ,-0.00000162,0.00000046,-0.00000782,-0.00000131,-0.00000267,0.00000137
 ,0.00000921,0.00000227,0.00001016,-0.00000128,0.00000321,0.00028087,0.
 00009658,0.00004664,-0.00010937,0.00003737,-0.00006527,-0.00046058,-0.
 00002627,-0.00027556,0.00149237,-0.00210967,-0.00251591,0.01941807,-0.
 05250868,-0.02728815,-0.00013729,0.00094877,0.00192861,-0.00039556,-0.
 00018343,-0.00081378,0.00046203,-0.00105199,-0.00032978,0.00150708,0.0
 0025172,-0.00229223,-0.00087171,-0.00095817,0.00065194,-0.00018222,0.0
 0030049,0.00072118,0.00019608,0.00016695,-0.00025031,0.00008211,0.0005
 0101,-0.00018249,-0.00021672,0.00018039,0.00022391,0.01319188,-0.00120
 104,-0.02180891,-0.02032858,0.05087886,0.00000046,0.00000396,0.0000117
 4,-0.00001660,-0.00000451,0.00001205,0.00000413,0.00000421,-0.00001278
 ,-0.00013779,-0.00000884,-0.00020152,0.00023679,0.00000348,0.00008232,
 0.00003728,-0.00002365,0.00009358,-0.00001598,0.00007448,-0.00019754,-
 0.00003960,0.00001904,0.00010592,0.00018619,-0.00003132,0.00013339,0.0
 0000229,-0.00000452,-0.00000060,-0.00000717,-0.00000152,0.00000872,0.0
 0000386,0.00000451,-0.00000144,0.00000492,0.00000381,0.00000330,-0.000
 00227,-0.00000226,-0.00000369,0.00000186,-0.00000352,0.00000317,-0.000
 23769,0.00004240,0.00003242,0.00001167,-0.00001793,-0.00006337,-0.0047
 2356,-0.00041863,-0.00350794,0.01497708,-0.00271285,-0.02014625,0.1301
 7303,-0.02728152,-0.23411837,0.00148968,-0.00207932,-0.00249387,0.0002
 2956,0.00023061,0.00101544,0.00025874,0.00037957,0.00240821,0.00199972
 ,0.00041061,-0.00228806,0.00055981,0.00072976,0.00132066,-0.00030328,0
 .00010351,0.00084147,-0.00007603,0.00006027,0.00025257,0.00105659,-0.0
 0018202,-0.00120430,-0.00004389,-0.00002354,0.00025552,-0.00458953,0.0
 0053651,0.00614249,-0.13979498,0.03041605,0.25097931,0.00000083,0.0000
 1576,-0.00000070,0.00001758,0.00007141,0.00001631,0.00000128,0.0000164
 8,0.00001199,-0.00011464,-0.00016830,0.00002348,0.00010368,0.00012753,
 0.00000464,0.00011074,0.00009827,-0.00004434,0.00021102,-0.00020745,0.
 00003538,-0.00018286,0.00009486,0.00000239,-0.00025292,0.00008457,-0.0
 0009021,-0.00001108,0.00000418,0.00000183,0.00000532,-0.00001115,-0.00
 000386,0.00000679,-0.00000073,-0.00000072,0.00000554,-0.00000076,0.000
 00054,0.00000238,-0.00001016,0.00000185,-0.00001111,0.00000357,-0.0000
 0290,-0.00017659,-0.00011725,0.00003768,0.00026062,-0.00005167,0.00008
 686,0.00043759,0.00030207,0.00119558,-0.01228705,-0.01400185,0.0018951
 7,-0.14390176,-0.12860852,0.01593971,0.00021376,-0.00270335,-0.0011459
 0,0.00019404,0.00032490,0.00046907,0.00043240,0.00132443,0.00099093,-0
 .00070810,0.00229589,-0.00241108,-0.00047575,-0.00076463,0.00014453,-0
 .00071730,-0.00173849,-0.00067432,0.00053223,0.00007930,-0.00024715,-0
 .00004704,0.00021662,0.00004391,0.00003274,0.00011351,-0.00011507,0.01
 348655,0.01547199,-0.00177396,-0.00864197,-0.01365515,-0.00080333,0.15
 123956,0.00000057,0.00000200,-0.00000739,0.00001258,0.00000776,-0.0000
 0116,-0.00000008,0.00000140,0.00000944,0.00004333,-0.00000434,0.000053
 74,-0.00008918,0.00000349,-0.00001781,-0.00004615,0.00002271,-0.000018
 41,0.00006757,-0.00006315,0.00002518,-0.00007609,0.00001536,-0.0000150
 0,-0.00010074,0.00002594,-0.00003883,-0.00000353,0.00000433,0.00000135
 ,0.00000467,-0.00000162,-0.00000451,-0.00000073,-0.00000363,0.00000097
 ,-0.00000177,-0.00000336,-0.00000147,0.00000368,-0.00000128,0.00000352
 ,-0.00000358,0.00000383,-0.00000151,0.00009059,-0.00000570,-0.00003608
 ,0.00010969,-0.00000339,0.00004644,0.00020463,0.00013450,0.00046799,-0
 .00085405,-0.00138928,0.00030744,-0.13049916,-0.22492516,0.02114317,0.
 00123584,0.00025192,-0.00018445,-0.00025538,0.00011533,-0.00010837,-0.
 00016713,0.00022305,0.00035996,0.00058780,0.00113175,0.00011823,-0.000
 04449,0.00011548,-0.00015172,-0.00014539,-0.00013985,-0.00024314,0.000
 14952,0.00021612,-0.00047626,0.00017161,0.00018056,-0.00002353,-0.0001
 1345,-0.00012149,-0.00003223,-0.01583642,-0.01650629,0.00212257,0.0041
 4809,0.00486842,-0.00024283,0.14121699,0.23583544,-0.00000329,0.000006
 28,-0.00000507,0.00000426,0.00001376,0.00000905,-0.00000092,0.00000421
 ,0.00000509,-0.00001797,-0.00002166,-0.00003475,0.00002726,0.00000263,
 0.00003290,0.00000211,0.00000786,0.00000841,0.00010059,-0.00001468,-0.
 00013380,-0.00014913,0.00003391,0.00005331,-0.00001621,-0.00000599,0.0
 0007183,-0.00000187,0.00000032,0.00000328,-0.00000153,-0.00000046,-0.0
 0000145,0.00000071,-0.00000097,0.00000058,0.00000084,-0.00000096,-0.00
 000031,0.00000215,-0.00000321,0.00000317,-0.00000290,0.00000151,-0.000
 00052,-0.00000883,0.00003023,-0.00001641,0.00018749,-0.00003124,0.0000
 5374,-0.00051155,-0.00077022,0.00151523,-0.01871212,-0.02312981,0.0006
 8325,0.01800026,0.02305151,-0.05029257,0.00052286,-0.00082063,0.000836
 02,0.00020021,0.00008487,-0.00025892,-0.00027165,0.00014883,0.00014062
 ,-0.00065953,0.00303351,-0.00637778,0.00023501,-0.00014934,0.00152821,
 -0.00102221,-0.00247035,0.00019036,0.00016731,0.00030334,-0.00070015,0
 .00001365,0.00022391,0.00025552,0.00011508,-0.00003218,-0.00011537,0.0
 0238656,0.00200168,-0.00131489,0.01273593,0.02163507,0.00005851,-0.013
 33885,-0.02308004,0.05360659,0.00001073,0.00038798,0.00047251,-0.00135
 241,0.00305056,-0.00036428,-0.00018020,0.00019430,-0.00026863,-0.00152
 684,-0.01332218,0.02327753,-0.00628002,-0.00001966,-0.01047815,0.00873
 873,0.00736279,-0.01513822,0.00354766,-0.00289334,0.00014356,-0.001982
 28,0.00139111,0.00069226,-0.00214047,0.00165296,-0.00111176,-0.0000547
 2,-0.00008556,-0.00000978,-0.00001176,-0.00010936,-0.00001171,0.000260
 62,0.00010976,-0.00018745,0.00025340,0.00017124,0.00002745,-0.00013564
 ,-0.00028086,-0.00023779,-0.00017659,-0.00009066,-0.00000885,0.0056170
 9,0.00132935,0.00063911,0.00172178,-0.00019064,-0.00002779,0.00046849,
 -0.00080057,0.00011353,0.00288222,-0.00020208,-0.00091597,0.00034419,-
 0.00040477,-0.00013138,-0.02352893,0.01559256,-0.02147871,-0.25135849,
 0.18406730,0.00391430,-0.00101502,0.00112877,0.01383137,0.00250622,0.0
 0306028,-0.00178070,-0.00222860,-0.00083033,0.00112695,-0.00158834,-0.
 00130153,0.00002502,-0.00018612,0.00000234,0.00007126,-0.00028276,0.00
 044918,0.00035453,0.00035233,-0.00017031,-0.00001191,0.00029198,-0.000
 15224,0.00013429,-0.00001427,0.00016476,-0.00008747,-0.00011864,0.0000
 1973,0.00000437,0.26557174,-0.00003858,-0.00018430,-0.00000233,0.00007
 258,-0.00100713,0.00053643,0.00007110,-0.00001709,0.00005561,-0.003152
 12,0.00191628,-0.00325277,0.00122993,-0.00052679,0.00191830,-0.0005844
 7,-0.00552200,0.00360910,-0.00200206,0.00015778,0.00201335,0.00179464,
 0.00068398,-0.00095878,0.00044311,0.00005459,-0.00062613,0.00005834,-0
 .00000777,-0.00002588,-0.00002018,0.00003734,0.00001797,-0.00005163,-0
 .00000338,0.00003122,-0.00000536,-0.00002276,-0.00000747,-0.00013428,0
 .00009647,-0.00004248,0.00011719,-0.00000568,-0.00003023,-0.00132784,0
 .00109427,0.00002253,-0.00019066,-0.00043343,-0.00011226,0.00005600,0.
 00008574,-0.00039866,0.00279560,0.00411742,-0.00025944,0.00011959,-0.0
 0025038,-0.00019365,0.00600837,0.00427758,0.01330385,0.19672764,-0.186
 70293,-0.01432116,-0.00192331,-0.00705914,-0.00521345,-0.00066905,-0.0
 0017022,-0.00021685,0.00008617,0.00032548,-0.00033703,0.00013099,0.000
 38648,0.00025104,0.00004401,-0.00010187,0.00004882,0.00005420,-0.00004
 955,-0.00004926,-0.00016996,0.00003596,-0.00001745,-0.00002053,0.00009
 054,0.00007933,0.00003591,-0.00003474,0.00006539,0.00000703,-0.0000269
 5,-0.00003423,-0.19942202,0.18902544,-0.00006265,-0.00013047,-0.000174
 37,0.00046535,-0.00118605,0.00004052,-0.00000223,-0.00007781,0.0002897
 9,0.00470901,0.00387603,-0.00355049,-0.00097200,0.00020899,0.00074123,
 -0.00442916,-0.00094656,-0.00110855,-0.00097783,0.00066043,0.00073261,
 0.00049745,-0.00022169,-0.00085196,0.00029241,-0.00025943,-0.00014595,
 0.00001681,0.00003526,0.00002065,0.00004091,0.00006531,-0.00006334,-0.
 00008688,-0.00004647,0.00005374,-0.00005846,-0.00002622,-0.00010981,-0
 .00009795,-0.00004668,0.00003238,0.00003771,0.00003610,-0.00001642,0.0
 0063900,-0.00002113,-0.00235525,0.00002768,0.00011202,0.00020168,0.000
 42331,-0.00074611,-0.00019189,-0.00289689,-0.00197015,-0.00499532,-0.0
 0075557,0.00131298,0.00022111,-0.03947912,0.03484207,0.00161919,0.0287
 9896,-0.03719733,-0.04974769,0.00668380,-0.00194982,0.00179353,-0.0005
 2411,-0.00030083,0.00031973,0.00048239,-0.00021570,-0.00017442,0.00005
 814,-0.00012968,-0.00018035,0.00000805,0.00008480,0.00006131,0.0000077
 4,0.00011672,0.00053407,0.00022604,0.00004155,0.00014152,-0.00025292,-
 0.00009738,-0.00040881,0.00002588,0.00004747,-0.00005512,-0.00002338,-
 0.00001673,0.00005481,0.00730056,0.00398404,0.05733833,-0.00018011,-0.
 00019434,0.00026861,-0.00135100,-0.00305081,0.00036418,0.00001085,-0.0
 0038788,-0.00047249,0.00354555,0.00289476,-0.00014395,-0.00198178,-0.0
 0138985,-0.00069156,-0.00213944,-0.00165368,0.00111181,-0.00153287,0.0
 1332009,-0.02327449,-0.00627940,0.00001703,0.01047657,0.00874264,-0.00
 735757,0.01513569,0.00025345,-0.00017111,-0.00002745,-0.00013578,0.000
 28075,0.00023778,-0.00017660,0.00009058,0.00000886,-0.00005473,0.00008
 554,0.00000978,-0.00001181,0.00010933,0.00001170,0.00026064,-0.0001096
 4,0.00018743,0.00172122,0.00019163,0.00002780,0.00561675,-0.00132745,-
 0.00063968,0.00034405,0.00040504,0.00013145,0.00288331,0.00020165,0.00
 091585,0.00046816,0.00080071,-0.00011336,0.00250730,-0.00305902,0.0017
 8082,-0.00222905,0.00082919,-0.00112680,-0.00158874,0.00130064,-0.0000
 2513,-0.02351809,-0.01560437,0.02147195,-0.25120974,-0.18409517,-0.003
 90884,-0.00101489,-0.00112557,-0.01382894,0.00029189,0.00015232,-0.000
 13433,-0.00001418,-0.00016475,0.00008745,-0.00011863,-0.00001976,-0.00
 000435,-0.00018609,-0.00000238,-0.00007128,-0.00028255,-0.00044926,-0.
 00035448,0.00035217,0.00017044,0.00001190,0.00159496,-0.00014037,-0.00
 012205,0.26541252,-0.00007113,-0.00001716,0.00005570,-0.00007252,-0.00
 100793,0.00053660,0.00003869,-0.00018440,-0.00000249,0.00200264,0.0001
 5950,0.00201224,-0.00179421,0.00068045,-0.00095887,-0.00044390,0.00005
 376,-0.00062533,0.00315143,0.00192192,-0.00326035,-0.00123213,-0.00052
 733,0.00192163,0.00058877,-0.00552433,0.00361380,0.00000544,-0.0000228
 2,-0.00000747,0.00013417,0.00009660,-0.00004239,-0.00011723,-0.0000057
 0,-0.00003023,-0.00005835,-0.00000777,-0.00002587,0.00002016,0.0000373
 7,0.00001797,0.00005171,-0.00000340,0.00003128,0.00019165,-0.00043325,
 -0.00011224,0.00132963,0.00109428,0.00002259,-0.00011939,-0.00025040,-
 0.00019359,-0.00279652,0.00411636,-0.00025861,-0.00005580,0.00008605,-
 0.00039869,0.00067008,-0.00017108,-0.00021623,-0.00008721,0.00032575,-
 0.00033747,-0.00013178,0.00038701,0.00025104,-0.00602054,0.00426729,0.
 01331279,-0.19675319,-0.18685999,-0.01432195,0.00192572,-0.00705864,-0
 .00521935,0.00002059,0.00009062,0.00007932,-0.00003590,-0.00003482,0.0
 0006544,-0.00000706,-0.00002696,-0.00003424,-0.00004406,-0.00010189,0.
 00004879,-0.00005430,-0.00004976,-0.00004939,0.00017008,0.00003611,-0.
 00001745,0.00014115,-0.00025924,0.00016249,0.19945330,0.18919382,0.000
 00226,-0.00007780,0.00028976,-0.00046471,-0.00118613,0.00004056,0.0000
 6269,-0.00013044,-0.00017435,0.00097745,0.00066075,0.00073259,-0.00049
 728,-0.00022173,-0.00085177,-0.00029222,-0.00025951,-0.00014596,-0.004
 71002,0.00387374,-0.00354949,0.00097196,0.00020917,0.00074109,0.004428
 79,-0.00094501,-0.00110842,0.00005846,-0.00002619,-0.00010981,0.000097
 94,-0.00004664,0.00003237,-0.00003772,0.00003608,-0.00001640,-0.000016
 82,0.00003525,0.00002065,-0.00004093,0.00006529,-0.00006334,0.00008689
 ,-0.00004643,0.00005373,-0.00002776,0.00011199,0.00020165,-0.00063892,
 -0.00002105,-0.00235514,0.00075500,0.00131332,0.00022107,0.00289748,-0
 .00196880,-0.00499552,-0.00042303,-0.00074635,-0.00019191,0.00052420,-
 0.00030049,0.00031973,-0.00048223,-0.00021593,-0.00017440,-0.00005803,
 -0.00012974,-0.00018038,0.03946565,0.03485917,0.00161884,-0.02878527,-
 0.03720925,-0.04974806,-0.00668384,-0.00195277,0.00179418,0.00025295,-
 0.00009727,-0.00040882,-0.00002591,0.00004746,-0.00005512,0.00002339,-
 0.00001671,0.00005481,-0.00000807,0.00008479,0.00006131,-0.00000778,0.
 00011674,0.00053407,-0.00022606,0.00004144,0.00014152,0.00012194,0.000
 16254,-0.00006646,-0.00730048,0.00398052,0.05733743\\0.00000012,0.0000
 0018,-0.00000006,-0.00000005,0.00000010,0.00000015,0.00000001,0.000000
 16,-0.00000009,0.00000033,-0.00000007,-0.00000023,-0.00000028,0.000000
 10,0.00000051,-0.00000011,0.00000048,-0.00000007,-0.00000031,-0.000000
 71,-0.00000006,0.00000036,-0.00000017,0.00000012,0.00000003,0.00000029
 ,-0.00000027,-0.00000005,-0.00000004,0.00000004,0.,0.00000006,0.,0.000
 00007,0.,0.00000008,0.,0.00000004,0.00000001,-0.00000017,-0.00000002,0
 .00000010,0.,0.00000001,-0.00000011,-0.00000002,0.,-0.00000029,0.00000
 030,0.00000030,0.00000011,-0.00000002,-0.00000017,-0.00000005,-0.00000
 004,0.00000064,-0.00000030,-0.00000013,-0.00000017,-0.00000002,-0.0000
 0094,-0.00000026,0.00000054,0.00000010,0.00000037,-0.00000028,0.000000
 21,0.00000017,-0.00000029,0.00000131,-0.00000110,0.00000052,-0.0000002
 9,0.00000009,0.00000012,-0.00000030,-0.00000002,-0.00000011,0.,-0.0000
 0006,0.00000002,0.00000008,0.,0.00000005,0.,-0.00000003,-0.00000013,0.
 00000004,0.00000004,0.00000004,0.00000009,-0.00000004,-0.00000006,-0.0
 0000008,0.,0.00000002,-0.00000026,-0.00000026,0.00000017,-0.00000001,0
 .00000009,-0.00000020\\\@


 DEPRESSION IS WAITING FOR YOUR SHIP TO COME IN,
 AND FINDING OUT IT'S THE TITANIC.
 File lengths (MBytes):  RWF=    347 Int=      0 D2E=      0 Chk=      8 Scr=      1
 Normal termination of Gaussian 16 at Mon Apr  1 17:28:47 2024.
real 8547.85
user 32564.04
sys 26.24
