 Entering Gaussian System, Link 0=g16
 Input=gaussian_test.inp
 Output=gaussian_test.log
 Initial command:
 /sw/restricted/lms/sw/Gaussian/g16_B01/g16/l1.exe "/scratch/user/peterchao1/peterchao1/6318275_1663960373000000411990106/Gau-154027.inp" -scrdir="/scratch/user/peterchao1/peterchao1/6318275_1663960373000000411990106/"
 Entering Link 1 = /sw/restricted/lms/sw/Gaussian/g16_B01/g16/l1.exe PID=    154028.
  
 Copyright (c) 1988-2017, Gaussian, Inc.  All Rights Reserved.
  
 This is part of the Gaussian(R) 16 program.  It is based on
 the Gaussian(R) 09 system (copyright 2009, Gaussian, Inc.),
 the Gaussian(R) 03 system (copyright 2003, Gaussian, Inc.),
 the Gaussian(R) 98 system (copyright 1998, Gaussian, Inc.),
 the Gaussian(R) 94 system (copyright 1995, Gaussian, Inc.),
 the Gaussian 92(TM) system (copyright 1992, Gaussian, Inc.),
 the Gaussian 90(TM) system (copyright 1990, Gaussian, Inc.),
 the Gaussian 88(TM) system (copyright 1988, Gaussian, Inc.),
 the Gaussian 86(TM) system (copyright 1986, Carnegie Mellon
 University), and the Gaussian 82(TM) system (copyright 1983,
 Carnegie Mellon University). Gaussian is a federally registered
 trademark of Gaussian, Inc.
  
 This software contains proprietary and confidential information,
 including trade secrets, belonging to Gaussian, Inc.
  
 This software is provided under written license and may be
 used, copied, transmitted, or stored only in accord with that
 written license.
  
 The following legend is applicable only to US Government
 contracts under FAR:
  
                    RESTRICTED RIGHTS LEGEND
  
 Use, reproduction and disclosure by the US Government is
 subject to restrictions as set forth in subparagraphs (a)
 and (c) of the Commercial Computer Software - Restricted
 Rights clause in FAR 52.227-19.
  
 Gaussian, Inc.
 340 Quinnipiac St., Bldg. 40, Wallingford CT 06492
  
  
 ---------------------------------------------------------------
 Warning -- This program may not be used in any manner that
 competes with the business of Gaussian, Inc. or will provide
 assistance to any competitor of Gaussian, Inc.  The licensee
 of this program is prohibited from giving any competitor of
 Gaussian, Inc. access to this program.  By using this program,
 the user acknowledges that Gaussian, Inc. is engaged in the
 business of creating and licensing software in the field of
 computational chemistry and represents and warrants to the
 licensee that it is not a competitor of Gaussian, Inc. and that
 it will not use this program in any manner prohibited above.
 ---------------------------------------------------------------
  

 Cite this work as:
 Gaussian 16, Revision B.01,
 M. J. Frisch, G. W. Trucks, H. B. Schlegel, G. E. Scuseria, 
 M. A. Robb, J. R. Cheeseman, G. Scalmani, V. Barone, 
 G. A. Petersson, H. Nakatsuji, X. Li, M. Caricato, A. V. Marenich, 
 J. Bloino, B. G. Janesko, R. Gomperts, B. Mennucci, H. P. Hratchian, 
 J. V. Ortiz, A. F. Izmaylov, J. L. Sonnenberg, D. Williams-Young, 
 F. Ding, F. Lipparini, F. Egidi, J. Goings, B. Peng, A. Petrone, 
 T. Henderson, D. Ranasinghe, V. G. Zakrzewski, J. Gao, N. Rega, 
 G. Zheng, W. Liang, M. Hada, M. Ehara, K. Toyota, R. Fukuda, 
 J. Hasegawa, M. Ishida, T. Nakajima, Y. Honda, O. Kitao, H. Nakai, 
 T. Vreven, K. Throssell, J. A. Montgomery, Jr., J. E. Peralta, 
 F. Ogliaro, M. J. Bearpark, J. J. Heyd, E. N. Brothers, K. N. Kudin, 
 V. N. Staroverov, T. A. Keith, R. Kobayashi, J. Normand, 
 K. Raghavachari, A. P. Rendell, J. C. Burant, S. S. Iyengar, 
 J. Tomasi, M. Cossi, J. M. Millam, M. Klene, C. Adamo, R. Cammi, 
 J. W. Ochterski, R. L. Martin, K. Morokuma, O. Farkas, 
 J. B. Foresman, and D. J. Fox, Gaussian, Inc., Wallingford CT, 2016.
 
 ******************************************
 Gaussian 16:  ES64L-G16RevB.01 20-Dec-2017
                23-Sep-2022 
 ******************************************
 %chk=22.chk
 %nprocshared=4
 Will use up to    4 processors via shared memory.
 %mem=8000mb
 --------------------------------------------------------------
 #T wB97XD//def2svpp Volume=tight Geom=AllCheckpoint Guess=Read
 --------------------------------------------------------------
 Structure from the checkpoint file:  "22.chk"
 -------
 Monomer
 -------
 Charge =  0 Multiplicity = 1
 Redundant internal coordinates found in file.  (old form).
 N,0,-0.122212,0.074049,1.434121
 C,0,-0.174685,-0.194031,-0.002113
 C,0,0.863227,-1.267122,-0.373331
 O,0,2.158755,-0.963754,0.044024
 C,0,-1.559344,-0.667681,-0.44784
 O,0,-2.516093,0.23449,0.054373
 C,0,0.187594,1.144682,-0.688049
 O,0,1.347109,1.6697,-0.090692
 H,0,0.1865,-0.73309,1.972475
 H,0,-1.034349,0.385314,1.768322
 H,0,0.809083,-1.42933,-1.47285
 H,0,0.584769,-2.224795,0.106318
 H,0,2.305901,-0.013944,-0.123206
 H,0,-1.734103,-1.690534,-0.053509
 H,0,-1.59578,-0.720212,-1.555742
 H,0,-3.400531,-0.069197,-0.18314
 H,0,-0.664423,1.846262,-0.596549
 H,0,0.393712,0.992979,-1.761547
 H,0,1.185781,1.519637,0.866936
 Recover connectivity data from disk.
                           ----------------------------
                           !    Current Parameters    !
                           ! (Angstroms and Degrees)  !
 --------------------------                            --------------------------
 ! Name  Definition              Value                                          !
 --------------------------------------------------------------------------------
 ! R1    R(1,2)                  1.462                                          !
 ! R2    R(1,9)                  1.0181                                         !
 ! R3    R(1,10)                 1.0201                                         !
 ! R4    R(2,3)                  1.5384                                         !
 ! R5    R(2,5)                  1.5298                                         !
 ! R6    R(2,7)                  1.5472                                         !
 ! R7    R(3,4)                  1.3945                                         !
 ! R8    R(3,11)                 1.1127                                         !
 ! R9    R(3,12)                 1.1067                                         !
 ! R10   R(4,13)                 0.9756                                         !
 ! R11   R(5,6)                  1.4077                                         !
 ! R12   R(5,14)                 1.1101                                         !
 ! R13   R(5,15)                 1.1097                                         !
 ! R14   R(6,16)                 0.9648                                         !
 ! R15   R(7,8)                  1.406                                          !
 ! R16   R(7,17)                 1.1075                                         !
 ! R17   R(7,18)                 1.1036                                         !
 ! R18   R(8,19)                 0.9826                                         !
 ! A1    A(2,1,9)              112.6418                                         !
 ! A2    A(2,1,10)             110.2251                                         !
 ! A3    A(9,1,10)             109.8642                                         !
 ! A4    A(1,2,3)              109.9225                                         !
 ! A5    A(1,2,5)              112.0547                                         !
 ! A6    A(1,2,7)              105.573                                          !
 ! A7    A(3,2,5)              108.9287                                         !
 ! A8    A(3,2,7)              109.791                                          !
 ! A9    A(5,2,7)              110.5272                                         !
 ! A10   A(2,3,4)              113.7553                                         !
 ! A11   A(2,3,11)             107.8963                                         !
 ! A12   A(2,3,12)             109.2253                                         !
 ! A13   A(4,3,11)             111.8792                                         !
 ! A14   A(4,3,12)             106.9957                                         !
 ! A15   A(11,3,12)            106.8504                                         !
 ! A16   A(3,4,13)             107.495                                          !
 ! A17   A(2,5,6)              108.2284                                         !
 ! A18   A(2,5,14)             108.922                                          !
 ! A19   A(2,5,15)             109.5879                                         !
 ! A20   A(6,5,14)             110.9043                                         !
 ! A21   A(6,5,15)             111.3585                                         !
 ! A22   A(14,5,15)            107.8095                                         !
 ! A23   A(5,6,16)             109.4809                                         !
 ! A24   A(2,7,8)              109.1367                                         !
 ! A25   A(2,7,17)             109.351                                          !
 ! A26   A(2,7,18)             110.8572                                         !
 ! A27   A(8,7,17)             111.2717                                         !
 ! A28   A(8,7,18)             108.0938                                         !
 ! A29   A(17,7,18)            108.1278                                         !
 ! A30   A(7,8,19)             102.8041                                         !
 ! D1    D(9,1,2,3)            -28.6932                                         !
 ! D2    D(9,1,2,5)             92.5799                                         !
 ! D3    D(9,1,2,7)           -147.0446                                         !
 ! D4    D(10,1,2,3)          -151.7887                                         !
 ! D5    D(10,1,2,5)           -30.5156                                         !
 ! D6    D(10,1,2,7)            89.8598                                         !
 ! D7    D(1,2,3,4)            -54.1046                                         !
 ! D8    D(1,2,3,11)          -178.8528                                         !
 ! D9    D(1,2,3,12)            65.3481                                         !
 ! D10   D(5,2,3,4)           -177.2331                                         !
 ! D11   D(5,2,3,11)            58.0187                                         !
 ! D12   D(5,2,3,12)           -57.7804                                         !
 ! D13   D(7,2,3,4)             61.6108                                         !
 ! D14   D(7,2,3,11)           -63.1374                                         !
 ! D15   D(7,2,3,12)          -178.9365                                         !
 ! D16   D(1,2,5,6)             50.4053                                         !
 ! D17   D(1,2,5,14)           -70.2596                                         !
 ! D18   D(1,2,5,15)           172.019                                          !
 ! D19   D(3,2,5,6)            172.2491                                         !
 ! D20   D(3,2,5,14)            51.5842                                         !
 ! D21   D(3,2,5,15)           -66.1372                                         !
 ! D22   D(7,2,5,6)            -67.0459                                         !
 ! D23   D(7,2,5,14)           172.2892                                         !
 ! D24   D(7,2,5,15)            54.5678                                         !
 ! D25   D(1,2,7,8)             48.4644                                         !
 ! D26   D(1,2,7,17)           -73.4646                                         !
 ! D27   D(1,2,7,18)           167.4115                                         !
 ! D28   D(3,2,7,8)            -69.9749                                         !
 ! D29   D(3,2,7,17)           168.0961                                         !
 ! D30   D(3,2,7,18)            48.9722                                         !
 ! D31   D(5,2,7,8)            169.8355                                         !
 ! D32   D(5,2,7,17)            47.9065                                         !
 ! D33   D(5,2,7,18)           -71.2174                                         !
 ! D34   D(2,3,4,13)           -41.1713                                         !
 ! D35   D(11,3,4,13)           81.4132                                         !
 ! D36   D(12,3,4,13)         -161.8829                                         !
 ! D37   D(2,5,6,16)          -177.4854                                         !
 ! D38   D(14,5,6,16)          -58.0621                                         !
 ! D39   D(15,5,6,16)           61.9983                                         !
 ! D40   D(2,7,8,19)           -42.8618                                         !
 ! D41   D(17,7,8,19)           77.9                                            !
 ! D42   D(18,7,8,19)         -163.5155                                         !
 --------------------------------------------------------------------------------
                    Distance matrix (angstroms):
                    1          2          3          4          5
     1  N    0.000000
     2  C    1.461981   0.000000
     3  C    2.456972   1.538372   0.000000
     4  O    2.865696   2.457548   1.394493   0.000000
     5  C    2.481389   1.529803   2.496744   3.762160   0.000000
     6  O    2.767691   2.380969   3.722576   4.825982   1.407657
     7  C    2.397048   1.547226   2.524347   2.977736   2.528666
     8  O    2.651426   2.407737   2.989808   2.758985   3.746782
     9  H    1.018136   2.078470   2.499191   2.768017   2.984992
    10  H    1.020083   2.051610   3.304242   3.871576   2.509142
    11  H    3.402637   2.157969   1.112738   2.083094   2.690762
    12  H    2.747284   2.170836   1.106680   2.017805   2.707197
    13  H    2.885956   2.490061   1.927259   0.975580   3.933558
    14  H    2.815136   2.161931   2.650978   3.961321   1.110075
    15  H    3.426592   2.170286   2.782790   4.088410   1.109745
    16  H    3.658337   3.233332   4.432926   5.635379   1.954026
    17  H    2.749246   2.180824   3.475155   4.034459   2.672622
    18  H    3.364952   2.197197   2.693630   3.194412   2.880633
    19  H    2.030337   2.354309   3.067300   2.791253   3.748161
                    6          7          8          9         10
     6  O    0.000000
     7  C    2.947807   0.000000
     8  O    4.123736   1.406042   0.000000
     9  H    3.452439   3.256442   3.372991   0.000000
    10  H    2.270668   2.846672   3.282822   1.668226   0.000000
    11  H    4.019640   2.761829   3.435669   3.569681   4.146851
    12  H    3.958046   3.484558   3.973294   2.422054   3.492344
    13  H    4.831654   2.479654   1.937781   3.066090   3.859346
    14  H    2.080592   3.483391   4.559213   2.951275   2.849187
    15  H    2.085882   2.722342   4.064314   3.952847   3.547787
    16  H    0.964815   3.821397   5.056916   4.237242   3.100581
    17  H    2.539722   1.107484   2.081664   3.738584   2.804252
    18  H    3.512810   1.103583   2.039283   4.118880   3.855981
    19  H    4.001966   1.885457   0.982648   2.701029   2.651068
                   11         12         13         14         15
    11  H    0.000000
    12  H    1.782373   0.000000
    13  H    2.462787   2.811199   0.000000
    14  H    2.924133   2.384984   4.374636   0.000000
    15  H    2.508602   3.127460   4.215933   1.793701   0.000000
    16  H    4.608054   4.540155   5.707014   2.328631   2.359022
    17  H    3.697111   4.316018   3.536558   3.734707   2.893832
    18  H    2.474563   3.725519   2.711922   3.827040   2.633526
    19  H    3.783240   3.867884   2.141710   4.436005   4.315481
                   16         17         18         19
    16  H    0.000000
    17  H    3.365439   0.000000
    18  H    4.244510   1.790241   0.000000
    19  H    4.966016   2.381539   2.795293   0.000000
 Framework group  C1[X(C4H11NO3)]
 Deg. of freedom    51
                         Standard orientation:                         
 ---------------------------------------------------------------------
 Center     Atomic      Atomic             Coordinates (Angstroms)
 Number     Number       Type             X           Y           Z
 ---------------------------------------------------------------------
      1          7           0       -0.122212    0.074049    1.434121
      2          6           0       -0.174685   -0.194031   -0.002113
      3          6           0        0.863227   -1.267122   -0.373331
      4          8           0        2.158755   -0.963754    0.044024
      5          6           0       -1.559344   -0.667681   -0.447840
      6          8           0       -2.516093    0.234490    0.054373
      7          6           0        0.187594    1.144682   -0.688049
      8          8           0        1.347109    1.669700   -0.090692
      9          1           0        0.186500   -0.733090    1.972475
     10          1           0       -1.034349    0.385314    1.768322
     11          1           0        0.809083   -1.429330   -1.472850
     12          1           0        0.584769   -2.224795    0.106318
     13          1           0        2.305901   -0.013944   -0.123206
     14          1           0       -1.734103   -1.690534   -0.053509
     15          1           0       -1.595780   -0.720212   -1.555742
     16          1           0       -3.400531   -0.069197   -0.183140
     17          1           0       -0.664423    1.846262   -0.596549
     18          1           0        0.393712    0.992979   -1.761547
     19          1           0        1.185781    1.519637    0.866936
 ---------------------------------------------------------------------
 Rotational constants (GHZ):           2.9079897           1.5530597           1.2968509
   134 basis functions,   244 primitive gaussians,   142 cartesian basis functions
    33 alpha electrons       33 beta electrons
       nuclear repulsion energy       439.6476846559 Hartrees.
 NAtoms=   19 NActive=   19 NUniq=   19 SFac= 1.00D+00 NAtFMM=   60 NAOKFM=F Big=F
 Nuclear repulsion after empirical dispersion term =      439.6353480756 Hartrees.
   1 Symmetry operations used in ECPInt.
 ECPInt:  NShTT=    2485 NPrTT=   10007 LenC2=    2466 LenP2D=    7959.
 LDataN:  DoStor=T MaxTD1= 4 Len=   56
 Initial guess from the checkpoint file:  "22.chk"
 B after Tr=    -0.000000    0.000000    0.000000
         Rot=    1.000000   -0.000000   -0.000000    0.000000 Ang=   0.00 deg.
 Skip diagonalization as Alpha Fock matrix is already diagonal.
 SCF Done:  E(RwB97XD) =  -438.949731783     A.U. after    1 cycles
            NFock=  1  Conv=0.00D+00     -V/T= 2.0081

 **********************************************************************

            Population analysis using the SCF Density.

 **********************************************************************

 Orbital symmetries:
       Occupied  (A) (A) (A) (A) (A) (A) (A) (A) (A) (A) (A) (A)
                 (A) (A) (A) (A) (A) (A) (A) (A) (A) (A) (A) (A)
                 (A) (A) (A) (A) (A) (A) (A) (A) (A)
       Virtual   (A) (A) (A) (A) (A) (A) (A) (A) (A) (A) (A) (A)
                 (A) (A) (A) (A) (A) (A) (A) (A) (A) (A) (A) (A)
                 (A) (A) (A) (A) (A) (A) (A) (A) (A) (A) (A) (A)
                 (A) (A) (A) (A) (A) (A) (A) (A) (A) (A) (A) (A)
                 (A) (A) (A) (A) (A) (A) (A) (A) (A) (A) (A) (A)
                 (A) (A) (A) (A) (A) (A) (A) (A) (A) (A) (A) (A)
                 (A) (A) (A) (A) (A) (A) (A) (A) (A) (A) (A) (A)
                 (A) (A) (A) (A) (A) (A) (A) (A) (A) (A) (A) (A)
                 (A) (A) (A) (A) (A)
 The electronic state is 1-A.
 Alpha  occ. eigenvalues --  -19.27150 -19.24425 -19.23150 -14.42910 -10.35308
 Alpha  occ. eigenvalues --  -10.33821 -10.33521 -10.33144  -1.13590  -1.11952
 Alpha  occ. eigenvalues --   -1.09410  -0.98662  -0.85646  -0.76478  -0.76131
 Alpha  occ. eigenvalues --   -0.67267  -0.64066  -0.59684  -0.59341  -0.58055
 Alpha  occ. eigenvalues --   -0.55675  -0.53505  -0.51927  -0.49493  -0.48739
 Alpha  occ. eigenvalues --   -0.47881  -0.45078  -0.41867  -0.40611  -0.37823
 Alpha  occ. eigenvalues --   -0.34848  -0.34718  -0.32849
 Alpha virt. eigenvalues --    0.11299   0.14333   0.15793   0.16823   0.19761
 Alpha virt. eigenvalues --    0.21047   0.21410   0.21836   0.22517   0.23291
 Alpha virt. eigenvalues --    0.25838   0.27249   0.28736   0.30454   0.31532
 Alpha virt. eigenvalues --    0.34257   0.36688   0.37499   0.54552   0.55185
 Alpha virt. eigenvalues --    0.57149   0.57577   0.59112   0.62303   0.64053
 Alpha virt. eigenvalues --    0.65760   0.67666   0.69068   0.70092   0.71719
 Alpha virt. eigenvalues --    0.72743   0.74408   0.76688   0.76909   0.77523
 Alpha virt. eigenvalues --    0.78847   0.79557   0.81131   0.83093   0.84996
 Alpha virt. eigenvalues --    0.85660   0.87797   0.94291   0.97155   1.02923
 Alpha virt. eigenvalues --    1.06456   1.09283   1.11464   1.15339   1.17109
 Alpha virt. eigenvalues --    1.19488   1.21464   1.24326   1.30132   1.34645
 Alpha virt. eigenvalues --    1.35527   1.42059   1.45476   1.52384   1.58865
 Alpha virt. eigenvalues --    1.60934   1.68460   1.73170   1.82342   1.83677
 Alpha virt. eigenvalues --    1.86322   1.92154   1.94299   1.96694   2.03486
 Alpha virt. eigenvalues --    2.05290   2.10535   2.13977   2.15822   2.18902
 Alpha virt. eigenvalues --    2.20616   2.28478   2.38385   2.39114   2.45648
 Alpha virt. eigenvalues --    2.57460   2.60031   2.67661   2.70056   2.71365
 Alpha virt. eigenvalues --    2.77403   2.79404   2.81088   2.94710   2.95841
 Alpha virt. eigenvalues --    2.96343   2.97648   3.04324   3.06110   3.08741
 Alpha virt. eigenvalues --    3.10911   3.15215   3.17499   3.45424   3.49444
 Alpha virt. eigenvalues --    3.50973
          Condensed to atoms (all electrons):
 Mulliken charges:
               1
     1  N   -0.514860
     2  C   -0.265135
     3  C    0.100447
     4  O   -0.498585
     5  C    0.059445
     6  O   -0.483343
     7  C    0.084463
     8  O   -0.507828
     9  H    0.236710
    10  H    0.246521
    11  H    0.084242
    12  H    0.090355
    13  H    0.320688
    14  H    0.088739
    15  H    0.091676
    16  H    0.327351
    17  H    0.110115
    18  H    0.100582
    19  H    0.328415
 Sum of Mulliken charges =  -0.00000
 Mulliken charges with hydrogens summed into heavy atoms:
               1
     1  N   -0.031628
     2  C   -0.265135
     3  C    0.275044
     4  O   -0.177896
     5  C    0.239860
     6  O   -0.155991
     7  C    0.295160
     8  O   -0.179413
 Electronic spatial extent (au):  <R**2>=           1009.6688
 Charge=              0.0000 electrons
 Dipole moment (field-independent basis, Debye):
    X=             -4.3344    Y=             -1.6594    Z=             -0.2174  Tot=              4.6463
 Evaluate density.
 Using the total density.
 Monte-Carlo method of calculating molar volume:
 based on  0.001 e/bohr**3 density envelope.
 Number of points per bohr**3 =  100 CutOff= 1.00D-04
 Using the SCF density.
 There are      1741 points.  Will hold      1741 in memory.
 LenV=  1048302616 MDV=  1048576000.
 Box volume = 5284.243 fraction occupied=0.198
 Integrated density= 6.1936167282275527D+01 error=-4.0638327177244733D+00
 Molar volume = 1047.136 bohr**3/mol ( 93.445 cm**3/mol)
 Recommended a0 for SCRF calculation =  4.17 angstrom (  7.88 bohr)
 1\1\GINC-C324\SP\RwB97XD\def2SVPP\C4H11N1O3\PETERCHAO1\23-Sep-2022\0\\
 #T wB97XD//def2svpp Volume=tight Geom=AllCheckpoint Guess=Read\\Monome
 r\\0,1\N,0,-0.122212,0.074049,1.434121\C,0,-0.174685,-0.194031,-0.0021
 13\C,0,0.863227,-1.267122,-0.373331\O,0,2.158755,-0.963754,0.044024\C,
 0,-1.559344,-0.667681,-0.44784\O,0,-2.516093,0.23449,0.054373\C,0,0.18
 7594,1.144682,-0.688049\O,0,1.347109,1.6697,-0.090692\H,0,0.1865,-0.73
 309,1.972475\H,0,-1.034349,0.385314,1.768322\H,0,0.809083,-1.42933,-1.
 47285\H,0,0.584769,-2.224795,0.106318\H,0,2.305901,-0.013944,-0.123206
 \H,0,-1.734103,-1.690534,-0.053509\H,0,-1.59578,-0.720212,-1.555742\H,
 0,-3.400531,-0.069197,-0.18314\H,0,-0.664423,1.846262,-0.596549\H,0,0.
 393712,0.992979,-1.761547\H,0,1.185781,1.519637,0.866936\\Version=ES64
 L-G16RevB.01\State=1-A\HF=-438.9497318\RMSD=0.000e+00\Dipole=-1.705299
 3,-0.6528403,-0.0855126\Quadrupole=0.2089427,-2.7056508,2.496708,2.880
 2243,0.838458,0.2975331\PG=C01 [X(C4H11N1O3)]\\@


 YOU ARE IN A MAZE OF TWISTY LITTLE PASSAGES.
 Job cpu time:       0 days  0 hours  0 minutes 12.5 seconds.
 Elapsed time:       0 days  0 hours  0 minutes  3.4 seconds.
 File lengths (MBytes):  RWF=     10 Int=      0 D2E=      0 Chk=      3 Scr=      1
 Normal termination of Gaussian 16 at Fri Sep 23 14:21:48 2022.
