 Entering Gaussian System, Link 0=g16
 Input=gaussian_test.inp
 Output=gaussian_test.log
 Initial command:
 /sw/restricted/lms/sw/Gaussian/g16_B01/g16/l1.exe "/scratch/user/peterchao1/peterchao1/6113320_1660079103000000690140297/Gau-36358.inp" -scrdir="/scratch/user/peterchao1/peterchao1/6113320_1660079103000000690140297/"
 Entering Link 1 = /sw/restricted/lms/sw/Gaussian/g16_B01/g16/l1.exe PID=     36359.
  
 Copyright (c) 1988-2017, Gaussian, Inc.  All Rights Reserved.
  
 This is part of the Gaussian(R) 16 program.  It is based on
 the Gaussian(R) 09 system (copyright 2009, Gaussian, Inc.),
 the Gaussian(R) 03 system (copyright 2003, Gaussian, Inc.),
 the Gaussian(R) 98 system (copyright 1998, Gaussian, Inc.),
 the Gaussian(R) 94 system (copyright 1995, Gaussian, Inc.),
 the Gaussian 92(TM) system (copyright 1992, Gaussian, Inc.),
 the Gaussian 90(TM) system (copyright 1990, Gaussian, Inc.),
 the Gaussian 88(TM) system (copyright 1988, Gaussian, Inc.),
 the Gaussian 86(TM) system (copyright 1986, Carnegie Mellon
 University), and the Gaussian 82(TM) system (copyright 1983,
 Carnegie Mellon University). Gaussian is a federally registered
 trademark of Gaussian, Inc.
  
 This software contains proprietary and confidential information,
 including trade secrets, belonging to Gaussian, Inc.
  
 This software is provided under written license and may be
 used, copied, transmitted, or stored only in accord with that
 written license.
  
 The following legend is applicable only to US Government
 contracts under FAR:
  
                    RESTRICTED RIGHTS LEGEND
  
 Use, reproduction and disclosure by the US Government is
 subject to restrictions as set forth in subparagraphs (a)
 and (c) of the Commercial Computer Software - Restricted
 Rights clause in FAR 52.227-19.
  
 Gaussian, Inc.
 340 Quinnipiac St., Bldg. 40, Wallingford CT 06492
  
  
 ---------------------------------------------------------------
 Warning -- This program may not be used in any manner that
 competes with the business of Gaussian, Inc. or will provide
 assistance to any competitor of Gaussian, Inc.  The licensee
 of this program is prohibited from giving any competitor of
 Gaussian, Inc. access to this program.  By using this program,
 the user acknowledges that Gaussian, Inc. is engaged in the
 business of creating and licensing software in the field of
 computational chemistry and represents and warrants to the
 licensee that it is not a competitor of Gaussian, Inc. and that
 it will not use this program in any manner prohibited above.
 ---------------------------------------------------------------
  

 Cite this work as:
 Gaussian 16, Revision B.01,
 M. J. Frisch, G. W. Trucks, H. B. Schlegel, G. E. Scuseria, 
 M. A. Robb, J. R. Cheeseman, G. Scalmani, V. Barone, 
 G. A. Petersson, H. Nakatsuji, X. Li, M. Caricato, A. V. Marenich, 
 J. Bloino, B. G. Janesko, R. Gomperts, B. Mennucci, H. P. Hratchian, 
 J. V. Ortiz, A. F. Izmaylov, J. L. Sonnenberg, D. Williams-Young, 
 F. Ding, F. Lipparini, F. Egidi, J. Goings, B. Peng, A. Petrone, 
 T. Henderson, D. Ranasinghe, V. G. Zakrzewski, J. Gao, N. Rega, 
 G. Zheng, W. Liang, M. Hada, M. Ehara, K. Toyota, R. Fukuda, 
 J. Hasegawa, M. Ishida, T. Nakajima, Y. Honda, O. Kitao, H. Nakai, 
 T. Vreven, K. Throssell, J. A. Montgomery, Jr., J. E. Peralta, 
 F. Ogliaro, M. J. Bearpark, J. J. Heyd, E. N. Brothers, K. N. Kudin, 
 V. N. Staroverov, T. A. Keith, R. Kobayashi, J. Normand, 
 K. Raghavachari, A. P. Rendell, J. C. Burant, S. S. Iyengar, 
 J. Tomasi, M. Cossi, J. M. Millam, M. Klene, C. Adamo, R. Cammi, 
 J. W. Ochterski, R. L. Martin, K. Morokuma, O. Farkas, 
 J. B. Foresman, and D. J. Fox, Gaussian, Inc., Wallingford CT, 2016.
 
 ******************************************
 Gaussian 16:  ES64L-G16RevB.01 20-Dec-2017
                 9-Aug-2022 
 ******************************************
 %nprocshared=4
 Will use up to    4 processors via shared memory.
 %mem=8000mb
 ----------------------------------------------------------------------
 #T wB97XD/def2svpp opt=tight freq int(grid=ultrafine) scf=(verytight,q
 c)
 ----------------------------------------------------------------------
 -----
 dimer
 -----
 Symbolic Z-matrix:
 Charge =  0 Multiplicity = 1
 O                    -1.81097   1.65297  -0.3823 
 C                    -2.48373   1.37824   0.82191 
 C                    -2.92316  -0.09273   0.97244 
 C                    -3.7966   -0.51293  -0.2224 
 O                    -3.10095  -0.46827  -1.44752 
 C                    -1.73494  -1.0519    1.13766 
 O                    -0.90369  -1.12307   0.00581 
 H                    -0.88506   1.35709  -0.2958 
 H                    -3.37916   2.00963   0.81869 
 H                    -1.86828   1.66038   1.68456 
 H                    -3.53117  -0.16172   1.87963 
 H                    -4.68235   0.13676  -0.26614 
 H                    -4.13562  -1.54608  -0.09848 
 H                    -2.70928   0.4258   -1.49936 
 H                    -2.12602  -2.0536    1.37495 
 H                    -1.10227  -0.72619   1.96903 
 H                    -1.48903  -1.16609  -0.77323 
 O                     1.80989  -1.65323   0.38087 
 C                     2.48706  -1.37869  -0.82091 
 C                     2.92619   0.09247  -0.9705 
 C                     1.73807   1.05097  -1.14044 
 O                     0.90361   1.12363  -0.01111 
 C                     3.79514   0.51356   0.22734 
 O                     3.09516   0.46885   1.44996 
 H                     0.88437  -1.35685   0.29128 
 H                     1.87514  -1.66171  -1.68583 
 H                     3.38287  -2.00957  -0.81385 
 H                     3.53748   0.16139  -1.87548 
 H                     1.10787   0.72371  -1.97311 
 H                     2.12948   2.05243  -1.37822 
 H                     1.48672   1.16662   0.76957 
 H                     4.13404   1.54684   0.1043 
 H                     4.68107  -0.13561   0.27444 
 H                     2.70368  -0.42539   1.50057 
 
 Add virtual bond connecting atoms O22        and H8         Dist= 3.45D+00.
 Add virtual bond connecting atoms H25        and O7         Dist= 3.45D+00.

 GradGradGradGradGradGradGradGradGradGradGradGradGradGradGradGradGradGrad
 Initialization pass.
                           ----------------------------
                           !    Initial Parameters    !
                           ! (Angstroms and Degrees)  !
 --------------------------                            --------------------------
 ! Name  Definition              Value          Derivative Info.                !
 --------------------------------------------------------------------------------
 ! R1    R(1,2)                  1.4065         estimate D2E/DX2                !
 ! R2    R(1,8)                  0.9759         estimate D2E/DX2                !
 ! R3    R(2,3)                  1.5426         estimate D2E/DX2                !
 ! R4    R(2,9)                  1.0957         estimate D2E/DX2                !
 ! R5    R(2,10)                 1.0966         estimate D2E/DX2                !
 ! R6    R(3,4)                  1.5385         estimate D2E/DX2                !
 ! R7    R(3,6)                  1.536          estimate D2E/DX2                !
 ! R8    R(3,11)                 1.0943         estimate D2E/DX2                !
 ! R9    R(4,5)                  1.4095         estimate D2E/DX2                !
 ! R10   R(4,12)                 1.0994         estimate D2E/DX2                !
 ! R11   R(4,13)                 1.0944         estimate D2E/DX2                !
 ! R12   R(5,14)                 0.9775         estimate D2E/DX2                !
 ! R13   R(6,7)                  1.4061         estimate D2E/DX2                !
 ! R14   R(6,15)                 1.1012         estimate D2E/DX2                !
 ! R15   R(6,16)                 1.0943         estimate D2E/DX2                !
 ! R16   R(7,17)                 0.9754         estimate D2E/DX2                !
 ! R17   R(7,25)                 1.8257         estimate D2E/DX2                !
 ! R18   R(8,22)                 1.8262         estimate D2E/DX2                !
 ! R19   R(18,19)                1.4065         estimate D2E/DX2                !
 ! R20   R(18,25)                0.9759         estimate D2E/DX2                !
 ! R21   R(19,20)                1.5426         estimate D2E/DX2                !
 ! R22   R(19,26)                1.0966         estimate D2E/DX2                !
 ! R23   R(19,27)                1.0957         estimate D2E/DX2                !
 ! R24   R(20,21)                1.536          estimate D2E/DX2                !
 ! R25   R(20,23)                1.5386         estimate D2E/DX2                !
 ! R26   R(20,28)                1.0943         estimate D2E/DX2                !
 ! R27   R(21,22)                1.4061         estimate D2E/DX2                !
 ! R28   R(21,29)                1.0943         estimate D2E/DX2                !
 ! R29   R(21,30)                1.1012         estimate D2E/DX2                !
 ! R30   R(22,31)                0.9754         estimate D2E/DX2                !
 ! R31   R(23,24)                1.4095         estimate D2E/DX2                !
 ! R32   R(23,32)                1.0944         estimate D2E/DX2                !
 ! R33   R(23,33)                1.0993         estimate D2E/DX2                !
 ! R34   R(24,34)                0.9775         estimate D2E/DX2                !
 ! A1    A(2,1,8)              108.5854         estimate D2E/DX2                !
 ! A2    A(1,2,3)              113.9588         estimate D2E/DX2                !
 ! A3    A(1,2,9)              106.0124         estimate D2E/DX2                !
 ! A4    A(1,2,10)             110.7823         estimate D2E/DX2                !
 ! A5    A(3,2,9)              108.481          estimate D2E/DX2                !
 ! A6    A(3,2,10)             109.1746         estimate D2E/DX2                !
 ! A7    A(9,2,10)             108.2227         estimate D2E/DX2                !
 ! A8    A(2,3,4)              110.2656         estimate D2E/DX2                !
 ! A9    A(2,3,6)              112.6819         estimate D2E/DX2                !
 ! A10   A(2,3,11)             107.4163         estimate D2E/DX2                !
 ! A11   A(4,3,6)              110.6194         estimate D2E/DX2                !
 ! A12   A(4,3,11)             108.1303         estimate D2E/DX2                !
 ! A13   A(6,3,11)             107.535          estimate D2E/DX2                !
 ! A14   A(3,4,5)              112.7159         estimate D2E/DX2                !
 ! A15   A(3,4,12)             109.0802         estimate D2E/DX2                !
 ! A16   A(3,4,13)             110.2282         estimate D2E/DX2                !
 ! A17   A(5,4,12)             110.1411         estimate D2E/DX2                !
 ! A18   A(5,4,13)             106.3325         estimate D2E/DX2                !
 ! A19   A(12,4,13)            108.2294         estimate D2E/DX2                !
 ! A20   A(4,5,14)             105.8333         estimate D2E/DX2                !
 ! A21   A(3,6,7)              113.7253         estimate D2E/DX2                !
 ! A22   A(3,6,15)             108.451          estimate D2E/DX2                !
 ! A23   A(3,6,16)             110.0659         estimate D2E/DX2                !
 ! A24   A(7,6,15)             109.7161         estimate D2E/DX2                !
 ! A25   A(7,6,16)             106.548          estimate D2E/DX2                !
 ! A26   A(15,6,16)            108.2016         estimate D2E/DX2                !
 ! A27   A(6,7,17)             106.8804         estimate D2E/DX2                !
 ! A28   A(6,7,25)             117.3607         estimate D2E/DX2                !
 ! A29   A(17,7,25)            134.9888         estimate D2E/DX2                !
 ! A30   A(19,18,25)           108.5946         estimate D2E/DX2                !
 ! A31   A(18,19,20)           113.9589         estimate D2E/DX2                !
 ! A32   A(18,19,26)           110.786          estimate D2E/DX2                !
 ! A33   A(18,19,27)           106.0054         estimate D2E/DX2                !
 ! A34   A(20,19,26)           109.1776         estimate D2E/DX2                !
 ! A35   A(20,19,27)           108.4824         estimate D2E/DX2                !
 ! A36   A(26,19,27)           108.2209         estimate D2E/DX2                !
 ! A37   A(19,20,21)           112.6853         estimate D2E/DX2                !
 ! A38   A(19,20,23)           110.2608         estimate D2E/DX2                !
 ! A39   A(19,20,28)           107.4152         estimate D2E/DX2                !
 ! A40   A(21,20,23)           110.6232         estimate D2E/DX2                !
 ! A41   A(21,20,28)           107.5366         estimate D2E/DX2                !
 ! A42   A(23,20,28)           108.1272         estimate D2E/DX2                !
 ! A43   A(20,21,22)           113.7316         estimate D2E/DX2                !
 ! A44   A(20,21,29)           110.0609         estimate D2E/DX2                !
 ! A45   A(20,21,30)           108.4486         estimate D2E/DX2                !
 ! A46   A(22,21,29)           106.5482         estimate D2E/DX2                !
 ! A47   A(22,21,30)           109.7169         estimate D2E/DX2                !
 ! A48   A(29,21,30)           108.2013         estimate D2E/DX2                !
 ! A49   A(8,22,21)            117.5605         estimate D2E/DX2                !
 ! A50   A(8,22,31)            134.8057         estimate D2E/DX2                !
 ! A51   A(21,22,31)           106.8791         estimate D2E/DX2                !
 ! A52   A(20,23,24)           112.7154         estimate D2E/DX2                !
 ! A53   A(20,23,32)           110.2293         estimate D2E/DX2                !
 ! A54   A(20,23,33)           109.0804         estimate D2E/DX2                !
 ! A55   A(24,23,32)           106.3346         estimate D2E/DX2                !
 ! A56   A(24,23,33)           110.1394         estimate D2E/DX2                !
 ! A57   A(32,23,33)           108.2283         estimate D2E/DX2                !
 ! A58   A(23,24,34)           105.8319         estimate D2E/DX2                !
 ! A59   L(1,8,22,6,-1)        186.8977         estimate D2E/DX2                !
 ! A60   L(7,25,18,21,-1)      186.9945         estimate D2E/DX2                !
 ! A61   L(1,8,22,6,-2)        188.4789         estimate D2E/DX2                !
 ! A62   L(7,25,18,21,-2)      188.3525         estimate D2E/DX2                !
 ! D1    D(8,1,2,3)            -79.5624         estimate D2E/DX2                !
 ! D2    D(8,1,2,9)            161.2019         estimate D2E/DX2                !
 ! D3    D(8,1,2,10)            44.0155         estimate D2E/DX2                !
 ! D4    D(2,1,22,21)          166.7487         estimate D2E/DX2                !
 ! D5    D(2,1,22,31)          -29.7752         estimate D2E/DX2                !
 ! D6    D(1,2,3,4)            -55.8952         estimate D2E/DX2                !
 ! D7    D(1,2,3,6)             68.2421         estimate D2E/DX2                !
 ! D8    D(1,2,3,11)          -173.5068         estimate D2E/DX2                !
 ! D9    D(9,2,3,4)             61.9307         estimate D2E/DX2                !
 ! D10   D(9,2,3,6)           -173.932          estimate D2E/DX2                !
 ! D11   D(9,2,3,11)           -55.6809         estimate D2E/DX2                !
 ! D12   D(10,2,3,4)           179.6606         estimate D2E/DX2                !
 ! D13   D(10,2,3,6)           -56.2021         estimate D2E/DX2                !
 ! D14   D(10,2,3,11)           62.049          estimate D2E/DX2                !
 ! D15   D(2,3,4,5)             63.2576         estimate D2E/DX2                !
 ! D16   D(2,3,4,12)           -59.4119         estimate D2E/DX2                !
 ! D17   D(2,3,4,13)          -178.1118         estimate D2E/DX2                !
 ! D18   D(6,3,4,5)            -62.061          estimate D2E/DX2                !
 ! D19   D(6,3,4,12)           175.2695         estimate D2E/DX2                !
 ! D20   D(6,3,4,13)            56.5696         estimate D2E/DX2                !
 ! D21   D(11,3,4,5)          -179.5726         estimate D2E/DX2                !
 ! D22   D(11,3,4,12)           57.7579         estimate D2E/DX2                !
 ! D23   D(11,3,4,13)          -60.942          estimate D2E/DX2                !
 ! D24   D(2,3,6,7)            -65.2337         estimate D2E/DX2                !
 ! D25   D(2,3,6,15)           172.415          estimate D2E/DX2                !
 ! D26   D(2,3,6,16)            54.2222         estimate D2E/DX2                !
 ! D27   D(4,3,6,7)             58.7084         estimate D2E/DX2                !
 ! D28   D(4,3,6,15)           -63.6429         estimate D2E/DX2                !
 ! D29   D(4,3,6,16)           178.1643         estimate D2E/DX2                !
 ! D30   D(11,3,6,7)           176.5848         estimate D2E/DX2                !
 ! D31   D(11,3,6,15)           54.2335         estimate D2E/DX2                !
 ! D32   D(11,3,6,16)          -63.9593         estimate D2E/DX2                !
 ! D33   D(3,4,5,14)           -52.4003         estimate D2E/DX2                !
 ! D34   D(12,4,5,14)           69.6728         estimate D2E/DX2                !
 ! D35   D(13,4,5,14)         -173.2825         estimate D2E/DX2                !
 ! D36   D(3,6,7,17)           -43.1196         estimate D2E/DX2                !
 ! D37   D(3,6,7,25)           145.429          estimate D2E/DX2                !
 ! D38   D(15,6,7,17)           78.5314         estimate D2E/DX2                !
 ! D39   D(15,6,7,25)          -92.9201         estimate D2E/DX2                !
 ! D40   D(16,6,7,17)         -164.5561         estimate D2E/DX2                !
 ! D41   D(16,6,7,25)           23.9925         estimate D2E/DX2                !
 ! D42   D(6,7,18,19)         -166.7405         estimate D2E/DX2                !
 ! D43   D(17,7,18,19)          29.9288         estimate D2E/DX2                !
 ! D44   D(25,18,19,20)         79.4859         estimate D2E/DX2                !
 ! D45   D(25,18,19,26)        -44.0991         estimate D2E/DX2                !
 ! D46   D(25,18,19,27)       -161.2812         estimate D2E/DX2                !
 ! D47   D(18,19,20,21)        -68.2313         estimate D2E/DX2                !
 ! D48   D(18,19,20,23)         55.9097         estimate D2E/DX2                !
 ! D49   D(18,19,20,28)        173.5143         estimate D2E/DX2                !
 ! D50   D(26,19,20,21)         56.2202         estimate D2E/DX2                !
 ! D51   D(26,19,20,23)       -179.6388         estimate D2E/DX2                !
 ! D52   D(26,19,20,28)        -62.0342         estimate D2E/DX2                !
 ! D53   D(27,19,20,21)        173.9505         estimate D2E/DX2                !
 ! D54   D(27,19,20,23)        -61.9085         estimate D2E/DX2                !
 ! D55   D(27,19,20,28)         55.6961         estimate D2E/DX2                !
 ! D56   D(19,20,21,22)         65.3129         estimate D2E/DX2                !
 ! D57   D(19,20,21,29)        -54.144          estimate D2E/DX2                !
 ! D58   D(19,20,21,30)       -172.3322         estimate D2E/DX2                !
 ! D59   D(23,20,21,22)        -58.6282         estimate D2E/DX2                !
 ! D60   D(23,20,21,29)       -178.085          estimate D2E/DX2                !
 ! D61   D(23,20,21,30)         63.7267         estimate D2E/DX2                !
 ! D62   D(28,20,21,22)       -176.504          estimate D2E/DX2                !
 ! D63   D(28,20,21,29)         64.0392         estimate D2E/DX2                !
 ! D64   D(28,20,21,30)        -54.1491         estimate D2E/DX2                !
 ! D65   D(19,20,23,24)        -63.2528         estimate D2E/DX2                !
 ! D66   D(19,20,23,32)        178.1136         estimate D2E/DX2                !
 ! D67   D(19,20,23,33)         59.4143         estimate D2E/DX2                !
 ! D68   D(21,20,23,24)         62.0693         estimate D2E/DX2                !
 ! D69   D(21,20,23,32)        -56.5643         estimate D2E/DX2                !
 ! D70   D(21,20,23,33)       -175.2636         estimate D2E/DX2                !
 ! D71   D(28,20,23,24)        179.5831         estimate D2E/DX2                !
 ! D72   D(28,20,23,32)         60.9495         estimate D2E/DX2                !
 ! D73   D(28,20,23,33)        -57.7498         estimate D2E/DX2                !
 ! D74   D(20,21,22,8)        -145.454          estimate D2E/DX2                !
 ! D75   D(20,21,22,31)         43.0305         estimate D2E/DX2                !
 ! D76   D(29,21,22,8)         -24.0197         estimate D2E/DX2                !
 ! D77   D(29,21,22,31)        164.4648         estimate D2E/DX2                !
 ! D78   D(30,21,22,8)          92.8931         estimate D2E/DX2                !
 ! D79   D(30,21,22,31)        -78.6223         estimate D2E/DX2                !
 ! D80   D(20,23,24,34)         52.3884         estimate D2E/DX2                !
 ! D81   D(32,23,24,34)        173.273          estimate D2E/DX2                !
 ! D82   D(33,23,24,34)        -69.6834         estimate D2E/DX2                !
 --------------------------------------------------------------------------------
 Number of steps in this run=    188 maximum allowed number of steps=    204.
 GradGradGradGradGradGradGradGradGradGradGradGradGradGradGradGradGradGrad

                    Distance matrix (angstroms):
                    1          2          3          4          5
     1  O    0.000000
     2  C    1.406484   0.000000
     3  C    2.473818   1.542569   0.000000
     4  C    2.942690   2.527992   1.538546   0.000000
     5  O    2.701555   2.990123   2.455370   1.409544   0.000000
     6  C    3.103611   2.562414   1.535955   2.527980   2.981568
     7  O    2.946213   3.069051   2.464595   2.965343   2.714568
     8  H    0.975872   1.950752   2.804324   3.461123   3.093303
     9  H    2.007190   1.095650   2.156726   2.760693   3.369430
    10  H    2.067670   1.096607   2.166394   3.475368   3.982526
    11  H    3.371729   2.141825   1.094270   2.147637   3.368821
    12  H    3.249187   2.749372   2.163678   1.099350   2.064589
    13  H    3.964655   3.482460   2.174667   1.094390   2.012982
    14  H    1.886993   2.519188   2.534648   1.922004   0.977472
    15  H    4.114102   3.494470   2.154631   2.777769   3.380836
    16  H    3.419275   2.766397   2.170276   3.479553   3.966621
    17  H    2.864193   3.163465   2.501238   2.460669   1.881469
    18  O    4.962262   5.274420   5.018655   5.752997   5.372483
    19  C    5.277913   5.916773   5.842965   6.371191   5.696261
    20  C    5.022130   5.842355   6.166376   6.791320   6.071938
    21  C    3.678703   4.667064   5.243985   5.824184   5.081194
    22  O    2.790505   3.497542   4.134135   4.981459   4.542458
    23  C    5.753116   6.365951   6.786624   7.674007   7.164161
    24  O    5.369308   5.687308   6.063299   7.159404   6.904016
    25  H    4.096045   4.371082   4.069305   4.784092   4.437996
    26  H    5.125790   5.876204   5.705417   5.969081   5.122756
    27  H    6.369958   6.969208   6.828693   7.357611   6.694556
    28  H    5.749806   6.709061   7.065058   7.548247   6.681947
    29  H    3.451640   4.597835   5.058856   5.352386   4.405820
    30  H    4.083940   5.155267   5.971307   6.560139   5.806565
    31  H    3.526765   3.976423   4.590654   5.631901   5.351172
    32  H    5.965830   6.658691   7.296975   8.200265   7.669022
    33  H    6.765863   7.343417   7.636316   8.500593   7.977200
    34  H    5.314773   5.533790   5.661346   6.725314   6.510512
                    6          7          8          9         10
     6  C    0.000000
     7  O    1.406107   0.000000
     8  H    2.929218   2.498494   0.000000
     9  H    3.489715   4.074613   2.808630   0.000000
    10  H    2.770078   3.390607   2.231710   1.776074   0.000000
    11  H    2.137608   3.367350   3.747154   2.421455   2.474532
    12  H    3.474301   3.992417   3.988663   2.526416   3.747746
    13  H    2.745089   3.261162   4.362729   3.749199   4.312939
    14  H    3.175974   2.815080   2.375629   2.886283   3.516934
    15  H    1.101201   2.057795   3.995513   4.288301   3.735760
    16  H    1.094326   2.012762   3.084913   3.740610   2.522578
    17  H    1.930025   0.975381   2.638020   4.023926   3.764770
    18  O    3.674261   2.790213   4.096669   6.366666   5.119431
    19  C    4.665627   3.499425   4.373947   6.970038   5.872161
    20  C    5.242145   4.135056   4.071870   6.828915   5.700405
    21  C    4.655494   3.608215   2.772718   5.562666   4.621448
    22  O    3.607572   2.883448   1.826173   4.451478   3.293446
    23  C    5.819032   4.980622   4.784299   7.352443   5.959279
    24  O    5.073474   4.539891   4.436088   6.685006   5.109850
    25  H    2.769503   1.825735   3.292569   5.457927   4.315318
    26  H    4.623490   3.297525   4.320192   6.881788   6.033989
    27  H    5.560348   4.453345   5.460585   8.033932   6.876416
    28  H    6.192696   4.991295   4.846024   7.649469   6.644024
    29  H    4.572881   3.372395   2.680731   5.438857   4.807636
    30  H    5.558804   4.604287   3.277595   5.930714   5.051379
    31  H    3.928919   3.397063   2.607037   4.938602   3.512408
    32  H    6.501245   5.702349   5.038599   7.561256   6.207891
    33  H    6.538345   5.677745   5.790957   8.358558   6.935993
    34  H    4.497282   3.966629   4.391269   6.587497   5.028627
                   11         12         13         14         15
    11  H    0.000000
    12  H    2.453289   0.000000
    13  H    2.488924   1.777353   0.000000
    14  H    3.526795   2.344652   2.808061   0.000000
    15  H    2.410048   3.745082   2.543040   3.840474   0.000000
    16  H    2.495230   4.307860   3.761393   3.992410   1.778490
    17  H    3.495245   3.485952   2.757552   2.133168   2.409991
    18  O    5.744374   6.765495   5.965768   5.317948   4.079204
    19  C    6.707681   7.348794   6.664066   5.542418   5.153424
    20  C    7.062956   7.641200   7.301671   5.670036   5.969218
    21  C    6.193251   6.543850   6.506194   4.505395   5.558480
    22  O    4.989421   5.678194   5.703404   3.969235   4.603759
    23  C    7.540614   8.500193   8.200315   6.730278   6.554953
    24  O    6.670123   7.971511   7.664323   6.510908   5.799063
    25  H    4.842331   5.790506   5.038652   4.393013   3.274483
    26  H    6.647605   6.946273   6.217898   5.040772   5.052841
    27  H    7.646780   8.363877   7.566649   6.596605   5.927949
    28  H    8.010681   8.375927   8.059130   6.263654   6.895406
    29  H    6.094939   6.065055   6.013345   3.857955   5.420417
    30  H    6.896307   7.162930   7.337473   5.106294   6.522936
    31  H    5.308099   6.339610   6.302611   4.827344   4.877309
    32  H    8.051482   8.936118   8.831448   7.117546   7.332529
    33  H    8.367688   9.382966   8.936583   7.620948   7.157253
    34  H    6.251921   7.615158   7.112585   6.246935   5.098313
                   16         17         18         19         20
    16  H    0.000000
    17  H    2.804121   0.000000
    18  O    3.444178   3.528760   0.000000
    19  C    4.592691   3.982054   1.406485   0.000000
    20  C    5.053666   4.595332   2.473823   1.542571   0.000000
    21  C    4.571067   3.932480   3.103586   2.562483   1.535976
    22  O    3.371403   3.398292   2.947195   3.069963   2.464657
    23  C    5.343694   5.634252   2.942742   2.527940   1.538571
    24  O    4.394996   5.350742   2.701497   2.989988   2.455370
    25  H    2.675690   2.608179   0.975942   1.950911   2.803864
    26  H    4.806058   3.520814   2.067747   1.096647   2.166465
    27  H    5.432120   4.944541   2.007129   1.095689   2.156776
    28  H    6.090591   5.314411   3.371719   2.141805   1.094259
    29  H    4.746303   3.428550   3.418169   2.765823   2.170244
    30  H    5.419321   4.880428   4.114422   3.494430   2.154627
    31  H    3.424073   4.083729   2.864800   3.163683   2.500743
    32  H    6.005227   6.304677   3.964664   3.482421   2.174691
    33  H    6.055363   6.342686   3.249331   2.749315   2.163683
    34  H    3.846446   4.826755   1.886835   2.518918   2.534538
                   21         22         23         24         25
    21  C    0.000000
    22  O    1.406054   0.000000
    23  C    2.528074   2.964790   0.000000
    24  O    2.981736   2.714108   1.409528   0.000000
    25  H    2.928519   2.498918   3.460502   3.092461   0.000000
    26  H    2.770358   3.392151   3.475399   3.982578   2.232383
    27  H    3.489831   4.075296   2.760472   3.368999   2.808885
    28  H    2.137638   3.367346   2.147610   3.368782   3.746848
    29  H    1.094342   2.012731   3.479587   3.966318   3.083200
    30  H    1.101213   2.057769   2.778552   3.382140   3.995089
    31  H    1.929948   0.975359   2.459536   1.880670   2.638081
    32  H    2.745166   3.260074   1.094376   2.012984   4.361959
    33  H    3.474353   3.992047   1.099324   2.064535   3.988313
    34  H    3.176001   2.815119   1.921988   0.977495   2.374837
                   26         27         28         29         30
    26  H    0.000000
    27  H    1.776118   0.000000
    28  H    2.474478   2.421576   0.000000
    29  H    2.522194   3.740360   2.495742   0.000000
    30  H    3.735533   4.288282   2.409515   1.778511   0.000000
    31  H    3.765544   4.023775   3.494621   2.803921   2.410561
    32  H    4.313004   3.749040   2.488951   3.761765   2.543961
    33  H    3.747655   2.526152   2.453195   4.307862   3.745588
    34  H    3.516828   2.885728   3.526643   3.991673   3.841450
                   31         32         33         34
    31  H    0.000000
    32  H    2.755984   0.000000
    33  H    3.484946   1.777308   0.000000
    34  H    2.133040   2.808057   2.344663   0.000000
 Framework group  C1[X(C8H20O6)]
 Deg. of freedom    96
                         Standard orientation:                         
 ---------------------------------------------------------------------
 Center     Atomic      Atomic             Coordinates (Angstroms)
 Number     Number       Type             X           Y           Z
 ---------------------------------------------------------------------
      1          8           0        1.802340   -1.657012   -0.405261
      2          6           0        2.494129   -1.379641    0.787505
      3          6           0        2.938099    0.091090    0.926644
      4          6           0        3.793531    0.506230   -0.282909
      5          8           0        3.078888    0.458897   -1.496936
      6          6           0        1.754063    1.052642    1.107301
      7          8           0        0.905453    1.121639   -0.011732
      8          1           0        0.878346   -1.359397   -0.305322
      9          1           0        3.388432   -2.012446    0.772360
     10          1           0        1.891715   -1.658148    1.660476
     11          1           0        3.560223    0.161915    1.824069
     12          1           0        4.677500   -0.144995   -0.338366
     13          1           0        4.136018    1.539219   -0.167472
     14          1           0        2.685086   -0.434704   -1.539926
     15          1           0        2.150313    2.054444    1.335382
     16          1           0        1.133870    0.730490    1.949399
     17          1           0        1.478697    1.161344   -0.799884
     18          8           0       -1.801167    1.657244    0.403746
     19          6           0       -2.497323    1.380076   -0.786525
     20          6           0       -2.940977   -0.090842   -0.924722
     21          6           0       -1.757110   -1.051734   -1.110104
     22          8           0       -0.905335   -1.122239    0.006361
     23          6           0       -3.791874   -0.506864    0.287755
     24          8           0       -3.072941   -0.459500    1.499225
     25          1           0       -0.877600    1.359125    0.300727
     26          1           0       -1.898470    1.659471   -1.661709
     27          1           0       -3.391945    2.012393   -0.767520
     28          1           0       -3.566345   -0.161576   -1.819884
     29          1           0       -1.139410   -0.728031   -1.953459
     30          1           0       -2.153701   -2.053305   -1.338671
     31          1           0       -1.476319   -1.161903    0.796127
     32          1           0       -4.134226   -1.539981    0.173202
     33          1           0       -4.675973    0.143845    0.346591
     34          1           0       -2.679343    0.434275    1.540979
 ---------------------------------------------------------------------
 Rotational constants (GHZ):           1.1937368           0.3258529           0.3110970
   236 basis functions,   430 primitive gaussians,   250 cartesian basis functions
    58 alpha electrons       58 beta electrons
       nuclear repulsion energy      1076.2812786641 Hartrees.
 NAtoms=   34 NActive=   34 NUniq=   34 SFac= 1.00D+00 NAtFMM=   60 NAOKFM=F Big=F
 Nuclear repulsion after empirical dispersion term =     1076.2546178168 Hartrees.
   1 Symmetry operations used in ECPInt.
 ECPInt:  NShTT=    7750 NPrTT=   31118 LenC2=    7417 LenP2D=   21210.
 LDataN:  DoStor=T MaxTD1= 4 Len=   56
 ExpMin= 1.22D-01 ExpMax= 2.27D+03 ExpMxC= 3.41D+02 IAcc=3 IRadAn=         5 AccDes= 0.00D+00
 Harris functional with IExCor= 4639 and IRadAn=       5 diagonalized for initial guess.
 HarFok:  IExCor= 4639 AccDes= 0.00D+00 IRadAn=         5 IDoV= 1 UseB2=F ITyADJ=14
 ICtDFT=  3500011 ScaDFX=  1.000000  1.000000  1.000000  1.000000
 FoFCou: FMM=F IPFlag=           0 FMFlag=      100000 FMFlg1=           0
         NFxFlg=           0 DoJE=T BraDBF=F KetDBF=T FulRan=T
         wScrn=  0.000000 ICntrl=       500 IOpCl=  0 I1Cent=   200000004 NGrid=           0
         NMat0=    1 NMatS0=      1 NMatT0=    0 NMatD0=    1 NMtDS0=    0 NMtDT0=    0
 Petite list used in FoFCou.
     Accept linear search using points  2 and  3.
     Accept linear search using points  1 and  2.
     Accept linear search using points  2 and  3.
     Accept linear search using points  1 and  2.
     Minimum is close to point  2 DX= -1.37D-04 DF= -2.27D-13 DXR=  1.37D-04 DFR=  1.69D-08 which will be used.
 SCF Done:  E(RwB97XD) =  -767.359844605     a.u. after    7 cycles
            Convg  =    0.4097D-09                    32 Fock formations.
              S**2 =  0.0000                  -V/T =  2.0080

 **********************************************************************

            Population analysis using the SCF Density.

 **********************************************************************

 Orbital symmetries:
       Occupied  (A) (A) (A) (A) (A) (A) (A) (A) (A) (A) (A) (A)
                 (A) (A) (A) (A) (A) (A) (A) (A) (A) (A) (A) (A)
                 (A) (A) (A) (A) (A) (A) (A) (A) (A) (A) (A) (A)
                 (A) (A) (A) (A) (A) (A) (A) (A) (A) (A) (A) (A)
                 (A) (A) (A) (A) (A) (A) (A) (A) (A) (A)
       Virtual   (A) (A) (A) (A) (A) (A) (A) (A) (A) (A) (A) (A)
                 (A) (A) (A) (A) (A) (A) (A) (A) (A) (A) (A) (A)
                 (A) (A) (A) (A) (A) (A) (A) (A) (A) (A) (A) (A)
                 (A) (A) (A) (A) (A) (A) (A) (A) (A) (A) (A) (A)
                 (A) (A) (A) (A) (A) (A) (A) (A) (A) (A) (A) (A)
                 (A) (A) (A) (A) (A) (A) (A) (A) (A) (A) (A) (A)
                 (A) (A) (A) (A) (A) (A) (A) (A) (A) (A) (A) (A)
                 (A) (A) (A) (A) (A) (A) (A) (A) (A) (A) (A) (A)
                 (A) (A) (A) (A) (A) (A) (A) (A) (A) (A) (A) (A)
                 (A) (A) (A) (A) (A) (A) (A) (A) (A) (A) (A) (A)
                 (A) (A) (A) (A) (A) (A) (A) (A) (A) (A) (A) (A)
                 (A) (A) (A) (A) (A) (A) (A) (A) (A) (A) (A) (A)
                 (A) (A) (A) (A) (A) (A) (A) (A) (A) (A) (A) (A)
                 (A) (A) (A) (A) (A) (A) (A) (A) (A) (A) (A) (A)
                 (A) (A) (A) (A) (A) (A) (A) (A) (A) (A)
 The electronic state is 1-A.
 Alpha  occ. eigenvalues --  -19.25521 -19.25519 -19.25259 -19.25253 -19.24535
 Alpha  occ. eigenvalues --  -19.24529 -10.34283 -10.34283 -10.34174 -10.34170
 Alpha  occ. eigenvalues --  -10.33973 -10.33969 -10.30380 -10.30377  -1.13877
 Alpha  occ. eigenvalues --   -1.13313  -1.11334  -1.10887  -1.10173  -1.10020
 Alpha  occ. eigenvalues --   -0.88957  -0.88780  -0.77080  -0.76833  -0.76635
 Alpha  occ. eigenvalues --   -0.76610  -0.68880  -0.68296  -0.62745  -0.62623
 Alpha  occ. eigenvalues --   -0.62044  -0.60243  -0.58633  -0.58445  -0.55099
 Alpha  occ. eigenvalues --   -0.54139  -0.53785  -0.53562  -0.53074  -0.52881
 Alpha  occ. eigenvalues --   -0.49865  -0.49754  -0.49498  -0.48423  -0.48110
 Alpha  occ. eigenvalues --   -0.48014  -0.45270  -0.44259  -0.44040  -0.41766
 Alpha  occ. eigenvalues --   -0.40918  -0.40337  -0.37960  -0.36837  -0.35137
 Alpha  occ. eigenvalues --   -0.34823  -0.34009  -0.33982
 Alpha virt. eigenvalues --    0.11891   0.12823   0.15961   0.16207   0.17687
 Alpha virt. eigenvalues --    0.17871   0.18530   0.18848   0.20171   0.20471
 Alpha virt. eigenvalues --    0.20559   0.20941   0.21441   0.21739   0.22851
 Alpha virt. eigenvalues --    0.23089   0.24795   0.25711   0.26160   0.26299
 Alpha virt. eigenvalues --    0.27709   0.28293   0.29316   0.29521   0.31417
 Alpha virt. eigenvalues --    0.32202   0.33378   0.34391   0.35153   0.35402
 Alpha virt. eigenvalues --    0.37028   0.37609   0.49558   0.50376   0.50967
 Alpha virt. eigenvalues --    0.52600   0.53319   0.54725   0.57659   0.57690
 Alpha virt. eigenvalues --    0.60233   0.60707   0.63867   0.64778   0.65632
 Alpha virt. eigenvalues --    0.65780   0.66844   0.67261   0.69096   0.71186
 Alpha virt. eigenvalues --    0.72503   0.72758   0.73197   0.73387   0.73884
 Alpha virt. eigenvalues --    0.74036   0.74627   0.74976   0.75233   0.75893
 Alpha virt. eigenvalues --    0.75950   0.77007   0.77449   0.78272   0.78477
 Alpha virt. eigenvalues --    0.80066   0.80333   0.81174   0.81300   0.81523
 Alpha virt. eigenvalues --    0.82139   0.82190   0.85165   0.85506   0.88130
 Alpha virt. eigenvalues --    0.88812   0.97138   0.99480   1.00140   1.00235
 Alpha virt. eigenvalues --    1.02692   1.08927   1.10837   1.11036   1.11414
 Alpha virt. eigenvalues --    1.13282   1.16606   1.19993   1.20301   1.23381
 Alpha virt. eigenvalues --    1.26395   1.27080   1.28994   1.33018   1.35921
 Alpha virt. eigenvalues --    1.37918   1.38410   1.39373   1.41466   1.42173
 Alpha virt. eigenvalues --    1.47343   1.50907   1.51810   1.52290   1.55485
 Alpha virt. eigenvalues --    1.59013   1.65867   1.66377   1.68711   1.70254
 Alpha virt. eigenvalues --    1.70928   1.72279   1.79049   1.82553   1.84894
 Alpha virt. eigenvalues --    1.86491   1.86525   1.87238   1.90095   1.90920
 Alpha virt. eigenvalues --    1.94602   1.94608   1.97378   2.02139   2.06287
 Alpha virt. eigenvalues --    2.06983   2.08090   2.10134   2.15338   2.15586
 Alpha virt. eigenvalues --    2.17376   2.17384   2.17924   2.18513   2.19581
 Alpha virt. eigenvalues --    2.20721   2.24932   2.25669   2.40201   2.41587
 Alpha virt. eigenvalues --    2.45793   2.46289   2.46584   2.46679   2.66114
 Alpha virt. eigenvalues --    2.66420   2.68448   2.68665   2.73264   2.73575
 Alpha virt. eigenvalues --    2.73972   2.74307   2.75215   2.75671   2.91262
 Alpha virt. eigenvalues --    2.91591   2.92562   2.93334   2.93658   2.93739
 Alpha virt. eigenvalues --    3.01870   3.01900   3.03439   3.03604   3.05909
 Alpha virt. eigenvalues --    3.05950   3.09292   3.09996   3.11189   3.11690
 Alpha virt. eigenvalues --    3.15253   3.16679   3.45636   3.45751   3.46089
 Alpha virt. eigenvalues --    3.46276   3.47841   3.48458
          Condensed to atoms (all electrons):
 Mulliken charges:
               1
     1  O   -0.546758
     2  C    0.046440
     3  C   -0.293527
     4  C    0.042970
     5  O   -0.526143
     6  C    0.066425
     7  O   -0.539328
     8  H    0.362481
     9  H    0.103342
    10  H    0.101218
    11  H    0.105090
    12  H    0.100995
    13  H    0.108595
    14  H    0.336748
    15  H    0.097299
    16  H    0.102147
    17  H    0.332011
    18  O   -0.546867
    19  C    0.046408
    20  C   -0.293706
    21  C    0.066604
    22  O   -0.539317
    23  C    0.042927
    24  O   -0.526137
    25  H    0.362584
    26  H    0.101244
    27  H    0.103353
    28  H    0.105112
    29  H    0.102126
    30  H    0.097278
    31  H    0.331998
    32  H    0.108636
    33  H    0.101013
    34  H    0.336739
 Sum of Mulliken charges =   0.00000
 Mulliken charges with hydrogens summed into heavy atoms:
               1
     1  O   -0.184277
     2  C    0.251000
     3  C   -0.188438
     4  C    0.252560
     5  O   -0.189395
     6  C    0.265871
     7  O   -0.207317
    18  O   -0.184283
    19  C    0.251005
    20  C   -0.188594
    21  C    0.266008
    22  O   -0.207319
    23  C    0.252576
    24  O   -0.189397
 Electronic spatial extent (au):  <R**2>=           3814.2612
 Charge=              0.0000 electrons
 Dipole moment (field-independent basis, Debye):
    X=             -0.0097    Y=              0.0014    Z=              0.0022  Tot=              0.0101
   1 Symmetry operations used in ECPInt.
 ECPInt:  NShTT=    7750 NPrTT=   31118 LenC2=    7417 LenP2D=   21210.
 LDataN:  DoStor=T MaxTD1= 5 Len=  102
 Calling FoFJK, ICntrl=      2127 FMM=F ISym2X=0 I1Cent= 0 IOpClX= 0 NMat=1 NMatS=1 NMatT=0.

 GradGradGradGradGradGradGradGradGradGradGradGradGradGradGradGradGradGrad
 FormGI is forming the generalized inverse of G from B-inverse, IUseBI=4.
 Internal  Forces:  Max     0.007481730 RMS     0.002449659
 Step number   1 out of a maximum of  188
 All quantities printed in internal units (Hartrees-Bohrs-Radians)
 Mixed Optimization -- RFO/linear search
 Second derivative matrix not updated -- first step.
 ITU=  0
     Eigenvalues ---    0.00230   0.00256   0.00256   0.00267   0.00284
     Eigenvalues ---    0.00331   0.00558   0.01060   0.01128   0.01287
     Eigenvalues ---    0.01523   0.01566   0.01566   0.01595   0.02053
     Eigenvalues ---    0.02923   0.03477   0.03794   0.03824   0.04043
     Eigenvalues ---    0.04540   0.04642   0.04776   0.04784   0.04784
     Eigenvalues ---    0.04827   0.04886   0.05417   0.05543   0.05714
     Eigenvalues ---    0.05744   0.05744   0.05790   0.05828   0.06838
     Eigenvalues ---    0.07182   0.07944   0.09833   0.09857   0.10529
     Eigenvalues ---    0.11481   0.11704   0.11738   0.11738   0.11823
     Eigenvalues ---    0.11902   0.13375   0.13876   0.13992   0.13992
     Eigenvalues ---    0.15066   0.15601   0.15752   0.15903   0.16000
     Eigenvalues ---    0.16000   0.16121   0.16438   0.17189   0.18356
     Eigenvalues ---    0.19665   0.21132   0.22070   0.22070   0.27984
     Eigenvalues ---    0.28292   0.28293   0.28646   0.28648   0.28879
     Eigenvalues ---    0.33548   0.33550   0.33754   0.33757   0.34056
     Eigenvalues ---    0.34060   0.34163   0.34168   0.34310   0.34312
     Eigenvalues ---    0.34316   0.34317   0.34324   0.34325   0.42505
     Eigenvalues ---    0.44075   0.44077   0.44554   0.44558   0.44628
     Eigenvalues ---    0.50480   0.51874   0.51879   0.52171   0.52292
     Eigenvalues ---    0.52297
 Linear search not attempted -- first point.
 Iteration  1 RMS(Cart)=  0.07235742 RMS(Int)=  0.00159495
 Iteration  2 RMS(Cart)=  0.00265995 RMS(Int)=  0.00032004
 Iteration  3 RMS(Cart)=  0.00000243 RMS(Int)=  0.00032003
 Iteration  4 RMS(Cart)=  0.00000000 RMS(Int)=  0.00032003
 Variable       Old X    -DE/DX   Delta X   Delta X   Delta X     New X
                                 (Linear)    (Quad)   (Total)
    R1        2.65787   0.00219   0.00000   0.00480   0.00488   2.66275
    R2        1.84413   0.00453   0.00000   0.00852   0.00858   1.85271
    R3        2.91503   0.00026   0.00000   0.00097   0.00094   2.91597
    R4        2.07048   0.00572   0.00000   0.01643   0.01643   2.08691
    R5        2.07229   0.00740   0.00000   0.02133   0.02133   2.09362
    R6        2.90743  -0.00132   0.00000  -0.00450  -0.00450   2.90293
    R7        2.90253  -0.00125   0.00000  -0.00423  -0.00429   2.89824
    R8        2.06787   0.00748   0.00000   0.02139   0.02139   2.08926
    R9        2.66365   0.00436   0.00000   0.00975   0.00975   2.67340
   R10        2.07747   0.00625   0.00000   0.01817   0.01817   2.09564
   R11        2.06810   0.00603   0.00000   0.01726   0.01726   2.08536
   R12        1.84715   0.00294   0.00000   0.00560   0.00560   1.85275
   R13        2.65716   0.00352   0.00000   0.00779   0.00771   2.66486
   R14        2.08097   0.00559   0.00000   0.01636   0.01636   2.09733
   R15        2.06798   0.00640   0.00000   0.01832   0.01832   2.08630
   R16        1.84320   0.00330   0.00000   0.00623   0.00623   1.84943
   R17        3.45014  -0.00221   0.00000  -0.03419  -0.03423   3.41590
   R18        3.45097  -0.00222   0.00000  -0.03381  -0.03376   3.41720
   R19        2.65787   0.00220   0.00000   0.00485   0.00479   2.66266
   R20        1.84426   0.00448   0.00000   0.00840   0.00835   1.85261
   R21        2.91504   0.00025   0.00000   0.00082   0.00085   2.91589
   R22        2.07236   0.00737   0.00000   0.02126   0.02126   2.09362
   R23        2.07055   0.00569   0.00000   0.01636   0.01636   2.08691
   R24        2.90257  -0.00125   0.00000  -0.00420  -0.00414   2.89843
   R25        2.90748  -0.00131   0.00000  -0.00448  -0.00448   2.90300
   R26        2.06785   0.00748   0.00000   0.02140   0.02140   2.08925
   R27        2.65706   0.00354   0.00000   0.00781   0.00789   2.66495
   R28        2.06801   0.00639   0.00000   0.01830   0.01830   2.08631
   R29        2.08099   0.00559   0.00000   0.01635   0.01635   2.09734
   R30        1.84316   0.00333   0.00000   0.00630   0.00630   1.84946
   R31        2.66362   0.00437   0.00000   0.00978   0.00978   2.67340
   R32        2.06807   0.00604   0.00000   0.01729   0.01729   2.08536
   R33        2.07742   0.00626   0.00000   0.01821   0.01821   2.09563
   R34        1.84720   0.00293   0.00000   0.00557   0.00557   1.85277
    A1        1.89517   0.00167   0.00000   0.00814   0.00866   1.90384
    A2        1.98896   0.00126   0.00000   0.00859   0.00892   1.99787
    A3        1.85027   0.00015   0.00000   0.00303   0.00278   1.85304
    A4        1.93352  -0.00087   0.00000  -0.00036  -0.00048   1.93303
    A5        1.89335  -0.00075   0.00000  -0.00922  -0.00899   1.88436
    A6        1.90546   0.00117   0.00000   0.01289   0.01243   1.91788
    A7        1.88884  -0.00115   0.00000  -0.01717  -0.01710   1.87175
    A8        1.92450   0.00008   0.00000   0.00622   0.00625   1.93075
    A9        1.96667   0.00233   0.00000   0.02451   0.02392   1.99059
   A10        1.87477  -0.00134   0.00000  -0.01782  -0.01763   1.85714
   A11        1.93067  -0.00117   0.00000  -0.00115  -0.00108   1.92959
   A12        1.88723   0.00061   0.00000  -0.00346  -0.00359   1.88364
   A13        1.87684  -0.00058   0.00000  -0.01037  -0.01027   1.86657
   A14        1.96726  -0.00587   0.00000  -0.02447  -0.02444   1.94283
   A15        1.90381   0.00185   0.00000   0.01081   0.01090   1.91471
   A16        1.92385   0.00140   0.00000   0.00288   0.00285   1.92669
   A17        1.92232   0.00263   0.00000   0.01832   0.01840   1.94072
   A18        1.85585   0.00181   0.00000   0.00478   0.00471   1.86057
   A19        1.88896  -0.00172   0.00000  -0.01231  -0.01234   1.87662
   A20        1.84714   0.00092   0.00000   0.00554   0.00554   1.85268
   A21        1.98488  -0.00490   0.00000  -0.02165  -0.02117   1.96371
   A22        1.89283   0.00236   0.00000   0.01178   0.01196   1.90478
   A23        1.92101   0.00024   0.00000  -0.00153  -0.00182   1.91919
   A24        1.91491   0.00151   0.00000   0.01008   0.00995   1.92486
   A25        1.85961   0.00251   0.00000   0.01445   0.01430   1.87391
   A26        1.88847  -0.00168   0.00000  -0.01326  -0.01325   1.87522
   A27        1.86542   0.00270   0.00000   0.01940   0.01872   1.88414
   A28        2.04833  -0.00124   0.00000  -0.00054  -0.00197   2.04636
   A29        2.35600  -0.00125   0.00000  -0.00679  -0.00742   2.34858
   A30        1.89533   0.00168   0.00000   0.00854   0.00858   1.90391
   A31        1.98896   0.00127   0.00000   0.00823   0.00858   1.99754
   A32        1.93358  -0.00088   0.00000  -0.00008  -0.00027   1.93331
   A33        1.85014   0.00016   0.00000   0.00292   0.00273   1.85287
   A34        1.90551   0.00117   0.00000   0.01265   0.01225   1.91776
   A35        1.89338  -0.00076   0.00000  -0.00886  -0.00869   1.88469
   A36        1.88881  -0.00115   0.00000  -0.01708  -0.01701   1.87180
   A37        1.96673   0.00232   0.00000   0.02403   0.02365   1.99038
   A38        1.92441   0.00009   0.00000   0.00624   0.00625   1.93067
   A39        1.87475  -0.00133   0.00000  -0.01741  -0.01732   1.85743
   A40        1.93074  -0.00116   0.00000  -0.00073  -0.00081   1.92993
   A41        1.87687  -0.00059   0.00000  -0.01069  -0.01059   1.86628
   A42        1.88718   0.00060   0.00000  -0.00351  -0.00358   1.88359
   A43        1.98499  -0.00490   0.00000  -0.02150  -0.02079   1.96420
   A44        1.92093   0.00024   0.00000  -0.00170  -0.00202   1.91890
   A45        1.89279   0.00236   0.00000   0.01187   0.01195   1.90474
   A46        1.85962   0.00251   0.00000   0.01388   0.01373   1.87335
   A47        1.91492   0.00152   0.00000   0.01059   0.01032   1.92524
   A48        1.88847  -0.00168   0.00000  -0.01329  -0.01325   1.87522
   A49        2.05182  -0.00129   0.00000  -0.00112  -0.00242   2.04940
   A50        2.35280  -0.00124   0.00000  -0.00673  -0.00741   2.34539
   A51        1.86539   0.00274   0.00000   0.01972   0.01900   1.88439
   A52        1.96726  -0.00584   0.00000  -0.02435  -0.02432   1.94294
   A53        1.92386   0.00140   0.00000   0.00286   0.00283   1.92669
   A54        1.90381   0.00184   0.00000   0.01077   0.01085   1.91466
   A55        1.85589   0.00180   0.00000   0.00476   0.00470   1.86059
   A56        1.92230   0.00262   0.00000   0.01829   0.01836   1.94066
   A57        1.88894  -0.00172   0.00000  -0.01231  -0.01234   1.87660
   A58        1.84711   0.00093   0.00000   0.00557   0.00557   1.85269
   A59        3.26198  -0.00063   0.00000  -0.01011  -0.01084   3.25114
   A60        3.26367  -0.00063   0.00000  -0.00968  -0.01048   3.25319
   A61        3.28958  -0.00192   0.00000  -0.05748  -0.05888   3.23070
   A62        3.28737  -0.00192   0.00000  -0.03308  -0.03417   3.25320
    D1       -1.38863  -0.00151   0.00000  -0.07624  -0.07553  -1.46416
    D2        2.81350  -0.00141   0.00000  -0.07182  -0.07143   2.74207
    D3        0.76822   0.00031   0.00000  -0.05298  -0.05249   0.71573
    D4        2.91031  -0.00121   0.00000  -0.09006  -0.08906   2.82125
    D5       -0.51967   0.00133   0.00000   0.01916   0.01934  -0.50033
    D6       -0.97556   0.00026   0.00000   0.00925   0.00927  -0.96628
    D7        1.19105   0.00049   0.00000   0.03032   0.03077   1.22182
    D8       -3.02827   0.00027   0.00000   0.02034   0.02037  -3.00789
    D9        1.08089   0.00072   0.00000   0.01205   0.01206   1.09295
   D10       -3.03569   0.00095   0.00000   0.03312   0.03356  -3.00213
   D11       -0.97181   0.00073   0.00000   0.02314   0.02316  -0.94865
   D12        3.13567  -0.00042   0.00000  -0.00654  -0.00663   3.12904
   D13       -0.98091  -0.00019   0.00000   0.01453   0.01486  -0.96605
   D14        1.08296  -0.00042   0.00000   0.00455   0.00447   1.08743
   D15        1.10405   0.00199   0.00000   0.07329   0.07309   1.17715
   D16       -1.03693   0.00128   0.00000   0.05870   0.05854  -0.97839
   D17       -3.10864   0.00142   0.00000   0.06542   0.06526  -3.04338
   D18       -1.08317  -0.00023   0.00000   0.03806   0.03820  -1.04497
   D19        3.05903  -0.00094   0.00000   0.02346   0.02364   3.08267
   D20        0.98733  -0.00079   0.00000   0.03018   0.03036   1.01769
   D21       -3.13413   0.00078   0.00000   0.05330   0.05328  -3.08085
   D22        1.00807   0.00007   0.00000   0.03871   0.03873   1.04680
   D23       -1.06364   0.00021   0.00000   0.04543   0.04545  -1.01819
   D24       -1.13854  -0.00102   0.00000  -0.07322  -0.07337  -1.21191
   D25        3.00921  -0.00139   0.00000  -0.08019  -0.08045   2.92876
   D26        0.94636  -0.00090   0.00000  -0.07026  -0.07043   0.87593
   D27        1.02465  -0.00009   0.00000  -0.04793  -0.04785   0.97680
   D28       -1.11078  -0.00046   0.00000  -0.05491  -0.05493  -1.16571
   D29        3.10955   0.00003   0.00000  -0.04497  -0.04491   3.06464
   D30        3.08199  -0.00036   0.00000  -0.05889  -0.05876   3.02323
   D31        0.94655  -0.00073   0.00000  -0.06586  -0.06584   0.88071
   D32       -1.11630  -0.00024   0.00000  -0.05593  -0.05582  -1.17212
   D33       -0.91456   0.00026   0.00000   0.01696   0.01701  -0.89755
   D34        1.21602   0.00046   0.00000   0.02714   0.02707   1.24309
   D35       -3.02435   0.00079   0.00000   0.02472   0.02473  -2.99962
   D36       -0.75258  -0.00081   0.00000   0.00673   0.00645  -0.74613
   D37        2.53821  -0.00186   0.00000  -0.05895  -0.05956   2.47866
   D38        1.37063  -0.00003   0.00000   0.01441   0.01443   1.38506
   D39       -1.62176  -0.00107   0.00000  -0.05127  -0.05158  -1.67334
   D40       -2.87205   0.00016   0.00000   0.01193   0.01198  -2.86007
   D41        0.41875  -0.00089   0.00000  -0.05375  -0.05403   0.36472
   D42       -2.91017   0.00121   0.00000   0.08199   0.08138  -2.82879
   D43        0.52236  -0.00133   0.00000  -0.02224  -0.02245   0.49990
   D44        1.38729   0.00152   0.00000   0.07241   0.07184   1.45913
   D45       -0.76967  -0.00030   0.00000   0.04950   0.04912  -0.72056
   D46       -2.81489   0.00142   0.00000   0.06816   0.06788  -2.74701
   D47       -1.19086  -0.00049   0.00000  -0.03377  -0.03409  -1.22495
   D48        0.97581  -0.00025   0.00000  -0.01248  -0.01244   0.96337
   D49        3.02840  -0.00026   0.00000  -0.02338  -0.02336   3.00504
   D50        0.98123   0.00019   0.00000  -0.01805  -0.01830   0.96293
   D51       -3.13529   0.00043   0.00000   0.00324   0.00335  -3.13194
   D52       -1.08270   0.00042   0.00000  -0.00767  -0.00757  -1.09027
   D53        3.03601  -0.00096   0.00000  -0.03646  -0.03682   2.99919
   D54       -1.08051  -0.00072   0.00000  -0.01517  -0.01517  -1.09568
   D55        0.97208  -0.00073   0.00000  -0.02608  -0.02609   0.94600
   D56        1.13993   0.00101   0.00000   0.06859   0.06889   1.20881
   D57       -0.94499   0.00090   0.00000   0.06638   0.06656  -0.87843
   D58       -3.00776   0.00139   0.00000   0.07639   0.07670  -2.93106
   D59       -1.02325   0.00007   0.00000   0.04331   0.04336  -0.97990
   D60       -3.10817  -0.00004   0.00000   0.04110   0.04103  -3.06714
   D61        1.11224   0.00045   0.00000   0.05112   0.05117   1.16341
   D62       -3.08058   0.00035   0.00000   0.05428   0.05430  -3.02628
   D63        1.11769   0.00023   0.00000   0.05207   0.05197   1.16966
   D64       -0.94508   0.00072   0.00000   0.06209   0.06211  -0.88297
   D65       -1.10397  -0.00198   0.00000  -0.07275  -0.07263  -1.17660
   D66        3.10867  -0.00142   0.00000  -0.06491  -0.06484   3.04383
   D67        1.03698  -0.00127   0.00000  -0.05815  -0.05808   0.97890
   D68        1.08331   0.00023   0.00000  -0.03782  -0.03788   1.04543
   D69       -0.98723   0.00079   0.00000  -0.02998  -0.03009  -1.01732
   D70       -3.05893   0.00094   0.00000  -0.02322  -0.02332  -3.08225
   D71        3.13432  -0.00078   0.00000  -0.05323  -0.05320   3.08112
   D72        1.06377  -0.00022   0.00000  -0.04540  -0.04540   1.01837
   D73       -1.00792  -0.00007   0.00000  -0.03863  -0.03864  -1.04656
   D74       -2.53865   0.00186   0.00000   0.05882   0.05932  -2.47933
   D75        0.75102   0.00081   0.00000  -0.00669  -0.00649   0.74453
   D76       -0.41922   0.00089   0.00000   0.05309   0.05339  -0.36583
   D77        2.87045  -0.00016   0.00000  -0.01242  -0.01242   2.85803
   D78        1.62129   0.00107   0.00000   0.05053   0.05080   1.67209
   D79       -1.37222   0.00003   0.00000  -0.01498  -0.01500  -1.38722
   D80        0.91435  -0.00026   0.00000  -0.01687  -0.01692   0.89743
   D81        3.02418  -0.00079   0.00000  -0.02460  -0.02461   2.99957
   D82       -1.21621  -0.00046   0.00000  -0.02705  -0.02698  -1.24319
         Item               Value     Threshold  Converged?
 Maximum Force            0.007482     0.000015     NO 
 RMS     Force            0.002450     0.000010     NO 
 Maximum Displacement     0.326491     0.000060     NO 
 RMS     Displacement     0.072738     0.000040     NO 
 GradGradGradGradGradGradGradGradGradGradGradGradGradGradGradGradGradGrad

                    Distance matrix (angstroms):
                    1          2          3          4          5
     1  O    0.000000
     2  C    1.409065   0.000000
     3  C    2.483492   1.543064   0.000000
     4  C    2.955169   2.531937   1.536167   0.000000
     5  O    2.746379   3.015127   2.437450   1.414703   0.000000
     6  C    3.154411   2.581146   1.533683   2.523212   2.932918
     7  O    3.036097   3.113964   2.448873   2.914875   2.599232
     8  H    0.980414   1.962122   2.857429   3.523182   3.163367
     9  H    2.017877   1.104346   2.156820   2.767864   3.431637
    10  H    2.078292   1.107894   2.184379   3.493491   4.008778
    11  H    3.378517   2.137072   1.105589   2.151173   3.365482
    12  H    3.220187   2.740806   2.176787   1.108967   2.089407
    13  H    4.002999   3.492989   2.181487   1.103524   2.027633
    14  H    1.913754   2.545404   2.509577   1.932428   0.980434
    15  H    4.185492   3.515106   2.167937   2.813923   3.382503
    16  H    3.432186   2.763856   2.174199   3.482020   3.914622
    17  H    2.985323   3.225817   2.494517   2.405960   1.762638
    18  O    4.911841   5.221262   4.968651   5.687512   5.217273
    19  C    5.216065   5.857762   5.789790   6.299318   5.539155
    20  C    4.967341   5.796478   6.129385   6.737525   5.956044
    21  C    3.662269   4.672245   5.267090   5.825336   5.036996
    22  O    2.782412   3.520351   4.207716   5.042873   4.565471
    23  C    5.691860   6.315383   6.747465   7.620547   7.050079
    24  O    5.225689   5.561044   5.973782   7.059761   6.743423
    25  H    4.077951   4.340914   4.019919   4.708632   4.275791
    26  H    5.079604   5.830057   5.659667   5.898134   4.963020
    27  H    6.317338   6.920537   6.785126   7.293180   6.537745
    28  H    5.721979   6.687786   7.046008   7.510187   6.585146
    29  H    3.419062   4.576948   5.046235   5.317376   4.331454
    30  H    4.119917   5.222240   6.043861   6.596595   5.801451
    31  H    3.527562   4.010797   4.676879   5.703445   5.373427
    32  H    5.967098   6.678734   7.323903   8.207311   7.621378
    33  H    6.698641   7.273346   7.566958   8.422222   7.837146
    34  H    5.094142   5.318567   5.484610   6.547129   6.267692
                    6          7          8          9         10
     6  C    0.000000
     7  O    1.410184   0.000000
     8  H    3.042648   2.680146   0.000000
     9  H    3.503271   4.116154   2.818536   0.000000
    10  H    2.804417   3.469274   2.233098   1.781114   0.000000
    11  H    2.136115   3.360353   3.794474   2.398345   2.483110
    12  H    3.484425   3.952540   4.003341   2.515556   3.758737
    13  H    2.760286   3.231502   4.467316   3.743443   4.337585
    14  H    3.103440   2.677414   2.381859   2.983306   3.534750
    15  H    1.109858   2.075014   4.133438   4.296820   3.754623
    16  H    1.104022   2.033945   3.136824   3.739988   2.530804
    17  H    1.948650   0.978677   2.852824   4.080426   3.855289
    18  O    3.663100   2.780107   4.082017   6.322070   5.092146
    19  C    4.666011   3.509310   4.342714   6.919115   5.840727
    20  C    5.266365   4.200936   4.022935   6.791212   5.678067
    21  C    4.755217   3.767284   2.758186   5.568714   4.652235
    22  O    3.771211   3.127252   1.808306   4.465947   3.325114
    23  C    5.832265   5.041178   4.712368   7.310666   5.926415
    24  O    5.050336   4.569434   4.279921   6.562163   4.995671
    25  H    2.755037   1.807619   3.329940   5.434512   4.322559
    26  H    4.636148   3.306032   4.320757   6.841414   6.020384
    27  H    5.563277   4.454636   5.436739   7.993353   6.854865
    28  H    6.231462   5.065449   4.824334   7.637260   6.646487
    29  H    4.637395   3.488781   2.672607   5.420251   4.816395
    30  H    5.701516   4.795286   3.302322   5.996822   5.152447
    31  H    4.097939   3.631924   2.589105   4.964974   3.554437
    32  H    6.577592   5.827162   5.015663   7.590293   6.247234
    33  H    6.507707   5.690995   5.718993   8.300493   6.879737
    34  H    4.385997   3.904074   4.173637   6.378121   4.824753
                   11         12         13         14         15
    11  H    0.000000
    12  H    2.482257   0.000000
    13  H    2.479114   1.784513   0.000000
    14  H    3.529063   2.385454   2.826296   0.000000
    15  H    2.394448   3.793814   2.597537   3.819040   0.000000
    16  H    2.515712   4.325578   3.791505   3.903256   1.784716
    17  H    3.487444   3.436537   2.715900   2.018338   2.447142
    18  O    5.725209   6.695300   5.960971   5.087890   4.118634
    19  C    6.683680   7.258296   6.659831   5.300566   5.213330
    20  C    7.049685   7.558379   7.311547   5.469720   6.040759
    21  C    6.235005   6.501765   6.569197   4.374158   5.700088
    22  O    5.074881   5.694210   5.827893   3.900541   4.798133
    23  C    7.525591   8.424636   8.205109   6.539497   6.601157
    24  O    6.608806   7.849665   7.629702   6.268408   5.812885
    25  H    4.821548   5.715369   5.011833   4.169907   3.299500
    26  H    6.629580   6.851916   6.215755   4.797335   5.133771
    27  H    7.634375   8.284039   7.569131   6.358392   5.987915
    28  H    8.013707   8.305198   8.083168   6.086649   6.982526
    29  H    6.098808   5.982481   6.041196   3.693532   5.536135
    30  H    6.988863   7.152508   7.426826   5.030376   6.696997
    31  H    5.411580   6.374806   6.435556   4.763847   5.070960
    32  H    8.101637   8.918031   8.890812   7.000208   7.433004
    33  H    8.319620   9.289518   8.912997   7.409256   7.155785
    34  H    6.106521   7.419115   7.006671   5.918246   5.040343
                   16         17         18         19         20
    16  H    0.000000
    17  H    2.833577   0.000000
    18  O    3.424147   3.523126   0.000000
    19  C    4.577957   3.995170   1.409020   0.000000
    20  C    5.052225   4.666448   2.483149   1.543020   0.000000
    21  C    4.641410   4.092666   3.155547   2.581021   1.533784
    22  O    3.494224   3.633100   3.035984   3.112616   2.449397
    23  C    5.331200   5.698813   2.953174   2.531856   1.536199
    24  O    4.350401   5.376067   2.744071   3.014838   2.437570
    25  H    2.668355   2.589984   0.980358   1.962092   2.854807
    26  H    4.808067   3.529271   2.078451   1.107897   2.184250
    27  H    5.423821   4.947283   2.017713   1.104344   2.157026
    28  H    6.103064   5.397066   3.378266   2.137250   1.105585
    29  H    4.782650   3.555897   3.435885   2.764437   2.174078
    30  H    5.541152   5.067319   4.185787   3.515206   2.167998
    31  H    3.563606   4.304207   2.980634   3.222739   2.494831
    32  H    6.056079   6.432335   4.001235   3.492941   2.181516
    33  H    5.996516   6.367476   3.217692   2.740904   2.176778
    34  H    3.710990   4.765783   1.911188   2.545030   2.509679
                   21         22         23         24         25
    21  C    0.000000
    22  O    1.410230   0.000000
    23  C    2.523612   2.917569   0.000000
    24  O    2.933751   2.602775   1.414705   0.000000
    25  H    3.040630   2.673535   3.517366   3.155324   0.000000
    26  H    2.802767   3.464553   3.493395   4.007664   2.234723
    27  H    3.503210   4.116148   2.769362   3.433354   2.819059
    28  H    2.135982   3.360728   2.151161   3.365548   3.793357
    29  H    1.104026   2.033573   3.482280   3.916156   3.140052
    30  H    1.109863   2.075330   2.813214   3.381706   4.130542
    31  H    1.948871   0.978691   2.409301   1.765607   2.839893
    32  H    2.760576   3.234805   1.103527   2.027652   4.461406
    33  H    3.484712   3.954917   1.108961   2.089361   3.998257
    34  H    3.104242   2.679717   1.932442   0.980444   2.373619
                   26         27         28         29         30
    26  H    0.000000
    27  H    1.781149   0.000000
    28  H    2.484334   2.397856   0.000000
    29  H    2.529581   3.739414   2.514329   0.000000
    30  H    3.754290   4.296980   2.395043   1.784719   0.000000
    31  H    3.849524   4.079695   3.488602   2.833245   2.448501
    32  H    4.337577   3.744736   2.479163   3.791213   2.596558
    33  H    3.759466   2.517469   2.482109   4.325576   3.793226
    34  H    3.533336   2.985000   3.529090   3.905213   3.818471
                   31         32         33         34
    31  H    0.000000
    32  H    2.721328   0.000000
    33  H    3.439337   1.784495   0.000000
    34  H    2.017737   2.826320   2.385452   0.000000
 Framework group  C1[X(C8H20O6)]
 Deg. of freedom    96
                         Standard orientation:                         
 ---------------------------------------------------------------------
 Center     Atomic      Atomic             Coordinates (Angstroms)
 Number     Number       Type             X           Y           Z
 ---------------------------------------------------------------------
      1          8           0        1.732095   -1.684539   -0.443968
      2          6           0        2.450968   -1.430915    0.741089
      3          6           0        2.932427    0.026797    0.897026
      4          6           0        3.768201    0.453619   -0.319162
      5          8           0        2.973823    0.531866   -1.487162
      6          6           0        1.804500    1.033376    1.155409
      7          8           0        0.976893    1.217910    0.028628
      8          1           0        0.793704   -1.434524   -0.309334
      9          1           0        3.342219   -2.082057    0.705514
     10          1           0        1.860969   -1.730045    1.629826
     11          1           0        3.590363    0.045017    1.785348
     12          1           0        4.614783   -0.249423   -0.456407
     13          1           0        4.193889    1.459121   -0.159406
     14          1           0        2.495780   -0.321851   -1.549555
     15          1           0        2.246032    2.001412    1.471229
     16          1           0        1.163230    0.677264    1.980528
     17          1           0        1.551669    1.278396   -0.761171
     18          8           0       -1.731526    1.681084    0.451633
     19          6           0       -2.440517    1.431378   -0.740136
     20          6           0       -2.927156   -0.024057   -0.900769
     21          6           0       -1.801624   -1.034958   -1.153259
     22          8           0       -0.979062   -1.221612   -0.023081
     23          6           0       -3.772594   -0.448494    0.309600
     24          8           0       -2.986366   -0.530685    1.482835
     25          1           0       -0.794133    1.422422    0.327172
     26          1           0       -1.841020    1.727815   -1.623405
     27          1           0       -3.328868    2.086846   -0.712419
     28          1           0       -3.579396   -0.038845   -1.793339
     29          1           0       -1.155423   -0.681470   -1.975660
     30          1           0       -2.245227   -2.001526   -1.470684
     31          1           0       -1.556839   -1.277895    0.764855
     32          1           0       -4.201192   -1.452186    0.146270
     33          1           0       -4.617290    0.257777    0.441757
     34          1           0       -2.505335    0.321077    1.549013
 ---------------------------------------------------------------------
 Rotational constants (GHZ):           1.1536770           0.3324115           0.3143353
   236 basis functions,   430 primitive gaussians,   250 cartesian basis functions
    58 alpha electrons       58 beta electrons
       nuclear repulsion energy      1074.6276876189 Hartrees.
 NAtoms=   34 NActive=   34 NUniq=   34 SFac= 1.00D+00 NAtFMM=   60 NAOKFM=F Big=F
 Nuclear repulsion after empirical dispersion term =     1074.6014250446 Hartrees.
   1 Symmetry operations used in ECPInt.
 ECPInt:  NShTT=    7750 NPrTT=   31118 LenC2=    7424 LenP2D=   21233.
 LDataN:  DoStor=T MaxTD1= 4 Len=   56
 Initial guess from the checkpoint file:  "/scratch/user/peterchao1/peterchao1/6113320_1660079103000000690140297/Gau-36359.chk"
 B after Tr=     0.000000    0.000000    0.000000
         Rot=    0.999827   -0.017130   -0.004230    0.005880 Ang=  -2.13 deg.
 ExpMin= 1.22D-01 ExpMax= 2.27D+03 ExpMxC= 3.41D+02 IAcc=3 IRadAn=         5 AccDes= 0.00D+00
 Harris functional with IExCor= 4639 and IRadAn=       5 diagonalized for initial guess.
 HarFok:  IExCor= 4639 AccDes= 0.00D+00 IRadAn=         5 IDoV= 1 UseB2=F ITyADJ=14
 ICtDFT=  3500011 ScaDFX=  1.000000  1.000000  1.000000  1.000000
 FoFCou: FMM=F IPFlag=           0 FMFlag=      100000 FMFlg1=           0
         NFxFlg=           0 DoJE=T BraDBF=F KetDBF=T FulRan=T
         wScrn=  0.000000 ICntrl=       500 IOpCl=  0 I1Cent=   200000004 NGrid=           0
         NMat0=    1 NMatS0=      1 NMatT0=    0 NMatD0=    1 NMtDS0=    0 NMtDT0=    0
 Petite list used in FoFCou.
     Minimum is close to point  4 DX=  7.85D-02 DF= -3.85D-05 DXR=  6.14D-02 DFR=  3.78D-03 which will be used.
     Accept linear search using points  2 and  3.
     Accept linear search using points  1 and  2.
     Minimum is close to point  2 DX= -7.43D-02 DF= -5.52D-06 DXR=  7.25D-02 DFR=  6.16D-03 which will be used.
     Accept linear search using points  1 and  2.
     Accept linear search using points  1 and  2.
     Accept linear search using points  1 and  2.
     Minimum is close to point  2 DX= -4.65D-06 DF=  0.00D+00 DXR=  4.65D-06 DFR=  0.00D+00 which will be used.
 SCF Done:  E(RwB97XD) =  -767.361358949     a.u. after    9 cycles
            Convg  =    0.1919D-08                    36 Fock formations.
              S**2 =  0.0000                  -V/T =  2.0083
   1 Symmetry operations used in ECPInt.
 ECPInt:  NShTT=    7750 NPrTT=   31118 LenC2=    7424 LenP2D=   21233.
 LDataN:  DoStor=T MaxTD1= 5 Len=  102
 Calling FoFJK, ICntrl=      2127 FMM=F ISym2X=0 I1Cent= 0 IOpClX= 0 NMat=1 NMatS=1 NMatT=0.

 GradGradGradGradGradGradGradGradGradGradGradGradGradGradGradGradGradGrad
 Using GEDIIS/GDIIS optimizer.
 FormGI is forming the generalized inverse of G from B-inverse, IUseBI=4.
 Internal  Forces:  Max     0.009482591 RMS     0.002466316
 Step number   2 out of a maximum of  188
 All quantities printed in internal units (Hartrees-Bohrs-Radians)
 Mixed Optimization -- RFO/linear search
 Trust test= 3.97D-01 RLast= 4.51D-01 DXMaxT set to 3.00D-01
 ITU=  0  0
 Use linear search instead of GDIIS.
     Eigenvalues ---    0.00228   0.00251   0.00256   0.00269   0.00333
     Eigenvalues ---    0.00436   0.00580   0.01041   0.01103   0.01243
     Eigenvalues ---    0.01444   0.01537   0.01566   0.01730   0.02075
     Eigenvalues ---    0.02536   0.03466   0.03677   0.03799   0.03984
     Eigenvalues ---    0.04544   0.04662   0.04857   0.04883   0.04893
     Eigenvalues ---    0.04980   0.05140   0.05224   0.05549   0.05560
     Eigenvalues ---    0.05742   0.05753   0.05803   0.05843   0.06832
     Eigenvalues ---    0.07253   0.08140   0.09679   0.09708   0.10375
     Eigenvalues ---    0.11530   0.11558   0.11604   0.11771   0.11896
     Eigenvalues ---    0.11925   0.13333   0.13415   0.13909   0.13997
     Eigenvalues ---    0.15034   0.15754   0.15820   0.15888   0.16000
     Eigenvalues ---    0.16076   0.16152   0.16698   0.18052   0.18530
     Eigenvalues ---    0.19711   0.21288   0.22014   0.26813   0.27432
     Eigenvalues ---    0.27975   0.28303   0.28647   0.28706   0.28792
     Eigenvalues ---    0.33549   0.33602   0.33756   0.33826   0.34058
     Eigenvalues ---    0.34109   0.34166   0.34211   0.34295   0.34311
     Eigenvalues ---    0.34314   0.34317   0.34324   0.39960   0.42441
     Eigenvalues ---    0.43828   0.44076   0.44545   0.44585   0.45600
     Eigenvalues ---    0.50490   0.51357   0.51877   0.52076   0.52268
     Eigenvalues ---    0.52295
 Quartic linear search produced a step of -0.34246.
 Iteration  1 RMS(Cart)=  0.07679933 RMS(Int)=  0.00270530
 Iteration  2 RMS(Cart)=  0.00394053 RMS(Int)=  0.00030477
 Iteration  3 RMS(Cart)=  0.00001052 RMS(Int)=  0.00030466
 Iteration  4 RMS(Cart)=  0.00000000 RMS(Int)=  0.00030466
 Variable       Old X    -DE/DX   Delta X   Delta X   Delta X     New X
                                 (Linear)    (Quad)   (Total)
    R1        2.66275  -0.00133  -0.00167   0.00512   0.00338   2.66612
    R2        1.85271   0.00060  -0.00294   0.01285   0.00990   1.86261
    R3        2.91597  -0.00535  -0.00032  -0.01053  -0.01083   2.90514
    R4        2.08691   0.00025  -0.00563   0.02347   0.01785   2.10476
    R5        2.09362   0.00010  -0.00730   0.03006   0.02275   2.11637
    R6        2.90293   0.00222   0.00154  -0.00146   0.00008   2.90302
    R7        2.89824   0.00408   0.00147   0.00272   0.00419   2.90243
    R8        2.08926   0.00075  -0.00733   0.03134   0.02401   2.11327
    R9        2.67340   0.00065  -0.00334   0.01461   0.01128   2.68468
   R10        2.09564  -0.00041  -0.00622   0.02469   0.01846   2.11411
   R11        2.08536  -0.00013  -0.00591   0.02395   0.01804   2.10339
   R12        1.85275   0.00159  -0.00192   0.00980   0.00788   1.86063
   R13        2.66486  -0.00109  -0.00264   0.00919   0.00662   2.67148
   R14        2.09733  -0.00008  -0.00560   0.02277   0.01716   2.11449
   R15        2.08630   0.00000  -0.00627   0.02567   0.01939   2.10569
   R16        1.84943   0.00098  -0.00213   0.00995   0.00781   1.85724
   R17        3.41590  -0.00341   0.01172  -0.07950  -0.06779   3.34811
   R18        3.41720  -0.00340   0.01156  -0.07815  -0.06657   3.35064
   R19        2.66266  -0.00130  -0.00164   0.00484   0.00327   2.66593
   R20        1.85261   0.00063  -0.00286   0.01248   0.00960   1.86221
   R21        2.91589  -0.00527  -0.00029  -0.01049  -0.01079   2.90509
   R22        2.09362   0.00010  -0.00728   0.02996   0.02268   2.11630
   R23        2.08691   0.00023  -0.00560   0.02332   0.01772   2.10463
   R24        2.89843   0.00389   0.00142   0.00265   0.00407   2.90250
   R25        2.90300   0.00211   0.00153  -0.00166  -0.00013   2.90287
   R26        2.08925   0.00075  -0.00733   0.03135   0.02402   2.11328
   R27        2.66495  -0.00117  -0.00270   0.00954   0.00677   2.67172
   R28        2.08631  -0.00002  -0.00627   0.02560   0.01934   2.10564
   R29        2.09734  -0.00009  -0.00560   0.02272   0.01712   2.11446
   R30        1.84946   0.00098  -0.00216   0.01003   0.00788   1.85734
   R31        2.67340   0.00062  -0.00335   0.01462   0.01127   2.68468
   R32        2.08536  -0.00013  -0.00592   0.02398   0.01806   2.10342
   R33        2.09563  -0.00040  -0.00624   0.02476   0.01852   2.11416
   R34        1.85277   0.00160  -0.00191   0.00978   0.00787   1.86064
    A1        1.90384  -0.00415  -0.00297   0.00458   0.00114   1.90497
    A2        1.99787  -0.00501  -0.00305  -0.00716  -0.01129   1.98659
    A3        1.85304   0.00230  -0.00095   0.01206   0.01157   1.86462
    A4        1.93303   0.00138   0.00016   0.00264   0.00310   1.93613
    A5        1.88436   0.00086   0.00308  -0.00704  -0.00391   1.88045
    A6        1.91788   0.00131  -0.00426   0.01894   0.01524   1.93312
    A7        1.87175  -0.00060   0.00585  -0.02154  -0.01577   1.85597
    A8        1.93075  -0.00517  -0.00214  -0.00565  -0.00881   1.92194
    A9        1.99059  -0.00108  -0.00819   0.03090   0.02264   2.01323
   A10        1.85714   0.00281   0.00604  -0.01543  -0.00932   1.84782
   A11        1.92959   0.00751   0.00037   0.03114   0.03121   1.96080
   A12        1.88364  -0.00131   0.00123  -0.01528  -0.01387   1.86977
   A13        1.86657  -0.00295   0.00352  -0.03138  -0.02747   1.83910
   A14        1.94283   0.00551   0.00837  -0.01777  -0.00945   1.93338
   A15        1.91471  -0.00010  -0.00373   0.00993   0.00612   1.92083
   A16        1.92669  -0.00122  -0.00097   0.00891   0.00793   1.93462
   A17        1.94072  -0.00502  -0.00630  -0.00461  -0.01094   1.92979
   A18        1.86057   0.00047  -0.00161   0.02355   0.02197   1.88253
   A19        1.87662   0.00017   0.00422  -0.01976  -0.01548   1.86114
   A20        1.85268  -0.00366  -0.00190  -0.00641  -0.00831   1.84437
   A21        1.96371   0.00948   0.00725   0.00091   0.00723   1.97094
   A22        1.90478  -0.00306  -0.00409   0.01079   0.00662   1.91140
   A23        1.91919  -0.00166   0.00062  -0.00793  -0.00695   1.91224
   A24        1.92486  -0.00249  -0.00341   0.01384   0.01068   1.93554
   A25        1.87391  -0.00365  -0.00490   0.00433  -0.00038   1.87353
   A26        1.87522   0.00104   0.00454  -0.02347  -0.01900   1.85622
   A27        1.88414  -0.00156  -0.00641   0.02117   0.01452   1.89866
   A28        2.04636   0.00278   0.00068  -0.00054   0.00032   2.04668
   A29        2.34858  -0.00127   0.00254  -0.01370  -0.01149   2.33708
   A30        1.90391  -0.00432  -0.00294   0.00145  -0.00141   1.90250
   A31        1.99754  -0.00481  -0.00294  -0.00754  -0.01151   1.98603
   A32        1.93331   0.00127   0.00009   0.00187   0.00238   1.93569
   A33        1.85287   0.00223  -0.00093   0.01272   0.01211   1.86498
   A34        1.91776   0.00129  -0.00419   0.01862   0.01489   1.93265
   A35        1.88469   0.00083   0.00298  -0.00635  -0.00324   1.88144
   A36        1.87180  -0.00058   0.00583  -0.02130  -0.01556   1.85624
   A37        1.99038  -0.00098  -0.00810   0.03092   0.02271   2.01309
   A38        1.93067  -0.00505  -0.00214  -0.00520  -0.00843   1.92224
   A39        1.85743   0.00274   0.00593  -0.01530  -0.00918   1.84824
   A40        1.92993   0.00727   0.00028   0.03007   0.03019   1.96012
   A41        1.86628  -0.00292   0.00363  -0.03124  -0.02731   1.83897
   A42        1.88359  -0.00124   0.00123  -0.01488  -0.01349   1.87010
   A43        1.96420   0.00922   0.00712   0.00074   0.00702   1.97122
   A44        1.91890  -0.00158   0.00069  -0.00737  -0.00631   1.91259
   A45        1.90474  -0.00298  -0.00409   0.01040   0.00619   1.91093
   A46        1.87335  -0.00351  -0.00470   0.00505   0.00040   1.87375
   A47        1.92524  -0.00249  -0.00353   0.01297   0.00978   1.93503
   A48        1.87522   0.00101   0.00454  -0.02330  -0.01882   1.85639
   A49        2.04940   0.00267   0.00083  -0.00128  -0.00030   2.04910
   A50        2.34539  -0.00110   0.00254  -0.01337  -0.01098   2.33441
   A51        1.88439  -0.00162  -0.00651   0.02075   0.01423   1.89862
   A52        1.94294   0.00532   0.00833  -0.01818  -0.00989   1.93305
   A53        1.92669  -0.00124  -0.00097   0.00865   0.00769   1.93437
   A54        1.91466  -0.00000  -0.00372   0.01027   0.00647   1.92113
   A55        1.86059   0.00055  -0.00161   0.02361   0.02204   1.88263
   A56        1.94066  -0.00497  -0.00629  -0.00446  -0.01077   1.92989
   A57        1.87660   0.00016   0.00423  -0.01964  -0.01537   1.86123
[...]
 19,0.00000060,-0.00016634,0.00000841,-0.00006368,-0.00004712,-0.000188
 22,-0.00041458,0.00081913,0.00164151,0.00173661,0.01348463,0.00649782,
 0.01828317,-0.05041363,-0.07919755,-0.06016057,0.00141724,0.00287610,-
 0.00435457,0.00357724,-0.00340732,-0.00048167,-0.00102259,0.00007391,-
 0.00023305,-0.00008805,-0.00005559,0.00006686,-0.00031912,-0.00045923,
 -0.00045222,-0.00004743,0.00027277,-0.00014030,-0.00068142,0.00056044,
 -0.00043062,0.04887475,0.07781700,0.00053822,0.00014209,0.00052961,0.0
 0002031,0.00001686,-0.00019737,-0.00002345,-0.00001327,0.00008901,0.00
 011614,0.00002004,-0.00019988,-0.00023318,-0.00000326,0.00020273,0.000
 05890,-0.00011589,-0.00031902,-0.00011413,-0.00004977,0.00062878,-0.00
 135664,-0.00030529,-0.00101120,0.00000185,0.00001106,0.00002700,-0.000
 01843,0.00000842,0.00013135,-0.00001453,0.00001034,0.00001466,-0.00002
 766,0.00001363,0.00003032,-0.00000488,-0.00000385,0.00002715,0.0002665
 6,-0.00006776,-0.00012066,-0.00003936,0.00000342,0.00006841,-0.0000010
 0,0.00000060,0.00008898,0.00028220,0.00021200,-0.00022749,0.00026278,0
 .00031762,0.00038104,0.00023765,-0.00104830,-0.00012578,-0.00377006,-0
 .00109980,-0.00274988,-0.11193056,-0.05661054,-0.18870340,-0.00866339,
 -0.00675183,-0.03436764,-0.00055983,0.00085025,0.00107025,-0.00084342,
 0.00079077,0.00004571,-0.00027144,-0.00005230,-0.00034594,0.00017970,0
 .00078884,0.00014692,0.00019787,0.00000308,0.00030108,-0.00039356,0.00
 039809,0.00027406,0.11799531,0.06560072,0.21787137,-0.00111275,0.00030
 257,-0.00008644,0.00027603,0.00007893,-0.00029256,0.00001358,0.0000093
 7,0.00000487,0.00011296,0.00001817,-0.00002881,-0.00019586,-0.00006988
 ,-0.00003405,0.00022741,0.00009322,-0.00015937,-0.00010539,-0.00045202
 ,0.00016564,0.00193925,-0.00084814,0.00051852,-0.00009493,-0.00000255,
 0.00003097,0.00003515,-0.00005255,-0.00002884,-0.00002327,-0.00001348,
 0.00001789,-0.00002640,0.00001901,0.00000819,-0.00001291,-0.00002241,0
 .00000207,0.00018951,0.00005247,0.00012491,-0.00005959,-0.00004513,0.0
 0001718,-0.00000900,0.00004008,-0.00003933,0.00017347,0.00016394,0.000
 01332,0.00096564,-0.00039578,-0.00086125,-0.00458032,0.00174475,-0.000
 55446,0.00871680,0.02376782,-0.00637589,-0.08863906,-0.08659089,0.0152
 4836,-0.01386051,-0.01352246,0.02069675,0.00108866,0.00081322,0.001059
 07,0.00085819,-0.00047628,-0.00012211,-0.00045863,0.00052842,-0.000087
 99,0.00006248,0.00002862,0.00012940,0.00036759,0.00137299,0.00015405,0
 .00099435,-0.00031280,0.00020203,-0.00533843,-0.01760045,0.00338188,0.
 10063250,-0.00020594,0.00012480,-0.00001914,0.00005629,-0.00003075,-0.
 00006592,-0.00000775,-0.00000988,0.00002519,0.00007472,0.00001105,-0.0
 0003464,-0.00015731,0.00004830,-0.00002642,0.00017013,-0.00002842,-0.0
 0024189,-0.00040019,0.00000844,0.00019067,0.00056514,-0.00017270,0.000
 06494,-0.00003440,0.00001070,0.00000517,0.00001264,-0.00001183,-0.0000
 0688,-0.00002141,0.00001165,0.00000850,-0.00002670,0.00001486,0.000004
 08,0.00000212,-0.00000586,0.00000563,0.00007352,-0.00005187,0.00004646
 ,-0.00004514,-0.00001340,0.00003473,0.00000096,0.00000260,0.00000343,0
 .00017013,0.00000424,0.00005323,-0.00069303,0.00013996,0.00084857,0.00
 539191,-0.00098658,-0.00022352,-0.00910316,-0.02056337,0.00354846,-0.0
 8649656,-0.25030741,0.04804632,0.00214231,0.01490996,0.00179624,-0.001
 41336,0.00037813,-0.00072464,0.00053063,0.00039997,0.00022660,0.000458
 93,0.00012056,-0.00007818,0.00008016,0.00047426,0.00009481,-0.00020940
 ,-0.00148673,0.00029697,0.00036090,-0.00005272,-0.00040359,-0.00264503
 ,-0.00691846,0.00192890,0.09147911,0.26360833,0.00109932,-0.00009251,0
 .00015075,-0.00024862,-0.00008684,0.00026149,-0.00002533,-0.00001602,0
 .00001108,-0.00002871,-0.00000729,-0.00008484,0.00000760,0.00009011,0.
 00015599,-0.00011646,-0.00012175,-0.00000960,0.00007906,0.00036441,0.0
 0021414,-0.00189912,0.00048314,-0.00071181,0.00007348,0.00000451,-0.00
 002440,-0.00003037,0.00004946,0.00004035,0.00001655,0.00002372,-0.0000
 0561,-0.00000342,-0.00000518,0.00001442,0.00000531,0.00001574,0.000012
 74,-0.00001683,-0.00015451,-0.00018194,0.00001717,0.00003473,0.0000175
 6,0.00000008,-0.00003023,0.00006840,0.00007037,-0.00002169,-0.00018478
 ,-0.00018341,-0.00000748,0.00021878,-0.00132130,-0.00009190,0.00053693
 ,0.00181552,0.00646484,-0.00025782,0.01332991,0.04561428,-0.06350523,0
 .02508798,0.02181418,-0.01995343,0.00150682,0.00103864,-0.00038705,-0.
 00131019,0.00005664,-0.00011209,0.00007254,-0.00031206,-0.00019658,0.0
 0017701,0.00031473,0.00023422,0.00035307,0.00033044,0.00018862,-0.0001
 1177,-0.00055445,0.00059069,-0.00867883,-0.02057110,0.00761071,-0.0319
 0364,-0.05514927,0.07410171,-0.00099630,0.00035156,0.00049958,-0.00084
 254,-0.00019029,-0.00072841,-0.00003702,-0.00002095,0.00023823,-0.0001
 3906,0.00004245,-0.00011045,0.00025246,0.00015548,0.00015603,-0.000526
 58,-0.00033363,-0.00006754,-0.00003614,0.00110751,0.00010748,0.0006652
 1,-0.00037807,-0.00228145,0.00021097,0.00001502,0.00026119,0.00010827,
 0.00013977,0.00050917,0.00004340,0.00000766,-0.00003437,0.00003441,-0.
 00003634,0.00000836,0.00004009,0.00007166,0.00003524,-0.00023520,-0.00
 015766,-0.00018455,0.00017342,0.00017009,0.00007033,0.00006001,-0.0001
 6636,0.00028204,-0.00016027,-0.00018847,-0.00016832,-0.00276700,-0.000
 90629,-0.00171459,-0.00017488,0.00047669,0.00036152,0.00115867,0.00139
 960,0.00156067,0.01982429,-0.00245284,0.02180491,-0.18013135,0.0211674
 7,-0.19510750,-0.01157564,0.00229140,0.01109477,0.00756208,-0.00811433
 ,0.00138177,0.00168290,-0.00136580,-0.00022145,-0.00024492,-0.00046324
 ,-0.00032397,-0.00007741,0.00033639,0.00001727,-0.00062306,-0.00010040
 ,-0.00094034,-0.00288625,0.00087110,0.00511861,-0.00198375,-0.00071717
 ,0.00241729,0.16636057,-0.00097979,-0.00025403,-0.00001575,0.00045472,
 0.00044672,-0.00019420,-0.00011581,0.00010878,-0.00009254,-0.00002690,
 -0.00010657,-0.00000440,0.00017374,-0.00039125,0.00016126,-0.00078072,
 0.00001640,0.00035997,0.00142000,-0.00010085,0.00038114,0.00107427,-0.
 00076676,0.00034530,-0.00003700,-0.00007110,0.00006054,0.00003974,0.00
 011828,-0.00012553,0.00004541,-0.00007047,0.00001088,0.00006832,-0.000
 01001,0.00004497,-0.00004892,-0.00003428,-0.00003212,0.00018831,0.0003
 6519,0.00005384,0.00016391,0.00000424,-0.00002169,-0.00007666,0.000008
 36,0.00021191,-0.00018839,0.00040724,-0.00051343,-0.00059646,0.0025448
 4,0.00228892,0.00145839,-0.00072978,-0.00272397,-0.00075783,0.00067460
 ,-0.00056662,-0.00606328,0.00095284,-0.00606061,0.02262585,-0.01161204
 ,0.02392130,0.00489408,0.00175228,-0.00486275,-0.00914794,-0.00545015,
 0.00002540,-0.00167338,-0.00165721,-0.00069302,0.00007656,0.00016381,0
 .00044586,-0.00021092,-0.00003478,0.00019736,-0.00021952,-0.00001492,0
 .00066039,0.00219847,-0.00074941,-0.00415042,0.00009059,-0.00021133,0.
 00112540,-0.01780748,0.02099429,0.00653346,-0.00013641,-0.00147453,-0.
 00055945,-0.00038491,0.00244379,0.00005531,-0.00008892,-0.00044029,-0.
 00035642,-0.00005794,0.00034952,0.00046032,0.00048880,-0.00020817,-0.0
 0006699,-0.00000883,0.00112760,0.00027172,0.00090865,-0.00099579,-0.01
 010513,0.00091877,0.00149592,0.00025359,0.00003465,-0.00039484,-0.0000
 2819,-0.00000972,-0.00041939,0.00010344,0.00011861,-0.00006758,0.00000
 168,-0.00003583,-0.00007122,0.00003837,0.00005260,-0.00003458,-0.00054
 816,-0.00054621,-0.00026047,0.00001335,0.00005325,-0.00018474,-0.00003
 209,-0.00006361,-0.00022748,-0.00016839,-0.00051350,0.00016003,-0.0006
 7945,-0.00030648,-0.00245089,-0.00070130,-0.00110290,0.00078992,0.0000
 8866,-0.00109863,0.00210680,-0.01037664,-0.00115409,-0.03783781,-0.153
 35399,0.01648505,-0.29916777,0.00006009,-0.00317462,0.00983820,0.00820
 480,-0.00169074,-0.00995909,0.00041099,-0.00075905,0.00052364,-0.00001
 318,-0.00010920,-0.00030601,0.00002129,0.00048824,-0.00008983,-0.00148
 999,0.00107335,-0.00041145,0.00288586,0.00088484,-0.00104986,-0.001429
 90,-0.00031339,0.00104358,0.15906793,-0.01483210,0.33835429,0.00011700
 ,0.00006392,-0.00003611,-0.00004230,-0.00004073,0.00005074,0.00000097,
 -0.00001088,0.00000304,0.00000591,0.00000640,-0.00000134,-0.00002435,0
 .00004887,-0.00001535,0.00006052,-0.00001280,-0.00005005,-0.00016183,0
 .00007924,0.00000489,-0.00013258,-0.00003928,0.00000523,0.00000289,0.0
 0000686,-0.00000859,0.00000242,-0.00000548,-0.00000057,-0.00000427,0.0
 0000987,-0.00000091,-0.00000839,0.00000213,-0.00000319,0.00000519,0.00
 000341,0.00000208,-0.00001980,-0.00004644,-0.00000248,-0.00001291,0.00
 000212,0.00000531,0.00000447,-0.00000807,-0.00000488,0.00004008,-0.000
 04893,0.00003837,-0.00008472,0.00002503,-0.00010889,-0.00123621,0.0006
 6814,-0.00381167,-0.00651297,-0.01766254,0.00106711,0.00036117,-0.0016
 1318,0.00129721,-0.00013978,0.00071118,-0.00041699,-0.08296866,-0.0777
 0330,0.00610366,-0.01160028,-0.02138133,0.00922315,0.00033136,-0.00000
 045,0.00001935,-0.00006939,-0.00120563,-0.00005506,0.00015775,-0.00032
 011,-0.00011605,0.00060344,0.00037706,0.00004337,0.00039459,0.00020030
 ,-0.00005452,-0.00017100,0.00071756,-0.00041080,0.00011432,-0.00101048
 ,0.00054536,0.09115033,-0.00005253,0.00005992,0.00000471,0.00000860,-0
 .00002356,-0.00002000,-0.00000461,-0.00000946,0.00001477,0.00003962,0.
 00000868,-0.00001716,-0.00008123,0.00003554,-0.00001553,0.00009890,-0.
 00001682,-0.00012531,-0.00028147,0.00006044,0.00005376,0.00008970,-0.0
 0006340,0.00000012,-0.00001372,0.00000878,-0.00000128,0.00000634,-0.00
 000949,0.00000070,-0.00001259,0.00000809,0.00000458,-0.00001507,0.0000
 0854,-0.00000067,0.00000341,-0.00000276,0.00000350,0.00001903,-0.00002
 743,0.00001489,-0.00002241,-0.00000586,0.00001574,0.00000563,-0.000002
 85,-0.00000385,0.00007166,-0.00003430,0.00005260,-0.00008815,0.0000775
 2,0.00026217,-0.00063855,0.00116359,-0.00206788,-0.00119368,-0.0064851
 2,0.00051273,0.00086750,0.00052871,0.00062805,-0.00039924,0.00035946,-
 0.00012253,-0.08566948,-0.28534045,0.02435611,-0.00140077,0.00601391,0
 .00209922,0.00042627,-0.00000892,-0.00002205,-0.00047307,-0.00042953,0
 .00005760,0.00008783,0.00036903,0.00009535,-0.00004399,0.00003839,-0.0
 0053568,0.00018070,0.00017878,-0.00011767,-0.00045441,0.00051606,-0.00
 022379,0.00015129,-0.00052793,0.00034669,0.09453253,0.29733004,0.00009
 620,0.00001254,-0.00000439,-0.00002765,-0.00001745,0.00001295,-0.00000
 315,0.00000382,0.00002066,0.00000223,-0.00000663,-0.00002029,-0.000002
 52,0.00002467,0.00002456,-0.00001296,-0.00003087,-0.00009200,-0.000036
 06,0.00006712,0.00011759,-0.00014082,0.00001589,-0.00001164,0.00001140
 ,0.00000059,-0.00000038,-0.00000152,0.00001024,0.00000725,-0.00000219,
 0.00000573,-0.00000124,0.00000046,-0.00000012,0.00000520,0.00000208,0.
 00000350,0.00000048,-0.00001717,-0.00002817,-0.00001791,0.00000207,0.0
 0000563,0.00001274,-0.00000208,0.00000713,0.00002715,0.00003524,-0.000
 03213,-0.00003458,0.00008034,0.00118444,0.00199802,-0.00286951,0.00036
 997,-0.00569415,-0.00961976,-0.02559169,0.00374447,0.00062545,-0.00106
 360,0.00105972,0.00021745,0.00012674,0.00034009,0.00406977,0.01587374,
 -0.05032431,0.02013836,0.03255586,-0.01078540,0.00006820,-0.00015201,-
 0.00009860,-0.00069278,-0.00170957,0.00021789,0.00007169,0.00023303,-0
 .00001395,0.00064426,0.00018803,0.00073631,0.00038415,0.00000413,0.000
 01471,-0.00002642,0.00071698,-0.00018349,-0.00075590,0.00044200,-0.000
 57301,-0.01508002,-0.02580358,0.06412160,-0.00036814,-0.00003322,0.000
 06254,0.00012295,0.00005905,-0.00010388,-0.00000826,-0.00000178,-0.000
 00753,0.00004636,0.00001112,-0.00000997,-0.00007379,-0.00006307,-0.000
 00165,0.00006998,0.00005096,0.00000773,0.00002714,-0.00015730,0.000025
 47,0.00050182,-0.00003376,-0.00000038,-0.00003693,-0.00000325,0.000010
 13,0.00000801,-0.00001722,-0.00001168,-0.00000698,-0.00000952,0.000009
 80,-0.00000773,0.00000800,0.00000199,-0.00000839,-0.00001507,0.0000004
 6,0.00008406,0.00006494,0.00003530,-0.00002640,-0.00002670,-0.00000342
 ,0.00000127,0.00001419,-0.00002765,0.00003442,0.00006834,0.00000166,0.
 00013753,-0.00114814,-0.00041145,-0.00006084,0.00172693,0.00101088,-0.
 01337421,0.01266145,-0.00411436,-0.00052663,-0.00255977,-0.00351072,-0
 .00020832,0.00002462,-0.00014815,-0.19426670,0.11649550,-0.02728466,-0
 .01927835,0.00944154,0.01311055,-0.00012390,0.00027134,0.00005852,0.00
 049398,-0.00006449,-0.00009855,0.00005897,-0.00105108,-0.00022079,0.00
 045238,-0.00008595,-0.00043970,-0.00077689,0.00088337,-0.00030856,0.00
 014650,0.00017142,-0.00010800,0.00125083,-0.00075792,0.00116422,0.0106
 7024,-0.00685314,0.00078767,0.21483661,0.00017677,0.00001473,-0.000008
 89,-0.00005558,-0.00001979,0.00004053,0.00000647,0.00000464,0.00000036
 ,-0.00003332,-0.00000739,0.00000214,0.00006074,0.00001444,0.00002051,-
 0.00006318,-0.00001660,0.00004987,0.00012744,0.00003606,-0.00001682,-0
 .00023518,0.00000954,-0.00003028,0.00001796,-0.00000257,-0.00000266,-0
 .00000344,0.00000712,0.00001119,0.00000848,0.00000027,-0.00000556,0.00
 000800,-0.00000676,0.00000047,0.00000213,0.00000854,-0.00000012,-0.000
 03636,-0.00002181,-0.00003061,0.00001901,0.00001486,-0.00000518,-0.000
 00156,-0.00000398,0.00001362,-0.00003634,-0.00001001,-0.00003583,0.000
 29976,0.00014806,0.00017394,-0.00101057,0.00100812,-0.00005702,-0.0081
 1913,0.00558420,-0.00177324,-0.00078159,-0.00031462,-0.00141352,0.0002
 8998,-0.00012039,0.00055534,0.12014062,-0.15851102,0.02159223,0.000001
 76,0.00787276,-0.00381243,-0.00015948,-0.00005647,-0.00000936,0.000103
 26,0.00013472,0.00006751,0.00025450,0.00010836,-0.00004837,0.00052162,
 0.00024296,0.00061193,-0.00012694,0.00061529,-0.00016426,-0.00014997,0
 .00032645,-0.00022404,-0.00090301,0.00012121,-0.00036391,0.02214918,-0
 .01582793,0.00446662,-0.13140448,0.15865304,-0.00007096,-0.00001824,0.
 00011967,0.00002968,0.00001476,-0.00012392,-0.00000397,0.00000785,0.00
 003163,0.00001798,-0.00000152,-0.00004975,-0.00001846,-0.00002790,0.00
 006937,-0.00003567,-0.00001862,-0.00007214,0.00006264,-0.00003269,0.00
 012188,0.00005701,0.00000751,-0.00008396,-0.00000026,-0.00000234,0.000
 01546,-0.00000064,0.00000758,0.00003393,-0.00000244,-0.00000559,0.0000
 0372,0.00000199,0.00000047,0.00000972,-0.00000319,-0.00000067,0.000005
 20,0.00003880,0.00001732,-0.00003767,0.00000819,0.00000408,0.00001442,
 -0.00000265,0.00000287,0.00003032,0.00000838,0.00004498,-0.00007122,0.
 00002829,0.00034796,0.00086270,0.00060821,0.00141848,0.00024655,-0.020
 82251,0.01718467,-0.00228464,-0.00196045,-0.00339097,-0.00549165,0.000
 73138,-0.00032080,0.00263633,-0.02885263,0.02418237,-0.05367648,0.0361
 9162,-0.02101918,-0.00691800,-0.00015774,-0.00008261,-0.00012267,0.000
 30933,0.00008695,0.00000032,0.00019557,-0.00072179,0.00001491,0.000571
 20,0.00035098,0.00061428,-0.00150921,0.00110434,-0.00017397,0.00018515
 ,-0.00023333,0.00017149,-0.00196481,0.00102718,-0.00264322,-0.00240036
 ,0.00089179,0.00121127,0.02006434,-0.01886333,0.06513873,-0.00004817,-
 0.00028692,0.00009558,0.00001116,0.00015615,-0.00009176,0.00000943,0.0
 0012122,0.00004379,-0.00015126,-0.00010122,-0.00001720,0.00038620,-0.0
 0019248,0.00022442,-0.00074259,-0.00006764,0.00027293,0.00142691,-0.00
 003314,0.00038769,0.00001591,0.00031650,-0.00011008,0.00006423,-0.0000
 5647,0.00004604,0.00000111,0.00007796,0.00004073,0.00006494,-0.0000496
 2,-0.00002092,0.00008405,-0.00003637,0.00003879,-0.00001979,0.00001903
 ,-0.00001717,-0.00005820,0.00013715,-0.00011803,0.00018951,0.00007352,
 -0.00001683,-0.00010368,0.00006537,0.00026649,-0.00023515,0.00018834,-
 0.00054814,-0.00847875,0.00363755,0.00889714,0.00647340,0.00291742,-0.
 00476221,0.00156876,0.00065139,0.00030816,0.00076522,0.00012538,-0.001
 21348,-0.00276237,-0.00182893,-0.00003848,-0.01386567,-0.02427452,0.01
 102271,-0.09669203,-0.13339522,0.02287761,-0.00347535,-0.00292724,-0.0
 0288661,-0.00081183,-0.00051287,0.00141052,-0.00091441,0.00025898,0.00
 079246,-0.00076603,-0.00050279,-0.00048390,-0.00029051,0.00009770,-0.0
 0002934,-0.00012828,-0.00028202,0.00026775,0.00389550,0.00552704,-0.00
 027118,-0.00083322,0.00110908,0.00205349,0.00020943,-0.00106756,-0.001
 30379,0.11521153,-0.00108481,-0.00039736,0.00008761,0.00037911,0.00035
 500,-0.00017191,0.00001756,0.00007599,-0.00014367,-0.00010495,-0.00003
 843,0.00007187,0.00030233,-0.00041600,0.00013313,-0.00040588,0.0002668
 3,0.00101422,0.00264102,-0.00104100,0.00004676,0.00153741,0.00018022,0
 .00011347,-0.00006822,-0.00007539,0.00003593,-0.00000326,-0.00002165,-
 0.00007421,0.00007148,-0.00009549,0.00000398,0.00006495,-0.00002181,0.
 00001733,-0.00004644,-0.00002742,-0.00002817,0.00013716,0.00035675,0.0
 0005228,0.00005252,-0.00005184,-0.00015450,-0.00007188,0.00013341,-0.0
 0006770,-0.00015760,0.00036528,-0.00054625,0.00287173,-0.00508265,0.00
 862017,0.00740424,0.00469090,-0.00881021,0.00097598,0.00079491,-0.0010
 4360,-0.00121916,-0.00022283,0.00207653,-0.00240772,0.00068501,-0.0039
 6503,-0.00421277,0.00123367,0.00654192,-0.15805877,-0.35503265,0.01465
 764,-0.00582701,0.00252964,0.00223651,-0.00099096,-0.00099993,0.002415
 63,-0.00079166,-0.00035434,0.00056314,-0.00071327,-0.00095820,-0.00092
 631,-0.00021833,0.00014647,-0.00056251,0.00040592,-0.00025900,-0.00015
 484,0.00554718,-0.00588620,0.00489750,0.00150583,0.00205033,-0.0018825
 8,0.00233309,-0.00000603,-0.00196257,0.15013520,0.35712381,0.00056885,
 -0.00012968,-0.00031062,-0.00012949,0.00003823,0.00046955,0.00004501,-
 0.00001160,-0.00028733,-0.00024260,0.00000703,0.00022373,0.00041431,-0
 .00009762,-0.00006618,-0.00038139,0.00019528,0.00145388,0.00211944,-0.
 00018817,-0.00061497,-0.00074115,0.00020419,0.00006322,0.00004251,-0.0
 0002076,-0.00004184,-0.00004377,-0.00001171,-0.00006919,0.00010415,-0.
 00004431,-0.00002535,0.00003530,-0.00003061,-0.00003767,-0.00000248,0.
 00001489,-0.00001791,-0.00011803,0.00005227,-0.00000892,0.00012490,0.0
 0004646,-0.00018191,-0.00006226,-0.00011063,-0.00012068,-0.00018453,0.
 00005385,-0.00026042,0.00545944,0.00588479,0.00153564,0.00219163,-0.00
 239418,-0.01041157,-0.00091747,0.00141927,0.00020763,-0.00031322,0.000
 89654,-0.00114265,0.00006559,-0.00142583,-0.00035662,0.02121189,0.0370
 7086,-0.00618082,0.00889888,-0.01968425,-0.04110108,-0.00469957,0.0003
 7802,0.00114290,0.00005366,-0.00014996,0.00091476,-0.00054589,0.000105
 54,0.00035721,-0.00012223,-0.00058476,0.00091214,-0.00002515,-0.000013
 17,0.00003823,0.00007080,-0.00042508,0.00015501,-0.00038875,0.00312551
 ,0.00103474,0.00416895,-0.00033807,-0.00581730,0.00045984,-0.00074081,
 0.00039739,-0.03711718,-0.02309156,0.05814699\\0.00000048,0.00000071,0
 .00000151,0.00000019,-0.00000039,0.00000108,0.00000004,0.00000004,0.00
 000010,-0.00000028,0.00000095,-0.00000022,0.00000016,0.00000222,-0.000
 00039,-0.00000013,-0.00000065,-0.00000097,-0.00000058,0.00000004,-0.00
 000144,0.00000028,0.00000053,0.00000141,0.00000050,-0.00000009,0.00000
 180,0.00000033,-0.00000107,0.00000132,0.00000005,-0.00000085,-0.000000
 14,0.00000012,0.00000124,0.00000025,-0.00000025,0.00000107,-0.00000125
 ,-0.00000027,0.00000133,0.00000038,-0.00000040,-0.00000078,-0.00000172
 ,-0.00000016,-0.00000158,-0.00000066,-0.00000017,0.00000092,-0.0000007
 6,-0.00000083,-0.00000070,-0.00000128,0.00000003,0.00000034,-0.0000014
 4,0.00000008,0.,-0.00000002,0.00000011,0.00000068,0.00000103,0.0000005
 9,-0.00000019,0.00000103,0.00000026,-0.00000103,0.00000015,-0.00000002
 ,-0.00000216,0.00000048,0.,-0.00000034,-0.00000106,-0.00000034,0.00000
 109,-0.00000128,-0.00000046,0.00000012,-0.00000190,-0.00000006,0.00000
 083,0.00000012,0.00000017,0.00000150,0.00000067,0.00000037,0.00000077,
 0.00000169,-0.00000004,-0.00000089,0.00000085,0.00000020,-0.00000105,0
 .00000126,-0.00000007,-0.00000120,-0.00000026,0.00000011,-0.00000141,-
 0.00000036\\\@


 ... IT IS NO ONE DREAME THAT
     CAN PLEASE THESE ALL ...

                -- BEN JONSON
 Job cpu time:       0 days  0 hours 29 minutes 16.2 seconds.
 Elapsed time:       0 days  0 hours  7 minutes 21.2 seconds.
 File lengths (MBytes):  RWF=    240 Int=      0 D2E=      0 Chk=      6 Scr=      1
 Normal termination of Gaussian 16 at Tue Aug  9 17:03:00 2022.
real 3476.53
user 12550.86
sys 69.22
