 Entering Gaussian System, Link 0=g16
 Input=gaussian_test.inp
 Output=gaussian_test.log
 Initial command:
 /sw/restricted/lms/sw/Gaussian/g16_B01/g16/l1.exe "/scratch/user/peterchao1/peterchao1/6931806_1675363864000000809180298/Gau-95353.inp" -scrdir="/scratch/user/peterchao1/peterchao1/6931806_1675363864000000809180298/"
 Entering Link 1 = /sw/restricted/lms/sw/Gaussian/g16_B01/g16/l1.exe PID=     95369.
  
 Copyright (c) 1988-2017, Gaussian, Inc.  All Rights Reserved.
  
 This is part of the Gaussian(R) 16 program.  It is based on
 the Gaussian(R) 09 system (copyright 2009, Gaussian, Inc.),
 the Gaussian(R) 03 system (copyright 2003, Gaussian, Inc.),
 the Gaussian(R) 98 system (copyright 1998, Gaussian, Inc.),
 the Gaussian(R) 94 system (copyright 1995, Gaussian, Inc.),
 the Gaussian 92(TM) system (copyright 1992, Gaussian, Inc.),
 the Gaussian 90(TM) system (copyright 1990, Gaussian, Inc.),
 the Gaussian 88(TM) system (copyright 1988, Gaussian, Inc.),
 the Gaussian 86(TM) system (copyright 1986, Carnegie Mellon
 University), and the Gaussian 82(TM) system (copyright 1983,
 Carnegie Mellon University). Gaussian is a federally registered
 trademark of Gaussian, Inc.
  
 This software contains proprietary and confidential information,
 including trade secrets, belonging to Gaussian, Inc.
  
 This software is provided under written license and may be
 used, copied, transmitted, or stored only in accord with that
 written license.
  
 The following legend is applicable only to US Government
 contracts under FAR:
  
                    RESTRICTED RIGHTS LEGEND
  
 Use, reproduction and disclosure by the US Government is
 subject to restrictions as set forth in subparagraphs (a)
 and (c) of the Commercial Computer Software - Restricted
 Rights clause in FAR 52.227-19.
  
 Gaussian, Inc.
 340 Quinnipiac St., Bldg. 40, Wallingford CT 06492
  
  
 ---------------------------------------------------------------
 Warning -- This program may not be used in any manner that
 competes with the business of Gaussian, Inc. or will provide
 assistance to any competitor of Gaussian, Inc.  The licensee
 of this program is prohibited from giving any competitor of
 Gaussian, Inc. access to this program.  By using this program,
 the user acknowledges that Gaussian, Inc. is engaged in the
 business of creating and licensing software in the field of
 computational chemistry and represents and warrants to the
 licensee that it is not a competitor of Gaussian, Inc. and that
 it will not use this program in any manner prohibited above.
 ---------------------------------------------------------------
  

 Cite this work as:
 Gaussian 16, Revision B.01,
 M. J. Frisch, G. W. Trucks, H. B. Schlegel, G. E. Scuseria, 
 M. A. Robb, J. R. Cheeseman, G. Scalmani, V. Barone, 
 G. A. Petersson, H. Nakatsuji, X. Li, M. Caricato, A. V. Marenich, 
 J. Bloino, B. G. Janesko, R. Gomperts, B. Mennucci, H. P. Hratchian, 
 J. V. Ortiz, A. F. Izmaylov, J. L. Sonnenberg, D. Williams-Young, 
 F. Ding, F. Lipparini, F. Egidi, J. Goings, B. Peng, A. Petrone, 
 T. Henderson, D. Ranasinghe, V. G. Zakrzewski, J. Gao, N. Rega, 
 G. Zheng, W. Liang, M. Hada, M. Ehara, K. Toyota, R. Fukuda, 
 J. Hasegawa, M. Ishida, T. Nakajima, Y. Honda, O. Kitao, H. Nakai, 
 T. Vreven, K. Throssell, J. A. Montgomery, Jr., J. E. Peralta, 
 F. Ogliaro, M. J. Bearpark, J. J. Heyd, E. N. Brothers, K. N. Kudin, 
 V. N. Staroverov, T. A. Keith, R. Kobayashi, J. Normand, 
 K. Raghavachari, A. P. Rendell, J. C. Burant, S. S. Iyengar, 
 J. Tomasi, M. Cossi, J. M. Millam, M. Klene, C. Adamo, R. Cammi, 
 J. W. Ochterski, R. L. Martin, K. Morokuma, O. Farkas, 
 J. B. Foresman, and D. J. Fox, Gaussian, Inc., Wallingford CT, 2016.
 
 ******************************************
 Gaussian 16:  ES64L-G16RevB.01 20-Dec-2017
                 2-Feb-2023 
 ******************************************
 %chk=34.chk
 %nprocshared=4
 Will use up to    4 processors via shared memory.
 %mem=8000mb
 --------------------------------------------------------------
 #T wB97XD//def2svpp Volume=tight Geom=AllCheckpoint Guess=Read
 --------------------------------------------------------------
 Structure from the checkpoint file:  "34.chk"
 -------
 Monomer
 -------
 Charge =  0 Multiplicity = 1
 Redundant internal coordinates found in file.  (old form).
 C,0,-2.8551352653,-0.5764072519,0.0001813564
 C,0,-1.3729721229,-0.8435148448,-0.2673500266
 C,0,-0.3954954561,0.3345783421,-0.006134349
 C,0,-0.5908512015,1.3863462934,-1.1142424806
 C,0,-0.7439138819,1.0010735508,1.3375930344
 C,0,1.1021328391,-0.1926830898,0.0052924838
 C,0,1.373584676,-1.1545816572,-1.1672134294
 C,0,2.1058364401,0.9700153458,-0.1147338497
 C,0,1.4209379778,-0.9447349108,1.3113171248
 H,0,-3.0589187797,-0.4046017408,1.0703073263
 H,0,-3.4564278475,-1.4477541797,-0.311504129
 H,0,-3.2331306819,0.2973604797,-0.5584069295
 H,0,-1.2640585849,-1.1631902337,-1.3184131602
 H,0,-1.073011528,-1.7114375022,0.3466127803
 H,0,-1.6579985716,1.6458298295,-1.2198012233
 H,0,-0.242314605,1.0244587412,-2.0970306462
 H,0,-0.0554594832,2.3233013828,-0.8875205007
 H,0,-1.6994838846,1.5476608785,1.2636450103
 H,0,0.0229084578,1.7344226795,1.6402086079
 H,0,-0.8477317156,0.2643314339,2.1523808865
 H,0,1.0798303701,-0.7212577688,-2.1389964152
 H,0,0.845677667,-2.1153282505,-1.0493965294
 H,0,2.4534429974,-1.3804711072,-1.2224318494
 H,0,1.922349108,1.7620224676,0.6317227592
 H,0,2.084044948,1.4335105195,-1.1151621228
 H,0,3.1322856522,0.5967366792,0.0499742805
 H,0,0.6887229899,-1.7418863806,1.5270678504
 H,0,1.4505256815,-0.2670280752,2.1809126425
 H,0,2.4134620824,-1.4235682525,1.2358631532
 Recover connectivity data from disk.
                           ----------------------------
                           !    Current Parameters    !
                           ! (Angstroms and Degrees)  !
 --------------------------                            --------------------------
 ! Name  Definition              Value                                          !
 --------------------------------------------------------------------------------
 ! R1    R(1,2)                  1.5296                                         !
 ! R2    R(1,10)                 1.1028                                         !
 ! R3    R(1,11)                 1.1036                                         !
 ! R4    R(1,12)                 1.1038                                         !
 ! R5    R(2,3)                  1.5529                                         !
 ! R6    R(2,13)                 1.104                                          !
 ! R7    R(2,14)                 1.1046                                         !
 ! R8    R(3,4)                  1.5402                                         !
 ! R9    R(3,5)                  1.5399                                         !
 ! R10   R(3,6)                  1.5878                                         !
 ! R11   R(4,15)                 1.1033                                         !
 ! R12   R(4,16)                 1.1038                                         !
 ! R13   R(4,17)                 1.1027                                         !
 ! R14   R(5,18)                 1.1033                                         !
 ! R15   R(5,19)                 1.1034                                         !
 ! R16   R(5,20)                 1.1034                                         !
 ! R17   R(6,7)                  1.5407                                         !
 ! R18   R(6,8)                  1.5407                                         !
 ! R19   R(6,9)                  1.5404                                         !
 ! R20   R(7,21)                 1.1038                                         !
 ! R21   R(7,22)                 1.1025                                         !
 ! R22   R(7,23)                 1.1046                                         !
 ! R23   R(8,24)                 1.1037                                         !
 ! R24   R(8,25)                 1.1028                                         !
 ! R25   R(8,26)                 1.1046                                         !
 ! R26   R(9,27)                 1.1037                                         !
 ! R27   R(9,28)                 1.1029                                         !
 ! R28   R(9,29)                 1.1046                                         !
 ! A1    A(2,1,10)             112.0843                                         !
 ! A2    A(2,1,11)             109.9178                                         !
 ! A3    A(2,1,12)             112.4296                                         !
 ! A4    A(10,1,11)            107.24                                           !
 ! A5    A(10,1,12)            107.7255                                         !
 ! A6    A(11,1,12)            107.1875                                         !
 ! A7    A(1,2,3)              116.6166                                         !
 ! A8    A(1,2,13)             108.2205                                         !
 ! A9    A(1,2,14)             107.6449                                         !
 ! A10   A(3,2,13)             108.525                                          !
 ! A11   A(3,2,14)             109.3687                                         !
 ! A12   A(13,2,14)            105.9536                                         !
 ! A13   A(2,3,4)              108.493                                          !
 ! A14   A(2,3,5)              109.4336                                         !
 ! A15   A(2,3,6)              110.0593                                         !
 ! A16   A(4,3,5)              107.6706                                         !
 ! A17   A(4,3,6)              110.5838                                         !
 ! A18   A(5,3,6)              110.5404                                         !
 ! A19   A(3,4,15)             110.6167                                         !
 ! A20   A(3,4,16)             112.1263                                         !
 ! A21   A(3,4,17)             111.7603                                         !
 ! A22   A(15,4,16)            107.298                                          !
 ! A23   A(15,4,17)            106.8252                                         !
 ! A24   A(16,4,17)            107.9593                                         !
 ! A25   A(3,5,18)             110.6034                                         !
 ! A26   A(3,5,19)             111.7008                                         !
 ! A27   A(3,5,20)             112.1277                                         !
 ! A28   A(18,5,19)            106.9197                                         !
 ! A29   A(18,5,20)            107.3847                                         !
 ! A30   A(19,5,20)            107.8579                                         !
 ! A31   A(3,6,7)              111.5945                                         !
 ! A32   A(3,6,8)              111.3039                                         !
 ! A33   A(3,6,9)              111.3112                                         !
 ! A34   A(7,6,8)              107.2831                                         !
 ! A35   A(7,6,9)              107.6954                                         !
 ! A36   A(8,6,9)              107.4371                                         !
 ! A37   A(6,7,21)             112.2108                                         !
 ! A38   A(6,7,22)             112.2318                                         !
 ! A39   A(6,7,23)             109.7525                                         !
 ! A40   A(21,7,22)            107.9829                                         !
 ! A41   A(21,7,23)            107.2433                                         !
 ! A42   A(22,7,23)            107.171                                          !
 ! A43   A(6,8,24)             112.3678                                         !
 ! A44   A(6,8,25)             112.023                                          !
 ! A45   A(6,8,26)             109.8005                                         !
 ! A46   A(24,8,25)            107.9785                                         !
 ! A47   A(24,8,26)            107.2263                                         !
 ! A48   A(25,8,26)            107.1978                                         !
 ! A49   A(6,9,27)             112.3986                                         !
 ! A50   A(6,9,28)             111.9654                                         !
 ! A51   A(6,9,29)             109.8579                                         !
 ! A52   A(27,9,28)            107.9076                                         !
 ! A53   A(27,9,29)            107.2402                                         !
 ! A54   A(28,9,29)            107.2256                                         !
 ! D1    D(10,1,2,3)           -66.2584                                         !
 ! D2    D(10,1,2,13)          171.1193                                         !
 ! D3    D(10,1,2,14)           57.0175                                         !
 ! D4    D(11,1,2,3)           174.5844                                         !
 ! D5    D(11,1,2,13)           51.962                                          !
 ! D6    D(11,1,2,14)          -62.1397                                         !
 ! D7    D(12,1,2,3)            55.2708                                         !
 ! D8    D(12,1,2,13)          -67.3516                                         !
 ! D9    D(12,1,2,14)          178.5466                                         !
 ! D10   D(1,2,3,4)            -72.2544                                         !
 ! D11   D(1,2,3,5)             44.9658                                         !
 ! D12   D(1,2,3,6)            166.6287                                         !
 ! D13   D(13,2,3,4)            50.2095                                         !
 ! D14   D(13,2,3,5)           167.4297                                         !
 ! D15   D(13,2,3,6)           -70.9074                                         !
 ! D16   D(14,2,3,4)           165.3642                                         !
 ! D17   D(14,2,3,5)           -77.4156                                         !
 ! D18   D(14,2,3,6)            44.2473                                         !
 ! D19   D(2,3,4,15)            51.0356                                         !
 ! D20   D(2,3,4,16)           -68.6941                                         !
 ! D21   D(2,3,4,17)           169.9274                                         !
 ! D22   D(5,3,4,15)           -67.3077                                         !
 ! D23   D(5,3,4,16)           172.9627                                         !
 ! D24   D(5,3,4,17)            51.5841                                         !
 ! D25   D(6,3,4,15)           171.8286                                         !
 ! D26   D(6,3,4,16)            52.099                                          !
 ! D27   D(6,3,4,17)           -69.2796                                         !
 ! D28   D(2,3,5,18)           -70.2918                                         !
 ! D29   D(2,3,5,19)           170.7452                                         !
 ! D30   D(2,3,5,20)            49.5396                                         !
 ! D31   D(4,3,5,18)            47.4446                                         !
 ! D32   D(4,3,5,19)           -71.5184                                         !
 ! D33   D(4,3,5,20)           167.276                                          !
 ! D34   D(6,3,5,18)           168.3355                                         !
 ! D35   D(6,3,5,19)            49.3725                                         !
 ! D36   D(6,3,5,20)           -71.8331                                         !
 ! D37   D(2,3,6,7)             45.057                                          !
 ! D38   D(2,3,6,8)            164.879                                          !
 ! D39   D(2,3,6,9)            -75.2948                                         !
 ! D40   D(4,3,6,7)            -74.7996                                         !
 ! D41   D(4,3,6,8)             45.0225                                         !
 ! D42   D(4,3,6,9)            164.8487                                         !
 ! D43   D(5,3,6,7)            166.0586                                         !
 ! D44   D(5,3,6,8)            -74.1194                                         !
 ! D45   D(5,3,6,9)             45.7069                                         !
 ! D46   D(3,6,7,21)            52.2645                                         !
 ! D47   D(3,6,7,22)           -69.5487                                         !
 ! D48   D(3,6,7,23)           171.3966                                         !
 ! D49   D(8,6,7,21)           -69.9013                                         !
 ! D50   D(8,6,7,22)           168.2855                                         !
 ! D51   D(8,6,7,23)            49.2308                                         !
 ! D52   D(9,6,7,21)           174.7147                                         !
 ! D53   D(9,6,7,22)            52.9014                                         !
 ! D54   D(9,6,7,23)           -66.1533                                         !
 ! D55   D(3,6,8,24)            52.1632                                         !
 ! D56   D(3,6,8,25)           -69.6061                                         !
 ! D57   D(3,6,8,26)           171.4067                                         !
 ! D58   D(7,6,8,24)           174.5099                                         !
 ! D59   D(7,6,8,25)            52.7406                                         !
 ! D60   D(7,6,8,26)           -66.2466                                         !
 ! D61   D(9,6,8,24)           -69.9343                                         !
 ! D62   D(9,6,8,25)           168.2964                                         !
 ! D63   D(9,6,8,26)            49.3091                                         !
 ! D64   D(3,6,9,27)            52.6137                                         !
 ! D65   D(3,6,9,28)           -69.0433                                         !
 ! D66   D(3,6,9,29)           171.9332                                         !
 ! D67   D(7,6,9,27)           -70.011                                          !
 ! D68   D(7,6,9,28)           168.3321                                         !
 ! D69   D(7,6,9,29)            49.3086                                         !
 ! D70   D(8,6,9,27)           174.7066                                         !
 ! D71   D(8,6,9,28)            53.0497                                         !
 ! D72   D(8,6,9,29)           -65.9738                                         !
 --------------------------------------------------------------------------------
                    Distance matrix (angstroms):
                    1          2          3          4          5
     1  C    0.000000
     2  C    1.529617   0.000000
     3  C    2.622930   1.552932   0.000000
     4  C    3.197081   2.510223   1.540222   0.000000
     5  C    2.955397   2.524691   1.539875   2.486636   0.000000
     6  C    3.975832   2.573725   1.587774   2.571553   2.570597
     7  C    4.424835   2.906904   2.587537   3.212184   3.924883
     8  C    5.197679   3.926104   2.583067   2.905938   3.198640
     9  C    4.487710   3.210665   2.582973   3.919767   2.910918
    10  H    1.102821   2.196449   2.966300   3.751148   2.721509
    11  H    1.103606   2.169756   3.555175   4.109507   4.009241
    12  H    1.103799   2.201477   2.891118   2.911440   3.207215
    13  H    2.148146   1.103987   2.172507   2.644812   3.465394
    14  H    2.141092   1.104634   2.183950   3.458734   2.906555
    15  H    2.803539   2.680530   2.187757   1.103303   2.791331
    16  H    3.713206   2.848762   2.207090   1.103772   3.471136
    17  H    4.127288   3.485567   2.201701   1.102693   2.678318
    18  H    2.728284   2.858020   2.187303   2.628581   1.103331
    19  H    4.038906   3.497574   2.201152   2.843389   1.103356
    20  H    3.060796   2.712618   2.206500   3.463486   1.103380
    21  H    4.481185   3.087758   2.800085   2.878071   4.287090
    22  H    4.143176   2.674231   2.937848   3.785439   4.235148
    23  H    5.506569   3.980195   3.540794   4.115181   4.737993
    24  H    5.356441   4.296079   2.795865   3.083132   2.861163
    25  H    5.447868   4.225470   2.930139   2.675312   3.768337
    26  H    6.101472   4.740503   3.537953   3.980029   4.104433
    27  H    4.030962   2.877081   2.799633   4.289484   3.100351
    28  H    4.836323   3.781331   2.924534   4.214133   2.671111
    29  H    5.477473   4.114996   3.538909   4.737564   3.982243
                    6          7          8          9         10
     6  C    0.000000
     7  C    1.540683   0.000000
     8  C    1.540680   2.481495   0.000000
     9  C    1.540428   2.487849   2.483742   0.000000
    10  H    4.300409   5.021559   5.474358   4.518733   0.000000
    11  H    4.738780   4.913981   6.068205   5.164811   1.776396
    12  H    4.399137   4.868327   5.399433   5.167110   1.782080
    13  H    2.879747   2.641987   4.166006   3.764626   3.082688
    14  H    2.674765   2.930459   4.184269   2.781775   2.485031
    15  H    3.535436   4.127416   3.980497   4.753676   3.378083
    16  H    2.776461   2.867736   3.073480   4.273285   4.472975
    17  H    2.909865   3.770420   2.664542   4.206507   4.505032
    18  H    3.530057   4.759720   4.088284   3.993913   2.386791
    19  H    2.747983   4.248799   2.828910   3.039826   3.794453
    20  H    2.936124   4.238781   3.789639   2.704828   2.551020
    21  H    2.208589   1.103822   2.830324   3.474329   5.246822
    22  H    2.207873   1.102543   3.461349   2.697069   4.760841
    23  H    2.178115   1.104613   2.621567   2.770526   6.049389
    24  H    2.210440   3.470431   1.103694   2.835454   5.449738
    25  H    2.205465   2.684341   1.102796   3.461728   5.882602
    26  H    2.178692   2.764361   1.104565   2.625991   6.354114
    27  H    2.210597   2.841323   3.472482   1.103693   4.005219
    28  H    2.204592   3.464624   2.688810   1.102886   4.646231
    29  H    2.179212   2.632200   2.765500   1.104572   5.568901
                   11         12         13         14         15
    11  H    0.000000
    12  H    1.776583   0.000000
    13  H    2.429264   2.566722   0.000000
    14  H    2.486628   3.085522   1.763345   0.000000
    15  H    3.691831   2.176431   2.838222   3.750614   0.000000
    16  H    4.430628   3.441078   2.536930   3.761194   1.777581
    17  H    5.110699   3.782902   3.715105   4.340232   1.771302
    18  H    3.813195   2.689832   3.768996   3.443129   2.485732
    19  H    5.103059   4.183402   4.336576   3.840362   3.318577
    20  H    3.975835   3.611037   3.775918   2.686115   3.733187
    21  H    4.944205   4.705048   2.522395   3.434157   3.734131
    22  H    4.415683   4.764327   2.330220   2.406935   4.521476
    23  H    5.980041   5.966001   3.725083   3.873928   5.105140
    24  H    6.334318   5.490047   4.744796   4.595476   4.032435
    25  H    6.296379   5.465635   4.241929   4.689828   3.749522
    26  H    6.908093   6.401428   4.929267   4.806265   5.065545
    27  H    4.544132   4.887604   3.499287   2.120875   4.952677
    28  H    5.628894   5.455185   4.518557   3.437908   4.988667
    29  H    6.070464   6.169685   4.485118   3.609589   5.659354
                   16         17         18         19         20
    16  H    0.000000
    17  H    1.784607   0.000000
    18  H    3.700165   2.816371   0.000000
    19  H    3.813312   2.596600   1.772940   0.000000
    20  H    4.359108   3.756069   1.778277   1.783677   0.000000
    21  H    2.190286   3.482013   4.944750   4.629238   4.806537
    22  H    3.484182   4.532073   5.024490   4.767757   4.333797
    23  H    3.716950   4.486055   5.656972   4.879013   4.999249
    24  H    3.560318   2.556337   3.682791   2.150739   3.496974
    25  H    2.557995   2.328310   4.470665   3.454113   4.543031
    26  H    4.022500   3.744548   5.071809   3.673064   4.513440
    27  H    4.653341   4.786418   4.073579   3.541304   2.603194
    28  H    4.778540   4.288715   3.749271   2.517192   2.359056
    29  H    4.914689   4.964208   5.073983   3.981350   3.784758
                   21         22         23         24         25
    21  H    0.000000
    22  H    1.784794   0.000000
    23  H    1.778051   1.776194   0.000000
    24  H    3.814892   4.361104   3.687169   0.000000
    25  H    2.588380   3.759273   2.840150   1.784845   0.000000
    26  H    3.277388   3.713824   2.447283   1.777714   1.776666
    27  H    3.825529   2.608115   3.287036   3.821106   4.360212
    28  H    4.359513   3.770537   3.718649   2.596084   3.762617
    29  H    3.696145   2.856377   2.458998   3.279354   3.714665
                   26         27         28         29
    26  H    0.000000
    27  H    3.690794   0.000000
    28  H    2.848737   1.784114   0.000000
    29  H    2.450443   1.777878   1.777062   0.000000
 Framework group  C1[X(C9H20)]
 Deg. of freedom    81
                         Standard orientation:                         
 ---------------------------------------------------------------------
 Center     Atomic      Atomic             Coordinates (Angstroms)
 Number     Number       Type             X           Y           Z
 ---------------------------------------------------------------------
      1          6           0       -2.851977   -0.578423   -0.001088
      2          6           0       -1.369658   -0.846062   -0.267220
      3          6           0       -0.392400    0.332725   -0.008325
      4          6           0       -0.587264    1.381823   -1.119048
      5          6           0       -0.741555    1.002410    1.333624
      6          6           0        1.105260   -0.194398    0.005131
      7          6           0        1.377382   -1.159081   -1.164929
      8          6           0        2.108941    0.968083   -0.117164
      9          6           0        1.423450   -0.943298    1.313116
     10          1           0       -3.056322   -0.404071    1.068519
     11          1           0       -3.453047   -1.450558   -0.310995
     12          1           0       -3.229749    0.293977   -0.561960
     13          1           0       -1.260183   -1.168245   -1.317459
     14          1           0       -1.069950   -1.712490    0.348972
     15          1           0       -1.654376    1.640975   -1.225774
     16          1           0       -0.238198    1.017609   -2.100788
     17          1           0       -0.052056    2.319357   -0.894296
     18          1           0       -1.697126    1.548748    1.257878
     19          1           0        0.025059    1.736537    1.634876
     20          1           0       -0.845737    0.267613    2.150120
     21          1           0        1.084094   -0.728106   -2.137897
     22          1           0        0.849484   -2.119581   -1.045083
     23          1           0        2.457285   -1.385023   -1.219054
     24          1           0        1.925015    1.761862    0.627300
     25          1           0        2.087629    1.429180   -1.118710
     26          1           0        3.135333    0.595275    0.048963
     27          1           0        0.691182   -1.739984    1.530399
     28          1           0        1.452543   -0.263509    2.181101
     29          1           0        2.416047   -1.422238    1.239317
 ---------------------------------------------------------------------
 Rotational constants (GHZ):           2.1269881           1.1629531           1.1230911
   166 basis functions,   305 primitive gaussians,   175 cartesian basis functions
    37 alpha electrons       37 beta electrons
       nuclear repulsion energy       524.3795805133 Hartrees.
 NAtoms=   29 NActive=   29 NUniq=   29 SFac= 1.00D+00 NAtFMM=   60 NAOKFM=F Big=F
 Nuclear repulsion after empirical dispersion term =      524.3528055322 Hartrees.
   1 Symmetry operations used in ECPInt.
 ECPInt:  NShTT=    4465 NPrTT=   17943 LenC2=    4452 LenP2D=   14263.
 LDataN:  DoStor=T MaxTD1= 4 Len=   56
 Initial guess from the checkpoint file:  "34.chk"
 B after Tr=     0.000000   -0.000000   -0.000000
         Rot=    1.000000   -0.000000   -0.000000   -0.000000 Ang=   0.00 deg.
 Skip diagonalization as Alpha Fock matrix is already diagonal.
 SCF Done:  E(RwB97XD) =  -354.622720286     A.U. after    1 cycles
            NFock=  1  Conv=0.00D+00     -V/T= 2.0124

 **********************************************************************

            Population analysis using the SCF Density.

 **********************************************************************

 Orbital symmetries:
       Occupied  (A) (A) (A) (A) (A) (A) (A) (A) (A) (A) (A) (A)
                 (A) (A) (A) (A) (A) (A) (A) (A) (A) (A) (A) (A)
                 (A) (A) (A) (A) (A) (A) (A) (A) (A) (A) (A) (A)
                 (A)
       Virtual   (A) (A) (A) (A) (A) (A) (A) (A) (A) (A) (A) (A)
                 (A) (A) (A) (A) (A) (A) (A) (A) (A) (A) (A) (A)
                 (A) (A) (A) (A) (A) (A) (A) (A) (A) (A) (A) (A)
                 (A) (A) (A) (A) (A) (A) (A) (A) (A) (A) (A) (A)
                 (A) (A) (A) (A) (A) (A) (A) (A) (A) (A) (A) (A)
                 (A) (A) (A) (A) (A) (A) (A) (A) (A) (A) (A) (A)
                 (A) (A) (A) (A) (A) (A) (A) (A) (A) (A) (A) (A)
                 (A) (A) (A) (A) (A) (A) (A) (A) (A) (A) (A) (A)
                 (A) (A) (A) (A) (A) (A) (A) (A) (A) (A) (A) (A)
                 (A) (A) (A) (A) (A) (A) (A) (A) (A) (A) (A) (A)
                 (A) (A) (A) (A) (A) (A) (A) (A) (A)
 The electronic state is 1-A.
 Alpha  occ. eigenvalues --  -10.30477 -10.30407 -10.28267 -10.27807 -10.27523
 Alpha  occ. eigenvalues --  -10.27521 -10.27507 -10.27486 -10.27460  -0.93157
 Alpha  occ. eigenvalues --   -0.86692  -0.81568  -0.78142  -0.76804  -0.75240
 Alpha  occ. eigenvalues --   -0.71703  -0.65842  -0.58832  -0.56559  -0.54200
 Alpha  occ. eigenvalues --   -0.53262  -0.52025  -0.51540  -0.48492  -0.48312
 Alpha  occ. eigenvalues --   -0.46758  -0.45518  -0.45069  -0.44409  -0.44200
 Alpha  occ. eigenvalues --   -0.43810  -0.42811  -0.41811  -0.41162  -0.38046
 Alpha  occ. eigenvalues --   -0.37486  -0.37258
 Alpha virt. eigenvalues --    0.12434   0.15613   0.16694   0.17384   0.18071
 Alpha virt. eigenvalues --    0.18299   0.18757   0.20157   0.21004   0.21825
 Alpha virt. eigenvalues --    0.22220   0.23421   0.23752   0.24472   0.24813
 Alpha virt. eigenvalues --    0.25549   0.26591   0.27028   0.28548   0.28945
 Alpha virt. eigenvalues --    0.29731   0.30628   0.31097   0.32236   0.33030
 Alpha virt. eigenvalues --    0.36195   0.36685   0.37678   0.49035   0.49814
 Alpha virt. eigenvalues --    0.50718   0.51286   0.51646   0.53575   0.53796
 Alpha virt. eigenvalues --    0.57442   0.62500   0.64384   0.66109   0.67280
 Alpha virt. eigenvalues --    0.68732   0.69841   0.70446   0.72685   0.74564
 Alpha virt. eigenvalues --    0.75238   0.76250   0.76731   0.77191   0.77661
 Alpha virt. eigenvalues --    0.77903   0.78771   0.79049   0.79592   0.80502
 Alpha virt. eigenvalues --    0.81092   0.81559   0.82225   0.82471   0.82759
 Alpha virt. eigenvalues --    0.83382   0.83706   0.84455   0.85121   0.85707
 Alpha virt. eigenvalues --    0.85988   0.87141   0.87924   0.88664   0.89248
 Alpha virt. eigenvalues --    0.95251   0.95645   0.97487   1.03082   1.04300
 Alpha virt. eigenvalues --    1.08512   1.10518   1.15831   1.19317   1.20801
 Alpha virt. eigenvalues --    1.24324   1.28088   1.38571   1.39836   1.44710
 Alpha virt. eigenvalues --    1.46038   1.61405   1.64933   1.76703   1.77722
 Alpha virt. eigenvalues --    1.82276   1.85841   1.91853   1.94170   1.95167
 Alpha virt. eigenvalues --    1.96319   1.96932   2.00950   2.02554   2.03963
 Alpha virt. eigenvalues --    2.09912   2.10362   2.13204   2.14730   2.15130
 Alpha virt. eigenvalues --    2.16026   2.17722   2.19914   2.23081   2.25862
 Alpha virt. eigenvalues --    2.26839   2.27473   2.27699   2.29818   2.31070
 Alpha virt. eigenvalues --    2.34129   2.34578   2.37774   2.45429   2.47450
 Alpha virt. eigenvalues --    2.49519   2.60040   2.61176   2.69497   2.81722
 Alpha virt. eigenvalues --    2.82842   2.83978   2.86895   2.87496
          Condensed to atoms (all electrons):
 Mulliken charges:
               1
     1  C   -0.311421
     2  C   -0.193410
     3  C   -0.185506
     4  C   -0.284203
     5  C   -0.288827
     6  C   -0.206444
     7  C   -0.274293
     8  C   -0.275691
     9  C   -0.277106
    10  H    0.118278
    11  H    0.117927
    12  H    0.117174
    13  H    0.103363
    14  H    0.103191
    15  H    0.115227
    16  H    0.114357
    17  H    0.117655
    18  H    0.119655
    19  H    0.116211
    20  H    0.119396
    21  H    0.115013
    22  H    0.118255
    23  H    0.111097
    24  H    0.115568
    25  H    0.117662
    26  H    0.111149
    27  H    0.117429
    28  H    0.117070
    29  H    0.111225
 Sum of Mulliken charges =  -0.00000
 Mulliken charges with hydrogens summed into heavy atoms:
               1
     1  C    0.041958
     2  C    0.013143
     3  C   -0.185506
     4  C    0.063037
     5  C    0.066435
     6  C   -0.206444
     7  C    0.070071
     8  C    0.068688
     9  C    0.068618
 Electronic spatial extent (au):  <R**2>=           1406.4998
 Charge=              0.0000 electrons
 Dipole moment (field-independent basis, Debye):
    X=             -0.0313    Y=             -0.0464    Z=              0.0049  Tot=              0.0562
 Evaluate density.
 Using the total density.
 Monte-Carlo method of calculating molar volume:
 based on  0.001 e/bohr**3 density envelope.
 Number of points per bohr**3 =  100 CutOff= 1.00D-04
 Using the SCF density.
 There are      1920 points.  Will hold      1920 in memory.
 LenV=  1048203059 MDV=  1048576000.
 Box volume = 7086.987 fraction occupied=0.178
 Integrated density= 6.4797995813517531D+01 error=-9.2020041864824691D+00
 Molar volume = 1262.370 bohr**3/mol (112.653 cm**3/mol)
 Recommended a0 for SCRF calculation =  4.40 angstrom (  8.32 bohr)
 1\1\GINC-C517\SP\RwB97XD\def2SVPP\C9H20\PETERCHAO1\02-Feb-2023\0\\#T w
 B97XD//def2svpp Volume=tight Geom=AllCheckpoint Guess=Read\\Monomer\\0
 ,1\C,0,-2.8551352653,-0.5764072519,0.0001813564\C,0,-1.3729721229,-0.8
 435148448,-0.2673500266\C,0,-0.3954954561,0.3345783421,-0.006134349\C,
 0,-0.5908512015,1.3863462934,-1.1142424806\C,0,-0.7439138819,1.0010735
 508,1.3375930344\C,0,1.1021328391,-0.1926830898,0.0052924838\C,0,1.373
 584676,-1.1545816572,-1.1672134294\C,0,2.1058364401,0.9700153458,-0.11
 47338497\C,0,1.4209379778,-0.9447349108,1.3113171248\H,0,-3.0589187797
 ,-0.4046017408,1.0703073263\H,0,-3.4564278475,-1.4477541797,-0.3115041
 29\H,0,-3.2331306819,0.2973604797,-0.5584069295\H,0,-1.2640585849,-1.1
 631902337,-1.3184131602\H,0,-1.073011528,-1.7114375022,0.3466127803\H,
 0,-1.6579985716,1.6458298295,-1.2198012233\H,0,-0.242314605,1.02445874
 12,-2.0970306462\H,0,-0.0554594832,2.3233013828,-0.8875205007\H,0,-1.6
 994838846,1.5476608785,1.2636450103\H,0,0.0229084578,1.7344226795,1.64
 02086079\H,0,-0.8477317156,0.2643314339,2.1523808865\H,0,1.0798303701,
 -0.7212577688,-2.1389964152\H,0,0.845677667,-2.1153282505,-1.049396529
 4\H,0,2.4534429974,-1.3804711072,-1.2224318494\H,0,1.922349108,1.76202
 24676,0.6317227592\H,0,2.084044948,1.4335105195,-1.1151621228\H,0,3.13
 22856522,0.5967366792,0.0499742805\H,0,0.6887229899,-1.7418863806,1.52
 70678504\H,0,1.4505256815,-0.2670280752,2.1809126425\H,0,2.4134620824,
 -1.4235682525,1.2358631532\\Version=ES64L-G16RevB.01\State=1-A\HF=-354
 .6227203\RMSD=0.000e+00\Dipole=-0.012317,-0.0182725,0.0018975\Quadrupo
 le=-0.0015391,0.0557739,-0.0542349,0.0786617,0.0772776,-0.0002812\PG=C
 01 [X(C9H20)]\\@


 WOE UNTO THEM THAT CALL EVIL GOOD, AND GOOD EVIL      
 Job cpu time:       0 days  0 hours  0 minutes 23.9 seconds.
 Elapsed time:       0 days  0 hours  0 minutes  6.3 seconds.
 File lengths (MBytes):  RWF=     14 Int=      0 D2E=      0 Chk=      4 Scr=      1
 Normal termination of Gaussian 16 at Thu Feb  2 13:16:19 2023.
