You are running Q-Chem version: 5.3.2

#
# job setting
#
local host:  c128.cluster
current dir: /scratch/user/peterchao1/peterchao1/8624083_1689027485000000935360137
input file:  qchem_test.inp
output file: 
nprocs     : 0
nthreads   : 8
#
# qchem installation setting
#
QC:          /sw/restricted/qchem/sw/5.3.2
QCAUX:       /sw/restricted/qchem/sw/5.3.2/qcaux
QCPROG:      /sw/restricted/qchem/sw/5.3.2/exe/qcprog.exe_s
QCPROG_S:    /sw/restricted/qchem/sw/5.3.2/exe/qcprog.exe_s
PARALLEL:    -DSERIAL
QCMPI:       seq
#
# qchem directory setting
#
qcrun:       qchem272005
QCSCRATCH:   /scratch/user/peterchao1/peterchao1/8624083_1689027485000000935360137
QCLOCALSCR:  
QCTMPDIR:    /scratch/user/peterchao1/peterchao1/8624083_1689027485000000935360137
QCFILEPREF:  /scratch/user/peterchao1/peterchao1/8624083_1689027485000000935360137/qchem272005
QCSAVEDIR:   
workdirs:    /scratch/user/peterchao1/peterchao1/8624083_1689027485000000935360137/qchem272005
workdir0:    /scratch/user/peterchao1/peterchao1/8624083_1689027485000000935360137/qchem272005
partmpdirs =  
#
# parallel setting
#
QCRSH:           ssh
QCMPI:           seq
QCMPIRUN:        
QCMACHINEFILE:   /scratch/user/peterchao1/peterchao1/8624083_1689027485000000935360137/qchem272005/hostfile

#
# env setting
#
exported envs:   QC QCAUX QCSCRATCH QCRUNNAME QCFILEPREF QCPROG QCPROG_S GUIFILE

Running Job 1 of 1 qchem_test.inp
qchem qchem_test.inp_272005.0 /scratch/user/peterchao1/peterchao1/8624083_1689027485000000935360137/qchem272005/ 0
/sw/restricted/qchem/sw/5.3.2/exe/qcprog.exe_s qchem_test.inp_272005.0 /scratch/user/peterchao1/peterchao1/8624083_1689027485000000935360137/qchem272005/
                  Welcome to Q-Chem
     A Quantum Leap Into The Future Of Chemistry


 Q-Chem 5.3, Q-Chem, Inc., Pleasanton, CA (2020)

 License issued to: MRG Daniel Tabor and Mike Hall, Texas A&M University

 Yihan Shao,  Zhengting Gan,  E. Epifanovsky,  A. T. B. Gilbert,  M. Wormit,  
 J. Kussmann,  A. W. Lange,  A. Behn,  Jia Deng,  Xintian Feng,  D. Ghosh,  
 M. Goldey,  P. R. Horn,  L. D. Jacobson,  I. Kaliman,  T. Kus,  A. Landau,  
 Jie Liu,  E. I. Proynov,  R. M. Richard,  R. P. Steele,  E. J. Sundstrom,  
 H. L. Woodcock III,  P. M. Zimmerman,  D. Zuev,  B. Alam,  B. Albrecht,  
 A. Aldossary,  E. Alguire,  S. A. Baeppler,  D. Barton,  Z. Benda,  
 Y. A. Bernard,  E. J. Berquist,  K. B. Bravaya,  H. Burton,  K. Carter-Fenk,  
 D. Casanova,  Chun-Min Chang,  Yunqing Chen,  A. Chien,  K. D. Closser,  
 M. P. Coons,  S. Coriani,  S. Dasgupta,  A. L. Dempwolff,  M. Diedenhofen,  
 Hainam Do,  R. G. Edgar,  Po-Tung Fang,  S. Faraji,  S. Fatehi,  
 Qingguo Feng,  J. Fosso-Tande,  J. Gayvert,  Qinghui Ge,  A. Ghysels,  
 G. Gidofalvi,  J. Gomes,  J. Gonthier,  S. Gulania,  A. Gunina,  D. Hait,  
 M. W. D. Hanson-Heine,  S. Hammes-Schiffer,  P. H. P. Harbach,  
 A. W. Hauser,  M. F. Herbst,  J. E. Herr,  E. G. Hohenstein,  Z. C. Holden,  
 S. Houck,  Kerwin Hui,  B. C. Huynh,  M. Ivanov,  T.-C. Jagau,  Hyunjun Ji,  
 B. Kaduk,  K. Khistyaev,  Jaehoon Kim,  P. Klunzinger,  K. Koh,  
 D. Kosenkov,  L. Koulias,  T. Kowalczyk,  C. M. Krauter,  A. Kunitsa,  
 Ka Un Lao,  A. Laurent,  K. V. Lawler,  Joonho Lee,  D. Lefrancois,  
 S. Lehtola,  D. S. Levine,  Yi-Pei Li,  You-Sheng Lin,  Fenglai Liu,  
 Kuan-Yu Liu,  E. Livshits,  M. Loipersberger,  A. Luenser,  A. Manjanath,  
 P. Manohar,  E. Mansoor,  S. F. Manzer,  Shan-Ping Mao,  Yuezhi Mao,  
 N. Mardirossian,  A. V. Marenich,  T. Markovich,  L. A. Martinez-Martinez,  
 S. A. Maurer,  N. J. Mayhall,  S. C. McKenzie,  J.-M. Mewes,  P. Morgante,  
 A. F. Morrison,  J. W. Mullinax,  K. Nanda,  T. S. Nguyen-Beck,  
 R. Olivares-Amaya,  K. J. Oosterbaan,  J. A. Parkhill,  S. K. Paul,  
 F. Pavosevic,  Zheng Pei,  T. M. Perrine,  F. Plasser,  P. Pokhilko,  
 S. Prager,  A. Prociuk,  E. Ramos,  B. Rana,  D. R. Rehn,  F. Rob,  
 E. Rossomme,  M. Scheurer,  M. Schneider,  N. Sergueev,  S. M. Sharada,  
 S. Sharma,  W. Skomorowski,  D. W. Small,  T. Stauch,  C. J. Stein,  
 T. Stein,  Yu-Chuan Su,  S. P. Veccham,  Zhen Tao,  A. J. W. Thom,  
 A. Tkatchenko,  T. Tsuchimochi,  N. M. Tubman,  L. Vogt,  M. L. Vidal,  
 O. Vydrov,  M. A. Watson,  J. Wenzel,  M. de Wergifosse,  T. A. Wesolowski,  
 A. White,  J. Witte,  A. Yamada,  Jun Yang,  K. Yao,  S. Yeganeh,  
 S. R. Yost,  Zhi-Qiang You,  A. Zech,  Igor Ying Zhang,  Xing Zhang,  
 Yan Zhao,  Ying Zhu,  B. R. Brooks,  G. K. L. Chan,  C. J. Cramer,  
 M. S. Gordon,  W. J. Hehre,  A. Klamt,  M. W. Schmidt,  C. D. Sherrill,  
 D. G. Truhlar,  A. Aspuru-Guzik,  R. Baer,  A. T. Bell,  N. A. Besley,  
 Jeng-Da Chai,  A. E. DePrince, III,  R. A. DiStasio Jr.,  A. Dreuw,  
 B. D. Dunietz,  T. R. Furlani,  Chao-Ping Hsu,  Yousung Jung,  Jing Kong,  
 D. S. Lambrecht,  WanZhen Liang,  C. Ochsenfeld,  V. A. Rassolov,  
 L. V. Slipchenko,  J. E. Subotnik,  T. Van Voorhis,  J. M. Herbert,  
 A. I. Krylov,  P. M. W. Gill,  M. Head-Gordon

 Contributors to earlier versions of Q-Chem not listed above: 
 R. D. Adamson,  B. Austin,  J. Baker,  G. J. O. Beran,  K. Brandhorst,  
 S. T. Brown,  E. F. C. Byrd,  A. K. Chakraborty,  C.-L. Cheng,  
 Siu Hung Chien,  D. M. Chipman,  D. L. Crittenden,  H. Dachsel,  
 R. J. Doerksen,  A. D. Dutoi,  L. Fusti-Molnar,  W. A. Goddard III,  
 A. Golubeva-Zadorozhnaya,  S. R. Gwaltney,  G. Hawkins,  A. Heyden,  
 S. Hirata,  G. Kedziora,  F. J. Keil,  C. Kelley,  Jihan Kim,  R. A. King,  
 R. Z. Khaliullin,  P. P. Korambath,  W. Kurlancheek,  A. M. Lee,  M. S. Lee,  
 S. V. Levchenko,  Ching Yeh Lin,  D. Liotard,  R. C. Lochan,  I. Lotan,  
 P. E. Maslen,  N. Nair,  D. P. O'Neill,  D. Neuhauser,  E. Neuscamman,  
 C. M. Oana,  R. Olson,  B. Peters,  R. Peverati,  P. A. Pieniazek,  
 Y. M. Rhee,  J. Ritchie,  M. A. Rohrdanz,  E. Rosta,  N. J. Russ,  
 H. F. Schaefer III,  N. E. Schultz,  N. Shenvi,  A. C. Simmonett,  A. Sodt,  
 D. Stuck,  K. S. Thanthiriwatte,  V. Vanovschi,  Tao Wang,  A. Warshel,  
 C. F. Williams,  Q. Wu,  X. Xu,  W. Zhang

 Please cite Q-Chem as follows:
 Y. Shao et al., Mol. Phys. 113, 184-215 (2015)
 DOI: 10.1080/00268976.2014.952696

 Q-Chem 5.3.2 for Intel X86 EM64T Linux

 Parts of Q-Chem use Armadillo 9.800.1 (Horizon Scraper).
 http://arma.sourceforge.net/

 Q-Chem begins on Mon Jul 10 17:18:31 2023  

Host: 
0

     Scratch files written to /scratch/user/peterchao1/peterchao1/8624083_1689027485000000935360137/qchem272005//
 Dec820 |scratch|qcdevops|jenkins|workspace|build_RNUM -1
Processing $rem in /sw/restricted/qchem/sw/5.3.2/config/preferences:
Processing $rem in /home/peterchao1/.qchemrc:

 Q-Chem warning in module libgen/rem_setup.C, line 2945:

 Neither GIA nor STOLL is specified by user. Use STOLL as the default


Checking the input file for inconsistencies... 	...done.

--------------------------------------------------------------
User input:
--------------------------------------------------------------
$molecule
0 1
--
0 1
O       -2.642658   -2.289323    0.976499
C       -1.862529   -1.150054    1.060789
C       -2.404918   -0.037775    0.152608
N       -3.909414    0.082614    0.333851
O       -4.596527   -0.070549   -0.639056
O       -4.252436    0.312742    1.461027
N       -1.797837    1.313969    0.465947
O       -0.633385    1.285933    0.779113
O       -2.505145    2.275791    0.356555
N       -2.129815   -0.316199   -1.316793
O       -1.902097    0.624579   -2.022714
O       -2.178401   -1.479146   -1.638267
H       -2.532782   -2.673639    0.092442
H       -0.800516   -1.302709    0.802702
H       -1.915594   -0.775100    2.093537
--
0 1
O        4.546746   -1.302604    0.728172
C        4.227236   -0.280374   -0.143485
C        2.728812    0.060023   -0.084409
N        2.303470    0.178239    1.368681
O        2.878153    1.021746    1.994442
O        1.484366   -0.612518    1.761521
N        2.441743    1.338319   -0.849853
O        2.782511    1.271921   -2.006989
O        1.944397    2.261126   -0.276270
N        1.862779   -1.010021   -0.722871
O        2.346079   -2.112248   -0.800220
O        0.763961   -0.676600   -1.075175
H        4.193270   -2.134836    0.377624
H        4.476133   -0.483572   -1.200262
H        4.766885    0.623689    0.179103
$end

$rem
JOBTYPE           eda
EDA2              2
METHOD            wB97X-D
BASIS             def2-SV(P)
SCF_CONVERGENCE   8
THRESH            14
SYMMETRY          false
DISP_FREE_X       wB97X-D
DISP_FREE_C       none
EDA_BSSE          true
$end
--------------------------------------------------------------
 ----------------------------------------------------------------
             Standard Nuclear Orientation (Angstroms)
    I     Atom           X                Y                Z
 ----------------------------------------------------------------
    1      O       2.6426579506     2.2893225528     0.9765001123
    2      C       1.8625289545     1.1500535095     1.0607895627
    3      C       2.4049179754     0.0377749394     0.1526080487
    4      N       3.9094139728    -0.0826141389     0.3338510182
    5      O       4.5965269890     0.0705493221    -0.6390558978
    6      O       4.2524359543    -0.3127426677     1.4610269158
    7      N       1.7978369763    -1.3139692109     0.4659464020
    8      O       0.6333849707    -1.2859333637     0.7791123950
    9      O       2.5051449827    -2.2757911561     0.3565539617
   10      N       2.1298149997     0.3161996296    -1.3167928251
   11      O       1.9020970163    -0.6245780393    -2.0227142717
   12      O       2.1784009998     1.4791467811    -1.6382662770
   13      H       2.5327819642     2.6736389683     0.0924432913
   14      H       0.8005159582     1.3027086260     0.8027026161
   15      H       1.9155939383     0.7750990238     2.0935373871
   16      O      -4.5467460405     1.3026036361     0.7281725231
   17      C      -4.2272360206     0.2803740478    -0.1434849524
   18      C      -2.7288120200    -0.0600229730    -0.0844090865
   19      N      -2.3034700447    -0.1782396548     1.3686808652
   20      O      -2.8781530516    -1.0217469520     1.9944414583
   21      O      -1.4843660552     0.6125171642     1.7615212516
   22      N      -2.4417430007    -1.3383186115    -0.8498536831
   23      O      -2.7825109809    -1.2719200685    -2.0069896577
   24      O      -1.9443970064    -2.2611258791    -0.2762711087
   25      N      -1.8627790139     1.0100213315    -0.7228705679
   26      O      -2.3460790177     2.1122483656    -0.8002190576
   27      O      -0.7639610062     0.6766005024    -1.0751747057
   28      H      -4.1932700382     2.1348358028     0.3776249209
   29      H      -4.4761330031     0.4835725440    -1.2002618611
   30      H      -4.7668850219    -0.6236891065     0.1791026128
 ----------------------------------------------------------------
 Molecular Point Group                 C1    NOp =  1
 Largest Abelian Subgroup              C1    NOp =  1
 Nuclear Repulsion Energy =        2494.42143061 hartrees
 There are       92 alpha and       92 beta electrons
 Requested basis set is def2-SV(P)
 There are 156 shells and 348 basis functions

 Total QAlloc Memory Limit   7500 MB
 Mega-Array Size       188 MB
 MEM_STATIC part       192 MB
 A cutoff of  1.0D-14 yielded   9139 shell pairs
 There are     44063 function pairs (     49639 Cartesian)
 Smallest overlap matrix eigenvalue = 1.23E-03

 Scale SEOQF with 1.000000e-01/1.000000e-01/1.000000e-01

 Standard Electronic Orientation quadrupole field applied
 Nucleus-field energy     =     0.0000000453 hartrees

 -----------------------------------------------------------------------
  General SCF calculation program by
  Eric Jon Sundstrom, Paul Horn, Yuezhi Mao, Dmitri Zuev, Alec White,
  David Stuck, Shaama M.S., Shane Yost, Joonho Lee, David Small,
  Daniel Levine, Susi Lehtola, Hugh Burton, Evgeny Epifanovsky,
  Bang C. Huynh
 -----------------------------------------------------------------------
================================================================
                 ALMO-EDA with the EDA2 driver                  
================================================================
 The second-generation ALMO-EDA (for DFT):                      
 P. R. Horn, Y. Mao and M. Head-Gordon, PCCP, 18, 23067 (2016)  
 Decomposition of the frozen energy:                            
 P. R. Horn, Y. Mao and M. Head-Gordon, JCP, 144, 114107 (2016) 
Using eda2 option set 2
Option set summary: Frozen orbital wavefunction, initial wavefunction decomposition, and traditional AO-based POL.
--------------------------------
Printing EDA Options
--------------------------------
eda_child_super_basis      0
fragmo_guess_mode          0
child_mp                   0
child_mp_orders            0
cls_elec                   1
cls_disp                   0
scfmi_mode                 1
scfmi_occs                 0
scfmi_virts                0
frz_relax                  0
frz_relax_method           0
dc_pen_start               0
dc_pen_conv                0
dc_pen_increment           0
dc_pen_steps               0
dc_pen_thresh_factor       0
dc_pen_pre_newton_thresh   0
frz_ortho_decomp           1
frz_ortho_decomp_conv      6
plot_mo_ortho_frz          0
frgm_method                2
scfmi_freeze_ss            0
separate_rehyb             0
plot_diff_den              0
eda_nocv                   0
eda_vct_relax              1
disp_free_x                -110
disp_free_c                0
eda_bsse                   1
eda_pct_a                  0
eda_covp                   0
--------------------------------
Attempting to make child job directory: /scratch/user/peterchao1/peterchao1/8624083_1689027485000000935360137/qchem272005//Frg1/
Attempting to make child job directory: /scratch/user/peterchao1/peterchao1/8624083_1689027485000000935360137/qchem272005//Frg2/
Creating input file /scratch/user/peterchao1/peterchao1/8624083_1689027485000000935360137/qchem272005/Frg1.input
using default PutDataFrgm: nothing
calling putenv with: QCSCRATCH=/scratch/user/peterchao1/peterchao1/8624083_1689027485000000935360137/qchem272005/ 
Spawning Job For Fragment 0
Done Job For Fragment 0
calling putenv with: QCSCRATCH=/scratch/user/peterchao1/peterchao1/8624083_1689027485000000935360137 
calling putenv with: QCTHREADS=8 
Creating input file /scratch/user/peterchao1/peterchao1/8624083_1689027485000000935360137/qchem272005/Frg2.input
using default PutDataFrgm: nothing
calling putenv with: QCSCRATCH=/scratch/user/peterchao1/peterchao1/8624083_1689027485000000935360137/qchem272005/ 
Spawning Job For Fragment 1
Done Job For Fragment 1
calling putenv with: QCSCRATCH=/scratch/user/peterchao1/peterchao1/8624083_1689027485000000935360137 
calling putenv with: QCTHREADS=8 
Doing General SCFMI
 Exchange:     0.2220 Hartree-Fock + 1.0000 wB97X-D + LR-HF
 Correlation:  1.0000 wB97X-D
 Using SG-2 standard quadrature grid
 Dispersion:   Grimme D
performing fock build before subrot guess so that all methods have access
Printing subrot_rss_gen Method Specification:
Occupied Subspace Method is 0
Virtual Subspace Method is 0
Energy of the unrelaxed supersystem initial determinant -1535.305988901222
write pseudocanon occs and virts to disk
write pseudocanon orbital energies to disk
Tolerance of ortho_decomp_scf: 1.00e-06
GDM subspace size: 20
Beginning the Orthogonal Decomposition of the Initial Supersystem Wavefunction
    1   -1535.2818954029      2.01e-02     ortho_decomp Preconditoned Steepest Descent
    2   -1535.2844115882      2.19e-04     ortho_decomp BFGS Step
    3   -1535.2844132980      1.25e-05     ortho_decomp BFGS Step
    4   -1535.2844133023      4.23e-07     ortho_decomp 00000 Convergence criterion met
 Exchange:     0.2220 Hartree-Fock + 1.0000 wB97X-D + LR-HF
 Correlation:  1.0000 wB97X-D
 Using SG-2 standard quadrature grid
 Dispersion:   Grimme D
 Long-range K will be added via erf
 Coulomb attenuation parameter = 0.2 bohr**(-1)
 Exchange:     0.2220 Hartree-Fock + 1.0000 wB97X-D + LR-HF
 Correlation:  1.0000 wB97X-D
 Using SG-2 standard quadrature grid
 Dispersion:   Grimme D
 Long-range K will be added via erf
 Coulomb attenuation parameter = 0.2 bohr**(-1)
 Exchange:     0.2220 Hartree-Fock + 1.0000 wB97X-D + LR-HF
 Correlation:  1.0000 wB97X-D
 Using SG-2 standard quadrature grid
 Dispersion:   Grimme D
 Long-range K will be added via erf
 Coulomb attenuation parameter = 0.2 bohr**(-1)
Doing General SCFMI
 Exchange:     0.2220 Hartree-Fock + 1.0000 wB97X-D + LR-HF
 Correlation:  1.0000 wB97X-D
 Using SG-2 standard quadrature grid
 Dispersion:   Grimme D
performing fock build at end of subrot_r(subrot) constructor so that all methods have access
<S^2> of initial wavefunction before polarization iterations 0.0000000000
Beginning iterations for the determination of the polarized wavefunction
Energy prior to optimization (guess energy) = -1535.305988901222
Begin Timing: Total SCF Calculation
begin iterations for algorithm: DIIS         
the SCF tolerance is set to 1.00e-08
    1   -1535.3059889012      1.15e-04     00000 
    2   -1535.3063593666      1.19e-04     00000 
    3   -1535.3066196272      4.79e-05     00000 
    4   -1535.3066738404      1.49e-05     00000 
    5   -1535.3066783395      6.99e-06     00000 
    6   -1535.3066794642      1.72e-06     00000 
    7   -1535.3066795557      1.23e-06     00000 
    8   -1535.3066795990      4.18e-07     00000 
    9   -1535.3066796071      1.66e-07     00000 
   10   -1535.3066796087      8.88e-08     00000 
   11   -1535.3066796092      3.67e-08     00000 
   12   -1535.3066796093      2.37e-08     00000 
   13   -1535.3066796093      8.48e-09     00000 Convergence criterion met
write pseudocanon occs and virts to disk
write pseudocanon orbital energies to disk
Timing for Total SCF: 46.00s (wall), 359.28s (cpu)
<S^2> of polarized wavefunction after polarization iterations 0.0000000000
relaxing scfmi constraint to allow all rotations in the entire AO span
Doing General SCFMI
 Exchange:     0.2220 Hartree-Fock + 1.0000 wB97X-D + LR-HF
 Correlation:  1.0000 wB97X-D
 Using SG-2 standard quadrature grid
 Dispersion:   Grimme D
performing fock build at end of subrot_r(subrot) constructor so that all methods have access
<S^2> of polarized wavefunction before ct-allowed iterations 0.0000000000
Beginning iterations for the determination of the CT-Allowed wavefunction
Energy prior to optimization (guess energy) = -1535.306679609309
Begin Timing: Total SCF Calculation
begin iterations for algorithm: DIIS         
the SCF tolerance is set to 1.00e-08
    1   -1535.3066796093      2.71e-04     00000 
    2   -1535.3122063991      3.70e-05     00000 
    3   -1535.3124134477      1.74e-05     00000 
    4   -1535.3124196700      1.65e-05     00000 
    5   -1535.3124326552      3.24e-06     00000 
    6   -1535.3124331625      1.16e-06     00000 
    7   -1535.3124332385      4.03e-07     00000 
    8   -1535.3124332493      1.94e-07     00000 
    9   -1535.3124332512      5.68e-08     00000 
   10   -1535.3124332515      2.51e-08     00000 
   11   -1535.3124332516      1.20e-08     00000 
   12   -1535.3124332516      5.22e-09     00000 Convergence criterion met
write pseudocanon occs and virts to disk
write pseudocanon orbital energies to disk
Timing for Total SCF: 46.00s (wall), 359.66s (cpu)
<S^2> of ct_allowed wavefunction after ct-allowed iterations 0.0000000000
Attempting to make child job directory: /scratch/user/peterchao1/peterchao1/8624083_1689027485000000935360137/qchem272005//FrgBSSE1/
Attempting to make child job directory: /scratch/user/peterchao1/peterchao1/8624083_1689027485000000935360137/qchem272005//FrgBSSE2/
Creating input file /scratch/user/peterchao1/peterchao1/8624083_1689027485000000935360137/qchem272005/FrgBSSE1.input
calling putenv with: QCSCRATCH=/scratch/user/peterchao1/peterchao1/8624083_1689027485000000935360137/qchem272005/ 
Spawning Job For Fragment 0
Done Job For Fragment 0
calling putenv with: QCSCRATCH=/scratch/user/peterchao1/peterchao1/8624083_1689027485000000935360137 
calling putenv with: QCTHREADS=8 
Creating input file /scratch/user/peterchao1/peterchao1/8624083_1689027485000000935360137/qchem272005/FrgBSSE2.input
calling putenv with: QCSCRATCH=/scratch/user/peterchao1/peterchao1/8624083_1689027485000000935360137/qchem272005/ 
Spawning Job For Fragment 1
Done Job For Fragment 1
calling putenv with: QCSCRATCH=/scratch/user/peterchao1/peterchao1/8624083_1689027485000000935360137 
calling putenv with: QCTHREADS=8 
====================================================================
   Evaluating the BSSE with fragment SCF in the supersystem basis
   Fragment contributions (kJ/mol) 
   Frgm 1: 4.1655
   Frgm 2: 7.7668
   BSSE (kJ/mol) = 11.9323
====================================================================

================================
        Results of EDA2         
================================
Basic EDA Quantities
--------------------
Fragment Energies (Ha):
1 -767.6521331047
2 -767.6515897181
--------------------
  E_prp (kJ/mol) = -0.0000
  E_frz (kJ/mol) = -5.9497
  E_pol (kJ/mol) = -1.8135
  E_vct (kJ/mol) = -3.1741 (CP-corrected)
  E_int (kJ/mol) = -10.9372 (CP-corrected)
--------------------


Decomposition of frozen interaction energy
--------------------
  --------------------
  Orthogonal Frozen Decomposition:
  --------------------
     E_elec   (ELEC)   (kJ/mol) = -31.4706
     E_pauli  (PAULI)  (kJ/mol) = 40.0380
     E_disp   (DISP)   (kJ/mol) = -14.5171
  --------------------
  Classical Frozen Decomposition:
  --------------------
     E_cls_elec  (CLS ELEC)  (kJ/mol) = -10.7232
     E_mod_pauli (MOD PAULI) (kJ/mol) = 19.2906 (FRZ - CLS ELEC - DISP)
     E_disp      (DISP)      (kJ/mol) = -14.5171
  --------------------
--------------------

Simplified EDA Summary (kJ/mol)
--------------------
 PREPARATION      -0.0000
 FROZEN           -5.9497 (ELEC + PAULI + DISP)
[ELEC + PAULI = 8.5674, DISP = -14.5171]
 POLARIZATION    -1.8135
 CHARGE TRANSFER -3.1741     (counterpoise-corrected)
 TOTAL           -10.9372     (PRP + FRZ + POL + CT)
--------------------
 
 --------------------------------------------------------------
 
                    Orbital Energies (a.u.)
 --------------------------------------------------------------
 
 Alpha MOs
 -- Occupied --
-19.3701 -19.3691 -19.3569 -19.3548 -19.3547 -19.3519 -19.3488 -19.3475
-19.3447 -19.3433 -19.3403 -19.3384 -19.3149 -19.2966 -14.7666 -14.7553
-14.7545 -14.7463 -14.7436 -14.7393 -10.5045 -10.4879 -10.4256 -10.4060
 -1.4306  -1.4135  -1.4086  -1.4032  -1.3930  -1.3886  -1.2474  -1.2375
 -1.2332  -1.2275  -1.2236  -1.2199  -1.1902  -1.1714  -1.0520  -1.0360
 -0.8729  -0.8696  -0.8544  -0.8534  -0.8517  -0.8392  -0.7419  -0.7333
 -0.7244  -0.7224  -0.7182  -0.7124  -0.7106  -0.7003  -0.6980  -0.6821
 -0.6806  -0.6771  -0.6680  -0.6633  -0.6611  -0.6590  -0.6561  -0.6509
 -0.6470  -0.6421  -0.6152  -0.5972  -0.5937  -0.5749  -0.5112  -0.4946
 -0.4875  -0.4820  -0.4725  -0.4683  -0.4654  -0.4639  -0.4594  -0.4563
 -0.4514  -0.4512  -0.4473  -0.4454  -0.4448  -0.4413  -0.4389  -0.4379
 -0.4288  -0.4282  -0.4270  -0.4101
 -- Virtual --
 -0.0740  -0.0563  -0.0519  -0.0512  -0.0440  -0.0355   0.0980   0.1073
  0.1122   0.1360   0.1464   0.1515   0.1620   0.1693   0.1761   0.1934
  0.1978   0.2136   0.2324   0.2473   0.2544   0.2743   0.3085   0.3158
  0.3287   0.3334   0.3364   0.3442   0.3916   0.4265   0.4361   0.4509
  0.4552   0.4669   0.4786   0.4837   0.4950   0.5170   0.5239   0.5305
  0.5377   0.5498   0.5564   0.5742   0.5801   0.5873   0.6131   0.6261
  0.6338   0.6483   0.6576   0.6690   0.6764   0.6835   0.7001   0.7109
  0.7181   0.7369   0.7448   0.7454   0.7581   0.7728   0.7891   0.7909
  0.8017   0.8269   0.8440   0.8499   0.8836   0.8940   0.9031   0.9135
  0.9148   0.9373   0.9405   0.9488   0.9517   0.9566   0.9605   0.9618
  0.9670   0.9679   0.9813   0.9955   1.0003   1.0063   1.0122   1.0213
  1.0316   1.0508   1.0572   1.0678   1.0768   1.0905   1.0951   1.1017
  1.1122   1.1200   1.1281   1.1315   1.1350   1.1437   1.1509   1.1562
  1.1633   1.1734   1.1760   1.1845   1.1944   1.2151   1.2306   1.2441
  1.2585   1.2646   1.2910   1.2953   1.3089   1.3402   1.3610   1.3687
  1.3867   1.4047   1.4076   1.4183   1.4220   1.4493   1.4639   1.4736
  1.4772   1.5016   1.5108   1.5399   1.5818   1.6341   1.6410   1.6946
  1.6973   1.7279   1.7449   1.7640   1.7790   1.7926   1.8006   1.8028
  1.8128   1.8188   1.8196   1.8283   1.8358   1.8402   1.8857   1.9025
  1.9550   1.9873   2.0194   2.0316   2.0942   2.1375   2.1484   2.1561
  2.1687   2.1921   2.2740   2.2937   2.3003   2.3172   2.3288   2.3352
  2.3733   2.3898   2.4058   2.4203   2.4320   2.4353   2.4641   2.4738
  2.4810   2.5086   2.5127   2.5273   2.5393   2.5492   2.5972   2.6130
  2.6166   2.6230   2.6238   2.6414   2.6429   2.6521   2.6551   2.6605
  2.6679   2.6760   2.6814   2.6878   2.6902   2.7038   2.7074   2.7174
  2.7288   2.7380   2.7426   2.7562   2.7596   2.7784   2.7945   2.8048
  2.8279   2.8434   2.8539   2.8654   2.8766   2.9026   3.0410   3.0447
  3.0549   3.0678   3.0760   3.0812   3.0917   3.1007   3.1060   3.1241
  3.1901   3.2062   3.2207   3.2309   3.2731   3.2802   3.3358   3.3599
  3.3604   3.3667   3.3685   3.3805   3.4193   3.4301   3.4449   3.4610
  3.4684   3.4728   3.4939   3.4992   3.7623   3.7687   3.7700   3.7786
  3.7820   3.7917   3.8298   3.8498   3.8612   3.8681   3.8838   3.8927
 --------------------------------------------------------------
 
          Ground-State Mulliken Net Atomic Charges

     Atom                 Charge (a.u.)
  ----------------------------------------
      1 O                    -0.458391
      2 C                     0.089730
      3 C                     0.090388
      4 N                     0.260343
      5 O                    -0.195410
      6 O                    -0.187777
      7 N                     0.245220
      8 O                    -0.213379
      9 O                    -0.175474
     10 N                     0.251873
     11 O                    -0.175944
     12 O                    -0.219350
     13 H                     0.344004
     14 H                     0.158261
     15 H                     0.160918
     16 O                    -0.454526
     17 C                     0.101794
     18 C                     0.082988
     19 N                     0.271921
     20 O                    -0.168995
     21 O                    -0.207049
     22 N                     0.240631
     23 O                    -0.204475
     24 O                    -0.156845
     25 N                     0.249599
     26 O                    -0.211372
     27 O                    -0.194989
     28 H                     0.345757
     29 H                     0.164027
     30 H                     0.166523
  ----------------------------------------
  Sum of atomic charges =     0.000000

 -----------------------------------------------------------------
                    Cartesian Multipole Moments
 -----------------------------------------------------------------
    Charge (ESU x 10^10)
                -0.0000
    Dipole Moment (Debye)
         X      -4.8756      Y       2.6612      Z      -0.5298
       Tot       5.5798
    Quadrupole Moments (Debye-Ang)
        XX    -134.8848     XY      -1.5175     YY    -138.6316
        XZ       5.6159     YZ      -1.5971     ZZ    -144.5646
    Octopole Moments (Debye-Ang^2)
       XXX    -121.1893    XXY       6.9477    XYY      -9.0586
       YYY      23.7626    XXZ     -39.2616    XYZ       0.0538
       YYZ      -4.4226    XZZ       6.1458    YZZ      -0.1854
       ZZZ       4.7714
    Hexadecapole Moments (Debye-Ang^3)
      XXXX   -6465.6678   XXXY      20.9183   XXYY   -1229.6762
      XYYY     -24.9475   YYYY   -1286.3224   XXXZ      80.5927
      XXYZ     -39.2687   XYYZ     -33.1460   YYYZ     -11.6676
      XXZZ   -1332.1743   XYZZ     -32.9873   YYZZ    -428.7343
      XZZZ       6.3483   YZZZ     -13.1243   ZZZZ   -1147.6136
 -----------------------------------------------------------------
Archival summary:
1\1\c128.cluster\SP\ProcedureUnspecified\BasisUnspecified\14646\petercha\MonJul1017:24:552023MonJul1017:24:552023\0\\#,ProcedureUnspecified,BasisUnspecified,\\0,1\O\N,1,1.20112\O,2,1.20601,1,126.977\C,2,1.51745,1,116.729,3,-178.589,0\N,4,1.51735,2,105.893,1,-37.874,0\O,5,1.19496,4,119.156,2,116.562,0\O,5,1.2081,4,112.552,2,-64.2567,0\N,4,1.51867,2,107.315,1,81.1592,0\O,8,1.19722,4,114.867,2,-177.806,0\O,8,1.20439,4,116.837,2,5.26813,0\C,4,1.53774,2,112.573,1,-158.812,0\H,11,1.10119,4,106.531,2,170.332,0\H,11,1.10454,4,107.281,2,54.0442,0\O,11,1.38088,4,111.413,2,-72.0794,0\H,14,0.969762,11,108.831,4,72.2136,0\H,1,2.5231,2,106.264,3,82.5805,0\C,16,1.10353,1,137.432,2,172.576,0\H,17,1.09999,16,108.25,1,-130.06,0\O,17,1.38334,16,114.491,1,109.293,0\H,19,0.970221,17,108.535,16,-53.8762,0\C,17,1.53497,16,107.573,1,-14.8253,0\N,21,1.51458,17,112.5,16,-68.035,0\O,22,1.1989,21,117.429,17,-144.49,0\O,22,1.20615,21,114.831,17,36.6958,0\N,21,1.52015,17,109.667,16,172.333,0\O,25,1.20048,21,114.2,17,58.1203,0\O,25,1.20089,21,117.36,17,-121.295,0\N,21,1.52064,17,112.032,16,52.4416,0\O,28,1.19802,21,117.387,17,-145.453,0\O,28,1.20754,21,115.233,17,35.0982,0\\\@

 Total job time:  384.34s(wall), 1326.35s(cpu) 
 Mon Jul 10 17:24:55 2023

        *************************************************************
        *                                                           *
        *  Thank you very much for using Q-Chem.  Have a nice day.  *
        *                                                           *
        *************************************************************


remove work dirs /scratch/user/peterchao1/peterchao1/8624083_1689027485000000935360137/qchem272005.0 -- /scratch/user/peterchao1/peterchao1/8624083_1689027485000000935360137/qchem272005.-1
rm -rf /scratch/user/peterchao1/peterchao1/8624083_1689027485000000935360137/qchem272005
real 409.55
user 2146.97
sys 69.61
