 Entering Gaussian System, Link 0=g16
 Input=gaussian_test.inp
 Output=gaussian_test.log
 Initial command:
 /sw/restricted/lms/sw/Gaussian/g16_B01/g16/l1.exe "/scratch/user/peterchao1/peterchao1/6318259_1663960335000000991690887/Gau-11188.inp" -scrdir="/scratch/user/peterchao1/peterchao1/6318259_1663960335000000991690887/"
 Entering Link 1 = /sw/restricted/lms/sw/Gaussian/g16_B01/g16/l1.exe PID=     11189.
  
 Copyright (c) 1988-2017, Gaussian, Inc.  All Rights Reserved.
  
 This is part of the Gaussian(R) 16 program.  It is based on
 the Gaussian(R) 09 system (copyright 2009, Gaussian, Inc.),
 the Gaussian(R) 03 system (copyright 2003, Gaussian, Inc.),
 the Gaussian(R) 98 system (copyright 1998, Gaussian, Inc.),
 the Gaussian(R) 94 system (copyright 1995, Gaussian, Inc.),
 the Gaussian 92(TM) system (copyright 1992, Gaussian, Inc.),
 the Gaussian 90(TM) system (copyright 1990, Gaussian, Inc.),
 the Gaussian 88(TM) system (copyright 1988, Gaussian, Inc.),
 the Gaussian 86(TM) system (copyright 1986, Carnegie Mellon
 University), and the Gaussian 82(TM) system (copyright 1983,
 Carnegie Mellon University). Gaussian is a federally registered
 trademark of Gaussian, Inc.
  
 This software contains proprietary and confidential information,
 including trade secrets, belonging to Gaussian, Inc.
  
 This software is provided under written license and may be
 used, copied, transmitted, or stored only in accord with that
 written license.
  
 The following legend is applicable only to US Government
 contracts under FAR:
  
                    RESTRICTED RIGHTS LEGEND
  
 Use, reproduction and disclosure by the US Government is
 subject to restrictions as set forth in subparagraphs (a)
 and (c) of the Commercial Computer Software - Restricted
 Rights clause in FAR 52.227-19.
  
 Gaussian, Inc.
 340 Quinnipiac St., Bldg. 40, Wallingford CT 06492
  
  
 ---------------------------------------------------------------
 Warning -- This program may not be used in any manner that
 competes with the business of Gaussian, Inc. or will provide
 assistance to any competitor of Gaussian, Inc.  The licensee
 of this program is prohibited from giving any competitor of
 Gaussian, Inc. access to this program.  By using this program,
 the user acknowledges that Gaussian, Inc. is engaged in the
 business of creating and licensing software in the field of
 computational chemistry and represents and warrants to the
 licensee that it is not a competitor of Gaussian, Inc. and that
 it will not use this program in any manner prohibited above.
 ---------------------------------------------------------------
  

 Cite this work as:
 Gaussian 16, Revision B.01,
 M. J. Frisch, G. W. Trucks, H. B. Schlegel, G. E. Scuseria, 
 M. A. Robb, J. R. Cheeseman, G. Scalmani, V. Barone, 
 G. A. Petersson, H. Nakatsuji, X. Li, M. Caricato, A. V. Marenich, 
 J. Bloino, B. G. Janesko, R. Gomperts, B. Mennucci, H. P. Hratchian, 
 J. V. Ortiz, A. F. Izmaylov, J. L. Sonnenberg, D. Williams-Young, 
 F. Ding, F. Lipparini, F. Egidi, J. Goings, B. Peng, A. Petrone, 
 T. Henderson, D. Ranasinghe, V. G. Zakrzewski, J. Gao, N. Rega, 
 G. Zheng, W. Liang, M. Hada, M. Ehara, K. Toyota, R. Fukuda, 
 J. Hasegawa, M. Ishida, T. Nakajima, Y. Honda, O. Kitao, H. Nakai, 
 T. Vreven, K. Throssell, J. A. Montgomery, Jr., J. E. Peralta, 
 F. Ogliaro, M. J. Bearpark, J. J. Heyd, E. N. Brothers, K. N. Kudin, 
 V. N. Staroverov, T. A. Keith, R. Kobayashi, J. Normand, 
 K. Raghavachari, A. P. Rendell, J. C. Burant, S. S. Iyengar, 
 J. Tomasi, M. Cossi, J. M. Millam, M. Klene, C. Adamo, R. Cammi, 
 J. W. Ochterski, R. L. Martin, K. Morokuma, O. Farkas, 
 J. B. Foresman, and D. J. Fox, Gaussian, Inc., Wallingford CT, 2016.
 
 ******************************************
 Gaussian 16:  ES64L-G16RevB.01 20-Dec-2017
                23-Sep-2022 
 ******************************************
 %chk=6.chk
 %nprocshared=4
 Will use up to    4 processors via shared memory.
 %mem=8000mb
 --------------------------------------------------------------
 #T wB97XD//def2svpp Volume=tight Geom=AllCheckpoint Guess=Read
 --------------------------------------------------------------
 Structure from the checkpoint file:  "6.chk"
 -------
 Monomer
 -------
 Charge =  0 Multiplicity = 1
 Redundant internal coordinates found in file.  (old form).
 F,0,-1.59835,-0.060863,1.529295
 C,0,-0.240554,0.054353,1.388814
 C,0,0.163119,0.00191,-0.086809
 C,0,-0.415675,1.2026,-0.837395
 F,0,0.138592,2.368657,-0.358014
 C,0,1.689392,0.047316,-0.175574
 F,0,2.232568,-1.09986,0.357021
 C,0,-0.32385,-1.285284,-0.765284
 F,0,-1.665512,-1.230238,-1.039048
 H,0,0.240995,-0.770553,1.941818
 H,0,0.07411,1.016963,1.828983
 H,0,-1.506247,1.248089,-0.69852
 H,0,-0.191115,1.133694,-1.917553
 H,0,2.09134,0.912513,0.376883
 H,0,2.010062,0.122641,-1.230602
 H,0,-0.129392,-2.16023,-0.123124
 H,0,0.209973,-1.427745,-1.723691
 Recover connectivity data from disk.
                           ----------------------------
                           !    Current Parameters    !
                           ! (Angstroms and Degrees)  !
 --------------------------                            --------------------------
 ! Name  Definition              Value                                          !
 --------------------------------------------------------------------------------
 ! R1    R(1,2)                  1.3699                                         !
 ! R2    R(2,3)                  1.5307                                         !
 ! R3    R(2,10)                 1.1037                                         !
 ! R4    R(2,11)                 1.1043                                         !
 ! R5    R(3,4)                  1.5297                                         !
 ! R6    R(3,6)                  1.5295                                         !
 ! R7    R(3,8)                  1.5344                                         !
 ! R8    R(4,5)                  1.3772                                         !
 ! R9    R(4,12)                 1.1003                                         !
 ! R10   R(4,13)                 1.1054                                         !
 ! R11   R(6,7)                  1.3765                                         !
 ! R12   R(6,14)                 1.1024                                         !
 ! R13   R(6,15)                 1.1053                                         !
 ! R14   R(8,9)                  1.3704                                         !
 ! R15   R(8,16)                 1.1026                                         !
 ! R16   R(8,17)                 1.1063                                         !
 ! A1    A(1,2,3)              110.9379                                         !
 ! A2    A(1,2,10)             108.5544                                         !
 ! A3    A(1,2,11)             108.3535                                         !
 ! A4    A(3,2,10)             110.0194                                         !
 ! A5    A(3,2,11)             109.8146                                         !
 ! A6    A(10,2,11)            109.1157                                         !
 ! A7    A(2,3,4)              110.2631                                         !
 ! A8    A(2,3,6)              108.5467                                         !
 ! A9    A(2,3,8)              111.7962                                         !
 ! A10   A(4,3,6)              109.0131                                         !
 ! A11   A(4,3,8)              108.7484                                         !
 ! A12   A(6,3,8)              108.4175                                         !
 ! A13   A(3,4,5)              109.9682                                         !
 ! A14   A(3,4,12)             110.2145                                         !
 ! A15   A(3,4,13)             110.712                                          !
 ! A16   A(5,4,12)             108.6602                                         !
 ! A17   A(5,4,13)             108.1287                                         !
 ! A18   A(12,4,13)            109.1023                                         !
 ! A19   A(3,6,7)              110.278                                          !
 ! A20   A(3,6,14)             110.9801                                         !
 ! A21   A(3,6,15)             110.3                                            !
 ! A22   A(7,6,14)             108.4391                                         !
 ! A23   A(7,6,15)             108.1587                                         !
 ! A24   A(14,6,15)            108.6077                                         !
 ! A25   A(3,8,9)              111.4291                                         !
 ! A26   A(3,8,16)             110.6215                                         !
 ! A27   A(3,8,17)             109.7531                                         !
 ! A28   A(9,8,16)             108.7164                                         !
 ! A29   A(9,8,17)             107.7298                                         !
 ! A30   A(16,8,17)            108.4983                                         !
 ! D1    D(1,2,3,4)             64.1186                                         !
 ! D2    D(1,2,3,6)           -176.5302                                         !
 ! D3    D(1,2,3,8)            -56.9877                                         !
 ! D4    D(10,2,3,4)          -175.7475                                         !
 ! D5    D(10,2,3,6)           -56.3963                                         !
 ! D6    D(10,2,3,8)            63.1461                                         !
 ! D7    D(11,2,3,4)           -55.6316                                         !
 ! D8    D(11,2,3,6)            63.7196                                         !
 ! D9    D(11,2,3,8)          -176.7379                                         !
 ! D10   D(2,3,4,5)             64.7081                                         !
 ! D11   D(2,3,4,12)           -55.0641                                         !
 ! D12   D(2,3,4,13)          -175.8651                                         !
 ! D13   D(6,3,4,5)            -54.3594                                         !
 ! D14   D(6,3,4,12)          -174.1316                                         !
 ! D15   D(6,3,4,13)            65.0674                                         !
 ! D16   D(8,3,4,5)           -172.3842                                         !
 ! D17   D(8,3,4,12)            67.8436                                         !
 ! D18   D(8,3,4,13)           -52.9574                                         !
 ! D19   D(2,3,6,7)             66.7804                                         !
 ! D20   D(2,3,6,14)           -53.4062                                         !
 ! D21   D(2,3,6,15)          -173.8187                                         !
 ! D22   D(4,3,6,7)           -173.0877                                         !
 ! D23   D(4,3,6,14)            66.7257                                         !
 ! D24   D(4,3,6,15)           -53.6869                                         !
 ! D25   D(8,3,6,7)            -54.8548                                         !
 ! D26   D(8,3,6,14)          -175.0414                                         !
 ! D27   D(8,3,6,15)            64.5461                                         !
 ! D28   D(2,3,8,9)             76.4411                                         !
 ! D29   D(2,3,8,16)           -44.6236                                         !
 ! D30   D(2,3,8,17)          -164.3145                                         !
 ! D31   D(4,3,8,9)            -45.5394                                         !
 ! D32   D(4,3,8,16)          -166.604                                          !
 ! D33   D(4,3,8,17)            73.705                                          !
 ! D34   D(6,3,8,9)           -163.9403                                         !
 ! D35   D(6,3,8,16)            74.995                                          !
 ! D36   D(6,3,8,17)           -44.6959                                         !
 --------------------------------------------------------------------------------
                    Distance matrix (angstroms):
                    1          2          3          4          5
     1  F    0.000000
     2  C    1.369898   0.000000
     3  C    2.391340   1.530740   0.000000
     4  C    2.931941   2.511005   1.529718   0.000000
     5  F    3.532912   2.924237   2.382361   1.377210   0.000000
     6  C    3.705068   2.484361   1.529526   2.490782   2.797658
     7  F    4.138801   2.917728   2.386106   3.706905   4.114197
     8  C    2.896317   2.538051   1.534384   2.490622   3.705537
     9  F    2.822824   3.094381   2.401841   2.742528   4.082970
    10  H    2.014206   1.103709   2.172117   3.471105   3.892859
    11  H    2.012124   1.104255   2.169911   2.717337   2.571807
    12  H    2.585536   2.717342   2.171160   1.100319   2.019186
    13  H    3.909992   3.478431   2.181293   1.105403   2.016433
    14  H    3.986142   2.682941   2.182257   2.800669   2.544338
    15  H    4.546575   3.454168   2.175784   2.684236   3.050967
    16  H    3.048880   2.683783   2.182139   3.449749   4.542885
    17  H    3.964885   3.476676   2.173820   2.845289   4.035200
                    6          7          8          9         10
     6  C    0.000000
     7  F    1.376485   0.000000
     8  C    2.485302   2.798075   0.000000
     9  F    3.692304   4.142588   1.370414   0.000000
    10  H    2.692603   2.566396   2.812899   3.568143   0.000000
    11  H    2.750927   3.362522   3.491265   4.037549   1.798832
    12  H    3.453612   4.539358   2.796515   2.506677   3.754884
    13  H    2.784064   4.004584   2.682685   2.921265   4.325231
    14  H    1.102423   2.017420   3.459480   4.550844   2.950510
    15  H    1.105254   2.016076   2.765125   3.921329   3.740540
    16  H    2.860767   2.633207   1.102594   2.015804   2.516421
    17  H    2.600221   2.920233   1.106258   2.006287   3.724086
                   11         12         13         14         15
    11  H    0.000000
    12  H    2.989853   0.000000
    13  H    3.757726   1.796858   0.000000
    14  H    2.487714   3.769845   3.243911   0.000000
    15  H    3.729448   3.730171   2.517799   1.792906   0.000000
    16  H    3.734527   3.720679   3.751496   3.824056   3.318926
    17  H    4.314690   3.340131   2.599889   3.664527   2.426346
                   16         17
    16  H    0.000000
    17  H    1.792629   0.000000
 Framework group  C1[X(C5H8F4)]
 Deg. of freedom    45
                         Standard orientation:                         
 ---------------------------------------------------------------------
 Center     Atomic      Atomic             Coordinates (Angstroms)
 Number     Number       Type             X           Y           Z
 ---------------------------------------------------------------------
      1          9           0       -1.598350   -0.060863    1.529295
      2          6           0       -0.240554    0.054353    1.388814
      3          6           0        0.163119    0.001910   -0.086809
      4          6           0       -0.415675    1.202600   -0.837395
      5          9           0        0.138593    2.368657   -0.358014
      6          6           0        1.689392    0.047315   -0.175574
      7          9           0        2.232568   -1.099861    0.357021
      8          6           0       -0.323850   -1.285284   -0.765284
      9          9           0       -1.665512   -1.230238   -1.039048
     10          1           0        0.240995   -0.770553    1.941818
     11          1           0        0.074110    1.016963    1.828983
     12          1           0       -1.506247    1.248089   -0.698520
     13          1           0       -0.191115    1.133694   -1.917553
     14          1           0        2.091340    0.912512    0.376883
     15          1           0        2.010062    0.122640   -1.230602
     16          1           0       -0.129393   -2.160230   -0.123124
     17          1           0        0.209973   -1.427745   -1.723691
 ---------------------------------------------------------------------
 Rotational constants (GHZ):           1.5193684           1.3637044           1.1144404
   142 basis functions,   257 primitive gaussians,   151 cartesian basis functions
    37 alpha electrons       37 beta electrons
       nuclear repulsion energy       524.1300754965 Hartrees.
 NAtoms=   17 NActive=   17 NUniq=   17 SFac= 1.00D+00 NAtFMM=   60 NAOKFM=F Big=F
 Nuclear repulsion after empirical dispersion term =      524.1185882705 Hartrees.
   1 Symmetry operations used in ECPInt.
 ECPInt:  NShTT=    2485 NPrTT=   10011 LenC2=    2446 LenP2D=    7686.
 LDataN:  DoStor=T MaxTD1= 4 Len=   56
 Initial guess from the checkpoint file:  "6.chk"
 B after Tr=     0.000000    0.000000    0.000000
         Rot=    1.000000    0.000000   -0.000000    0.000000 Ang=   0.00 deg.
 Skip diagonalization as Alpha Fock matrix is already diagonal.
 SCF Done:  E(RwB97XD) =  -594.063888027     A.U. after    1 cycles
            NFock=  1  Conv=0.00D+00     -V/T= 2.0070

 **********************************************************************

            Population analysis using the SCF Density.

 **********************************************************************

 Orbital symmetries:
       Occupied  (A) (A) (A) (A) (A) (A) (A) (A) (A) (A) (A) (A)
                 (A) (A) (A) (A) (A) (A) (A) (A) (A) (A) (A) (A)
                 (A) (A) (A) (A) (A) (A) (A) (A) (A) (A) (A) (A)
                 (A)
       Virtual   (A) (A) (A) (A) (A) (A) (A) (A) (A) (A) (A) (A)
                 (A) (A) (A) (A) (A) (A) (A) (A) (A) (A) (A) (A)
                 (A) (A) (A) (A) (A) (A) (A) (A) (A) (A) (A) (A)
                 (A) (A) (A) (A) (A) (A) (A) (A) (A) (A) (A) (A)
                 (A) (A) (A) (A) (A) (A) (A) (A) (A) (A) (A) (A)
                 (A) (A) (A) (A) (A) (A) (A) (A) (A) (A) (A) (A)
                 (A) (A) (A) (A) (A) (A) (A) (A) (A) (A) (A) (A)
                 (A) (A) (A) (A) (A) (A) (A) (A) (A) (A) (A) (A)
                 (A) (A) (A) (A) (A) (A) (A) (A) (A)
 The electronic state is 1-A.
 Alpha  occ. eigenvalues --  -24.81533 -24.81052 -24.80508 -24.80174 -10.38849
 Alpha  occ. eigenvalues --  -10.38278 -10.38133 -10.37628 -10.33613  -1.29774
 Alpha  occ. eigenvalues --   -1.29280  -1.28983  -1.28350  -0.94537  -0.79988
 Alpha  occ. eigenvalues --   -0.79473  -0.79391  -0.67838  -0.63106  -0.63054
 Alpha  occ. eigenvalues --   -0.62682  -0.60156  -0.59919  -0.57811  -0.57192
 Alpha  occ. eigenvalues --   -0.56559  -0.54718  -0.54301  -0.54039  -0.49584
 Alpha  occ. eigenvalues --   -0.46633  -0.45391  -0.44426  -0.43055  -0.42276
 Alpha  occ. eigenvalues --   -0.41234  -0.40510
 Alpha virt. eigenvalues --    0.12846   0.14013   0.15255   0.16159   0.18052
 Alpha virt. eigenvalues --    0.19428   0.21338   0.21411   0.22118   0.24079
 Alpha virt. eigenvalues --    0.24445   0.26074   0.29813   0.30807   0.31282
 Alpha virt. eigenvalues --    0.34325   0.50224   0.52212   0.54886   0.55351
 Alpha virt. eigenvalues --    0.56565   0.58988   0.60611   0.62426   0.63016
 Alpha virt. eigenvalues --    0.63517   0.70082   0.71741   0.72206   0.72671
 Alpha virt. eigenvalues --    0.72791   0.74566   0.76649   0.77864   0.78631
 Alpha virt. eigenvalues --    0.79705   0.79999   0.82622   0.85706   0.92239
 Alpha virt. eigenvalues --    1.00875   1.07168   1.10158   1.12207   1.24459
 Alpha virt. eigenvalues --    1.26102   1.28497   1.30600   1.31479   1.33159
 Alpha virt. eigenvalues --    1.41182   1.42830   1.45203   1.45905   1.48721
 Alpha virt. eigenvalues --    1.51180   1.56885   1.59293   1.72729   1.73783
 Alpha virt. eigenvalues --    1.75893   1.83553   1.84029   1.85230   1.91726
 Alpha virt. eigenvalues --    1.94745   1.98396   1.99186   2.02299   2.03298
 Alpha virt. eigenvalues --    2.05493   2.06086   2.07152   2.15444   2.16469
 Alpha virt. eigenvalues --    2.17050   2.21096   2.25081   2.25648   2.27014
 Alpha virt. eigenvalues --    2.52104   2.54619   2.70054   2.70158   2.75036
 Alpha virt. eigenvalues --    3.17859   3.18065   3.18397   3.18890   3.19306
 Alpha virt. eigenvalues --    3.19829   3.20564   3.22423   3.36377   3.36874
 Alpha virt. eigenvalues --    3.37790   3.38705   3.38987   3.41625   3.44620
 Alpha virt. eigenvalues --    3.45673   3.83805   3.85881   3.87504   3.88854
          Condensed to atoms (all electrons):
 Mulliken charges:
               1
     1  F   -0.268577
     2  C    0.148149
     3  C   -0.460650
     4  C    0.140429
     5  F   -0.278828
     6  C    0.131472
     7  F   -0.275125
     8  C    0.153601
     9  F   -0.265979
    10  H    0.121263
    11  H    0.119220
    12  H    0.144849
    13  H    0.111549
    14  H    0.130840
    15  H    0.114080
    16  H    0.126322
    17  H    0.107384
 Sum of Mulliken charges =  -0.00000
 Mulliken charges with hydrogens summed into heavy atoms:
               1
     1  F   -0.268577
     2  C    0.388631
     3  C   -0.460650
     4  C    0.396827
     5  F   -0.278828
     6  C    0.376392
     7  F   -0.275125
     8  C    0.387308
     9  F   -0.265979
 Electronic spatial extent (au):  <R**2>=           1180.9483
 Charge=              0.0000 electrons
 Dipole moment (field-independent basis, Debye):
    X=              1.7782    Y=              0.0464    Z=             -0.9776  Tot=              2.0298
 Evaluate density.
 Using the total density.
 Monte-Carlo method of calculating molar volume:
 based on  0.001 e/bohr**3 density envelope.
 Number of points per bohr**3 =  100 CutOff= 1.00D-04
 Using the SCF density.
 There are      1758 points.  Will hold      1758 in memory.
 LenV=  1048281881 MDV=  1048576000.
 Box volume = 5434.771 fraction occupied=0.170
 Integrated density= 7.2307501020286807D+01 error=-1.6924989797131929D+00
 Molar volume =  921.252 bohr**3/mol ( 82.212 cm**3/mol)
 Recommended a0 for SCRF calculation =  4.02 angstrom (  7.59 bohr)
 1\1\GINC-C010\SP\RwB97XD\def2SVPP\C5H8F4\PETERCHAO1\23-Sep-2022\0\\#T 
 wB97XD//def2svpp Volume=tight Geom=AllCheckpoint Guess=Read\\Monomer\\
 0,1\F,0,-1.59835,-0.060863,1.529295\C,0,-0.240554,0.054353,1.388814\C,
 0,0.163119,0.00191,-0.086809\C,0,-0.415675,1.2026,-0.837395\F,0,0.1385
 92,2.368657,-0.358014\C,0,1.689392,0.047316,-0.175574\F,0,2.232568,-1.
 09986,0.357021\C,0,-0.32385,-1.285284,-0.765284\F,0,-1.665512,-1.23023
 8,-1.039048\H,0,0.240995,-0.770553,1.941818\H,0,0.07411,1.016963,1.828
 983\H,0,-1.506247,1.248089,-0.69852\H,0,-0.191115,1.133694,-1.917553\H
 ,0,2.09134,0.912513,0.376883\H,0,2.010062,0.122641,-1.230602\H,0,-0.12
 9392,-2.16023,-0.123124\H,0,0.209973,-1.427745,-1.723691\\Version=ES64
 L-G16RevB.01\State=1-A\HF=-594.063888\RMSD=0.000e+00\Dipole=0.6996114,
 0.0182428,-0.3846302\Quadrupole=-2.7702304,-0.9044757,3.6747061,-0.038
 8545,-0.0943386,0.0851091\PG=C01 [X(C5H8F4)]\\@


 KINETICS       FACT
 ---------  =  -------
 MECHANISM     FICTION
 File lengths (MBytes):  RWF=     11 Int=      0 D2E=      0 Chk=      3 Scr=      1
 Normal termination of Gaussian 16 at Fri Sep 23 14:21:15 2022.
