 Entering Gaussian System, Link 0=g16
 Input=gaussian_test.inp
 Output=gaussian_test.log
 Initial command:
 /sw/restricted/lms/sw/Gaussian/g16_B01/g16/l1.exe "/scratch/user/peterchao1/peterchao1/9982557_1711744428000000203172582/Gau-109546.inp" -scrdir="/scratch/user/peterchao1/peterchao1/9982557_1711744428000000203172582/"
 Entering Link 1 = /sw/restricted/lms/sw/Gaussian/g16_B01/g16/l1.exe PID=    109547.
  
 Copyright (c) 1988-2017, Gaussian, Inc.  All Rights Reserved.
  
 This is part of the Gaussian(R) 16 program.  It is based on
 the Gaussian(R) 09 system (copyright 2009, Gaussian, Inc.),
 the Gaussian(R) 03 system (copyright 2003, Gaussian, Inc.),
 the Gaussian(R) 98 system (copyright 1998, Gaussian, Inc.),
 the Gaussian(R) 94 system (copyright 1995, Gaussian, Inc.),
 the Gaussian 92(TM) system (copyright 1992, Gaussian, Inc.),
 the Gaussian 90(TM) system (copyright 1990, Gaussian, Inc.),
 the Gaussian 88(TM) system (copyright 1988, Gaussian, Inc.),
 the Gaussian 86(TM) system (copyright 1986, Carnegie Mellon
 University), and the Gaussian 82(TM) system (copyright 1983,
 Carnegie Mellon University). Gaussian is a federally registered
 trademark of Gaussian, Inc.
  
 This software contains proprietary and confidential information,
 including trade secrets, belonging to Gaussian, Inc.
  
 This software is provided under written license and may be
 used, copied, transmitted, or stored only in accord with that
 written license.
  
 The following legend is applicable only to US Government
 contracts under FAR:
  
                    RESTRICTED RIGHTS LEGEND
  
 Use, reproduction and disclosure by the US Government is
 subject to restrictions as set forth in subparagraphs (a)
 and (c) of the Commercial Computer Software - Restricted
 Rights clause in FAR 52.227-19.
  
 Gaussian, Inc.
 340 Quinnipiac St., Bldg. 40, Wallingford CT 06492
  
  
 ---------------------------------------------------------------
 Warning -- This program may not be used in any manner that
 competes with the business of Gaussian, Inc. or will provide
 assistance to any competitor of Gaussian, Inc.  The licensee
 of this program is prohibited from giving any competitor of
 Gaussian, Inc. access to this program.  By using this program,
 the user acknowledges that Gaussian, Inc. is engaged in the
 business of creating and licensing software in the field of
 computational chemistry and represents and warrants to the
 licensee that it is not a competitor of Gaussian, Inc. and that
 it will not use this program in any manner prohibited above.
 ---------------------------------------------------------------
  

 Cite this work as:
 Gaussian 16, Revision B.01,
 M. J. Frisch, G. W. Trucks, H. B. Schlegel, G. E. Scuseria, 
 M. A. Robb, J. R. Cheeseman, G. Scalmani, V. Barone, 
 G. A. Petersson, H. Nakatsuji, X. Li, M. Caricato, A. V. Marenich, 
 J. Bloino, B. G. Janesko, R. Gomperts, B. Mennucci, H. P. Hratchian, 
 J. V. Ortiz, A. F. Izmaylov, J. L. Sonnenberg, D. Williams-Young, 
 F. Ding, F. Lipparini, F. Egidi, J. Goings, B. Peng, A. Petrone, 
 T. Henderson, D. Ranasinghe, V. G. Zakrzewski, J. Gao, N. Rega, 
 G. Zheng, W. Liang, M. Hada, M. Ehara, K. Toyota, R. Fukuda, 
 J. Hasegawa, M. Ishida, T. Nakajima, Y. Honda, O. Kitao, H. Nakai, 
 T. Vreven, K. Throssell, J. A. Montgomery, Jr., J. E. Peralta, 
 F. Ogliaro, M. J. Bearpark, J. J. Heyd, E. N. Brothers, K. N. Kudin, 
 V. N. Staroverov, T. A. Keith, R. Kobayashi, J. Normand, 
 K. Raghavachari, A. P. Rendell, J. C. Burant, S. S. Iyengar, 
 J. Tomasi, M. Cossi, J. M. Millam, M. Klene, C. Adamo, R. Cammi, 
 J. W. Ochterski, R. L. Martin, K. Morokuma, O. Farkas, 
 J. B. Foresman, and D. J. Fox, Gaussian, Inc., Wallingford CT, 2016.
 
 ******************************************
 Gaussian 16:  ES64L-G16RevB.01 20-Dec-2017
                29-Mar-2024 
 ******************************************
 %nprocshared=4
 Will use up to    4 processors via shared memory.
 %mem=8000mb
 %chk=monomer.chk
 %nprocshared=4
 Will use up to    4 processors via shared memory.
 %mem=8000mb
 ----------------------------------------------------------------------
 #T wB97XD/def2svpp opt=tight freq int(grid=ultrafine) scf=(verytight,q
 c) Volume=tight
 ----------------------------------------------------------------------
 -------
 Monomer
 -------
 Symbolic Z-matrix:
 Charge =  0 Multiplicity = 1
 C                     1.75222   0.80232   0.00492 
 C                     0.50247  -0.00318  -0.3366 
 C                     0.63804  -1.44912   0.13294 
 C                    -0.73702   0.64524   0.29404 
 O                    -1.93968   0.0109   -0.07034 
 H                     1.89775   0.83484   1.08235 
 H                     1.66713   1.82327  -0.36099 
 H                     2.63001   0.34683  -0.44705 
 H                     0.36829   0.00101  -1.42673 
 H                    -0.29203  -1.98688  -0.03514 
 H                     0.8619   -1.47817   1.19698 
 H                     1.43737  -1.9546   -0.4039 
 H                    -0.7718    1.7119    0.02426 
 H                    -0.6865    0.56768   1.3826 
 H                    -2.0109    0.01755  -1.0315 
 

 GradGradGradGradGradGradGradGradGradGradGradGradGradGradGradGradGradGrad
 Initialization pass.
                           ----------------------------
                           !    Initial Parameters    !
                           ! (Angstroms and Degrees)  !
 --------------------------                            --------------------------
 ! Name  Definition              Value          Derivative Info.                !
 --------------------------------------------------------------------------------
 ! R1    R(1,2)                  1.5256         estimate D2E/DX2                !
 ! R2    R(1,6)                  1.0877         estimate D2E/DX2                !
 ! R3    R(1,7)                  1.0879         estimate D2E/DX2                !
 ! R4    R(1,8)                  1.0873         estimate D2E/DX2                !
 ! R5    R(2,3)                  1.5263         estimate D2E/DX2                !
 ! R6    R(2,4)                  1.5344         estimate D2E/DX2                !
 ! R7    R(2,9)                  1.0984         estimate D2E/DX2                !
 ! R8    R(3,10)                 1.0874         estimate D2E/DX2                !
 ! R9    R(3,11)                 1.0877         estimate D2E/DX2                !
 ! R10   R(3,12)                 1.0875         estimate D2E/DX2                !
 ! R11   R(4,5)                  1.4077         estimate D2E/DX2                !
 ! R12   R(4,13)                 1.1008         estimate D2E/DX2                !
 ! R13   R(4,14)                 1.0925         estimate D2E/DX2                !
 ! R14   R(5,15)                 0.9638         estimate D2E/DX2                !
 ! A1    A(2,1,6)              110.3128         estimate D2E/DX2                !
 ! A2    A(2,1,7)              110.8639         estimate D2E/DX2                !
 ! A3    A(2,1,8)              110.3105         estimate D2E/DX2                !
 ! A4    A(6,1,7)              108.3959         estimate D2E/DX2                !
 ! A5    A(6,1,8)              108.4367         estimate D2E/DX2                !
 ! A6    A(7,1,8)              108.4495         estimate D2E/DX2                !
 ! A7    A(1,2,3)              111.0124         estimate D2E/DX2                !
 ! A8    A(1,2,4)              110.2799         estimate D2E/DX2                !
 ! A9    A(1,2,9)              108.6776         estimate D2E/DX2                !
 ! A10   A(3,2,4)              110.2216         estimate D2E/DX2                !
 ! A11   A(3,2,9)              108.6505         estimate D2E/DX2                !
 ! A12   A(4,2,9)              107.9157         estimate D2E/DX2                !
 ! A13   A(2,3,10)             110.1802         estimate D2E/DX2                !
 ! A14   A(2,3,11)             110.1525         estimate D2E/DX2                !
 ! A15   A(2,3,12)             110.7177         estimate D2E/DX2                !
 ! A16   A(10,3,11)            108.3018         estimate D2E/DX2                !
 ! A17   A(10,3,12)            108.8141         estimate D2E/DX2                !
 ! A18   A(11,3,12)            108.6156         estimate D2E/DX2                !
 ! A19   A(2,4,5)              113.1612         estimate D2E/DX2                !
 ! A20   A(2,4,13)             109.5287         estimate D2E/DX2                !
 ! A21   A(2,4,14)             110.0087         estimate D2E/DX2                !
 ! A22   A(5,4,13)             110.2565         estimate D2E/DX2                !
 ! A23   A(5,4,14)             105.3924         estimate D2E/DX2                !
 ! A24   A(13,4,14)            108.3276         estimate D2E/DX2                !
 ! A25   A(4,5,15)             108.5512         estimate D2E/DX2                !
 ! D1    D(6,1,2,3)            -61.8691         estimate D2E/DX2                !
 ! D2    D(6,1,2,4)             60.5887         estimate D2E/DX2                !
 ! D3    D(6,1,2,9)            178.6938         estimate D2E/DX2                !
 ! D4    D(7,1,2,3)            178.051          estimate D2E/DX2                !
 ! D5    D(7,1,2,4)            -59.4912         estimate D2E/DX2                !
 ! D6    D(7,1,2,9)             58.6139         estimate D2E/DX2                !
 ! D7    D(8,1,2,3)             57.9055         estimate D2E/DX2                !
 ! D8    D(8,1,2,4)           -179.6367         estimate D2E/DX2                !
 ! D9    D(8,1,2,9)            -61.5316         estimate D2E/DX2                !
 ! D10   D(1,2,3,10)           174.8722         estimate D2E/DX2                !
 ! D11   D(1,2,3,11)            55.4488         estimate D2E/DX2                !
 ! D12   D(1,2,3,12)           -64.7065         estimate D2E/DX2                !
 ! D13   D(4,2,3,10)            52.3806         estimate D2E/DX2                !
 ! D14   D(4,2,3,11)           -67.0428         estimate D2E/DX2                !
 ! D15   D(4,2,3,12)           172.802          estimate D2E/DX2                !
 ! D16   D(9,2,3,10)           -65.6745         estimate D2E/DX2                !
 ! D17   D(9,2,3,11)           174.9021         estimate D2E/DX2                !
 ! D18   D(9,2,3,12)            54.7468         estimate D2E/DX2                !
 ! D19   D(1,2,4,5)            175.2523         estimate D2E/DX2                !
 ! D20   D(1,2,4,13)            51.7966         estimate D2E/DX2                !
 ! D21   D(1,2,4,14)           -67.1654         estimate D2E/DX2                !
 ! D22   D(3,2,4,5)            -61.8262         estimate D2E/DX2                !
 ! D23   D(3,2,4,13)           174.7181         estimate D2E/DX2                !
 ! D24   D(3,2,4,14)            55.756          estimate D2E/DX2                !
 ! D25   D(9,2,4,5)             56.6802         estimate D2E/DX2                !
 ! D26   D(9,2,4,13)           -66.7756         estimate D2E/DX2                !
 ! D27   D(9,2,4,14)           174.2624         estimate D2E/DX2                !
 ! D28   D(2,4,5,15)           -57.1825         estimate D2E/DX2                !
 ! D29   D(13,4,5,15)           65.8717         estimate D2E/DX2                !
 ! D30   D(14,4,5,15)         -177.4327         estimate D2E/DX2                !
 --------------------------------------------------------------------------------
 Number of steps in this run=     79 maximum allowed number of steps=    100.
 GradGradGradGradGradGradGradGradGradGradGradGradGradGradGradGradGradGrad

                    Distance matrix (angstroms):
                    1          2          3          4          5
     1  C    0.000000
     2  C    1.525568   0.000000
     3  C    2.515309   1.526296   0.000000
     4  C    2.510889   1.534432   2.510597   0.000000
     5  O    3.776526   2.456661   2.969450   1.407681   0.000000
     6  H    1.087704   2.159291   2.775743   2.756701   4.090658
     7  H    1.087871   2.166325   3.465764   2.756216   4.047004
     8  H    1.087319   2.158974   2.744049   3.460514   4.597486
     9  H    2.146391   1.098369   2.146678   2.144248   2.677058
    10  H    3.458355   2.158046   1.087413   2.689698   2.589817
    11  H    2.722928   2.157925   1.087717   2.807263   3.416471
    12  H    2.804794   2.164857   1.087495   3.460388   3.921603
    13  H    2.682978   2.166904   3.462872   1.100789   2.065499
    14  H    2.810772   2.166837   2.717270   1.092489   1.997871
    15  H    3.981342   2.607742   3.244060   1.942636   0.963824
                    6          7          8          9         10
     6  H    0.000000
     7  H    1.764484   0.000000
     8  H    1.764490   1.764768   0.000000
     9  H    3.054513   2.478593   2.488931   0.000000
    10  H    3.742470   4.296713   3.762212   2.514809   0.000000
    11  H    2.536964   3.738339   3.026502   3.052129   1.763078
    12  H    3.194040   3.785091   2.592461   2.452251   1.768575
    13  H    3.002545   2.471678   3.695653   2.516411   3.730240
    14  H    2.615322   3.186879   3.794163   3.053860   2.948120
    15  H    4.518174   4.151877   4.689143   2.411846   2.822236
                   11         12         13         14         15
    11  H    0.000000
    12  H    1.766626   0.000000
    13  H    3.771043   4.301972   0.000000
    14  H    2.572455   3.750246   1.778084   0.000000
    15  H    3.931446   4.021671   2.349641   2.807946   0.000000
 Framework group  C1[X(C4H10O)]
 Deg. of freedom    39
                         Standard orientation:                         
 ---------------------------------------------------------------------
 Center     Atomic      Atomic             Coordinates (Angstroms)
 Number     Number       Type             X           Y           Z
 ---------------------------------------------------------------------
      1          6           0       -1.695103   -0.797639   -0.011048
      2          6           0       -0.439216    0.003281   -0.340643
      3          6           0       -0.574168    1.449846    0.127138
      4          6           0        0.791755   -0.649370    0.302194
      5          8           0        2.000165   -0.019450   -0.050668
      6          1           0       -1.851209   -0.829291    1.064930
      7          1           0       -1.610117   -1.819003   -0.375816
      8          1           0       -2.566829   -0.339165   -0.471653
      9          1           0       -0.294473   -0.001747   -1.429422
     10          1           0        0.359406    1.984226   -0.032059
     11          1           0       -0.808244    1.480045    1.188940
     12          1           0       -1.366437    1.958005   -0.417591
     13          1           0        0.825337   -1.716228    0.033078
     14          1           0        0.730949   -0.571274    1.390190
     15          1           0        2.080687   -0.026668   -1.011096
 ---------------------------------------------------------------------
 Rotational constants (GHZ):           7.6262489           3.5114358           2.6815260
    90 basis functions,   165 primitive gaussians,    95 cartesian basis functions
    21 alpha electrons       21 beta electrons
       nuclear repulsion energy       193.7224388898 Hartrees.
 NAtoms=   15 NActive=   15 NUniq=   15 SFac= 1.00D+00 NAtFMM=   60 NAOKFM=F Big=F
 Nuclear repulsion after empirical dispersion term =      193.7146043406 Hartrees.
   1 Symmetry operations used in ECPInt.
 ECPInt:  NShTT=    1275 NPrTT=    5145 LenC2=    1274 LenP2D=    4366.
 LDataN:  DoStor=T MaxTD1= 4 Len=   56
 ExpMin= 1.22D-01 ExpMax= 2.27D+03 ExpMxC= 3.41D+02 IAcc=3 IRadAn=         5 AccDes= 0.00D+00
 Harris functional with IExCor= 4639 and IRadAn=       5 diagonalized for initial guess.
 HarFok:  IExCor= 4639 AccDes= 0.00D+00 IRadAn=         5 IDoV= 1 UseB2=F ITyADJ=14
 ICtDFT=  3500011 ScaDFX=  1.000000  1.000000  1.000000  1.000000
 FoFCou: FMM=F IPFlag=           0 FMFlag=      100000 FMFlg1=           0
         NFxFlg=           0 DoJE=T BraDBF=F KetDBF=T FulRan=T
         wScrn=  0.000000 ICntrl=       500 IOpCl=  0 I1Cent=   200000004 NGrid=           0
         NMat0=    1 NMatS0=      1 NMatT0=    0 NMatD0=    1 NMtDS0=    0 NMtDT0=    0
 Petite list used in FoFCou.
     Minimum is close to point  3 DX=  4.89D-03 DF= -2.67D-06 DXR=  8.09D-03 DFR=  6.50D-05 which will be used.
     Accept linear search using points  2 and  3.
     Accept linear search using points  1 and  2.
     Minimum is close to point  2 DX=  2.57D-04 DF= -1.88D-12 DXR=  2.57D-04 DFR=  6.56D-08 which will be used.
 SCF Done:  E(RwB97XD) =  -233.398798089     a.u. after    7 cycles
            Convg  =    0.3100D-09                    33 Fock formations.
              S**2 =  0.0000                  -V/T =  2.0091

 **********************************************************************

            Population analysis using the SCF Density.

 **********************************************************************

 Orbital symmetries:
       Occupied  (A) (A) (A) (A) (A) (A) (A) (A) (A) (A) (A) (A)
                 (A) (A) (A) (A) (A) (A) (A) (A) (A)
       Virtual   (A) (A) (A) (A) (A) (A) (A) (A) (A) (A) (A) (A)
                 (A) (A) (A) (A) (A) (A) (A) (A) (A) (A) (A) (A)
                 (A) (A) (A) (A) (A) (A) (A) (A) (A) (A) (A) (A)
                 (A) (A) (A) (A) (A) (A) (A) (A) (A) (A) (A) (A)
                 (A) (A) (A) (A) (A) (A) (A) (A) (A) (A) (A) (A)
                 (A) (A) (A) (A) (A) (A) (A) (A) (A)
 The electronic state is 1-A.
 Alpha  occ. eigenvalues --  -19.24402 -10.32917 -10.29575 -10.27955 -10.27169
 Alpha  occ. eigenvalues --   -1.10873  -0.89576  -0.77632  -0.76223  -0.66736
 Alpha  occ. eigenvalues --   -0.58540  -0.56371  -0.53441  -0.50042  -0.48712
 Alpha  occ. eigenvalues --   -0.47185  -0.44897  -0.42374  -0.41722  -0.39565
 Alpha  occ. eigenvalues --   -0.34789
 Alpha virt. eigenvalues --    0.13123   0.14927   0.17681   0.18804   0.21062
 Alpha virt. eigenvalues --    0.21509   0.22532   0.23767   0.24906   0.26489
 Alpha virt. eigenvalues --    0.30070   0.31255   0.31474   0.33375   0.49037
 Alpha virt. eigenvalues --    0.50548   0.52261   0.55296   0.59312   0.64072
 Alpha virt. eigenvalues --    0.68124   0.69924   0.71137   0.73658   0.74328
 Alpha virt. eigenvalues --    0.76965   0.77882   0.79553   0.80104   0.80340
 Alpha virt. eigenvalues --    0.81159   0.81968   0.83890   0.84651   0.85153
 Alpha virt. eigenvalues --    0.87031   0.88964   1.09190   1.13095   1.17226
 Alpha virt. eigenvalues --    1.17789   1.22344   1.32787   1.49462   1.56648
 Alpha virt. eigenvalues --    1.62266   1.80024   1.82860   1.86325   1.98557
 Alpha virt. eigenvalues --    2.00928   2.01807   2.07636   2.10588   2.16236
 Alpha virt. eigenvalues --    2.20159   2.23139   2.25402   2.25681   2.49293
 Alpha virt. eigenvalues --    2.51445   2.53617   2.69991   2.71584   2.77707
 Alpha virt. eigenvalues --    2.92941   3.06563   3.11170   3.47568
          Condensed to atoms (all electrons):
 Mulliken charges:
               1
     1  C   -0.288268
     2  C   -0.265952
     3  C   -0.276585
     4  C    0.056406
     5  O   -0.487755
     6  H    0.110847
     7  H    0.114443
     8  H    0.118870
     9  H    0.081259
    10  H    0.122927
    11  H    0.104949
    12  H    0.113296
    13  H    0.088842
    14  H    0.095756
    15  H    0.310967
 Sum of Mulliken charges =   0.00000
 Mulliken charges with hydrogens summed into heavy atoms:
               1
     1  C    0.055891
     2  C   -0.184694
     3  C    0.064586
     4  C    0.241005
     5  O   -0.176788
 Electronic spatial extent (au):  <R**2>=            513.4356
 Charge=              0.0000 electrons
 Dipole moment (field-independent basis, Debye):
    X=             -1.0653    Y=             -0.5477    Z=             -1.2271  Tot=              1.7148
 Evaluate density.
 Using the total density.
 Monte-Carlo method of calculating molar volume:
 based on  0.001 e/bohr**3 density envelope.
 Number of points per bohr**3 =  100 CutOff= 1.00D-04
 Using the SCF density.
 There are      1656 points.  Will hold      1656 in memory.
 LenV=  1048403401 MDV=  1048576000.
 Box volume = 4542.163 fraction occupied=0.173
 Integrated density= 2.9061237581617601D+01 error=-1.2938762418382399D+01
 Molar volume =  787.199 bohr**3/mol ( 70.249 cm**3/mol)
 Recommended a0 for SCRF calculation =  3.84 angstrom (  7.25 bohr)
   1 Symmetry operations used in ECPInt.
 ECPInt:  NShTT=    1275 NPrTT=    5145 LenC2=    1274 LenP2D=    4366.
 LDataN:  DoStor=T MaxTD1= 5 Len=  102
 Calling FoFJK, ICntrl=      2127 FMM=F ISym2X=0 I1Cent= 0 IOpClX= 0 NMat=1 NMatS=1 NMatT=0.

 GradGradGradGradGradGradGradGradGradGradGradGradGradGradGradGradGradGrad
 FormGI is forming the generalized inverse of G from B-inverse, IUseBI=4.
 Internal  Forces:  Max     0.011659511 RMS     0.003749548
 Step number   1 out of a maximum of   79
 All quantities printed in internal units (Hartrees-Bohrs-Radians)
 Mixed Optimization -- RFO/linear search
 Second derivative matrix not updated -- first step.
 ITU=  0
     Eigenvalues ---    0.00310   0.00418   0.00428   0.01590   0.03710
     Eigenvalues ---    0.04747   0.04761   0.04844   0.05626   0.05635
     Eigenvalues ---    0.05687   0.05718   0.05755   0.11817   0.14030
     Eigenvalues ---    0.16000   0.16000   0.16000   0.16000   0.16000
     Eigenvalues ---    0.16000   0.16000   0.16491   0.16665   0.22079
     Eigenvalues ---    0.29018   0.29768   0.29837   0.33595   0.33863
     Eigenvalues ---    0.34527   0.35060   0.35078   0.35079   0.35104
     Eigenvalues ---    0.35113   0.35124   0.44371   0.54659
 Linear search not attempted -- first point.
 Iteration  1 RMS(Cart)=  0.03024910 RMS(Int)=  0.00044613
 Iteration  2 RMS(Cart)=  0.00061121 RMS(Int)=  0.00009761
 Iteration  3 RMS(Cart)=  0.00000031 RMS(Int)=  0.00009761
 Variable       Old X    -DE/DX   Delta X   Delta X   Delta X     New X
                                 (Linear)    (Quad)   (Total)
    R1        2.88291   0.00403   0.00000   0.01336   0.01336   2.89626
    R2        2.05546   0.01162   0.00000   0.03282   0.03282   2.08828
    R3        2.05578   0.01123   0.00000   0.03173   0.03173   2.08751
    R4        2.05474   0.01092   0.00000   0.03079   0.03079   2.08553
    R5        2.88428   0.00372   0.00000   0.01235   0.01235   2.89664
    R6        2.89966  -0.00059   0.00000  -0.00202  -0.00202   2.89764
    R7        2.07562   0.00646   0.00000   0.01890   0.01890   2.09452
    R8        2.05491   0.01025   0.00000   0.02891   0.02891   2.08383
    R9        2.05549   0.01166   0.00000   0.03292   0.03292   2.08841
   R10        2.05507   0.01118   0.00000   0.03155   0.03155   2.08662
   R11        2.66013   0.00106   0.00000   0.00237   0.00237   2.66250
   R12        2.08019   0.00642   0.00000   0.01891   0.01891   2.09910
   R13        2.06450   0.00718   0.00000   0.02058   0.02058   2.08509
   R14        1.82136   0.00258   0.00000   0.00468   0.00468   1.82605
    A1        1.92532   0.00071   0.00000   0.00352   0.00350   1.92882
    A2        1.93494   0.00209   0.00000   0.01386   0.01379   1.94873
    A3        1.92528   0.00178   0.00000   0.01063   0.01058   1.93586
    A4        1.89187  -0.00139   0.00000  -0.00801  -0.00805   1.88382
    A5        1.89258  -0.00153   0.00000  -0.01140  -0.01141   1.88117
    A6        1.89280  -0.00183   0.00000  -0.00966  -0.00976   1.88305
    A7        1.93753   0.00115   0.00000   0.01889   0.01861   1.95614
    A8        1.92475  -0.00030   0.00000   0.00752   0.00704   1.93179
    A9        1.89678  -0.00043   0.00000  -0.01343  -0.01335   1.88343
   A10        1.92373   0.00087   0.00000   0.01566   0.01534   1.93907
   A11        1.89631  -0.00062   0.00000  -0.01026  -0.01007   1.88624
   A12        1.88348  -0.00074   0.00000  -0.02027  -0.02020   1.86328
   A13        1.92301   0.00131   0.00000   0.00892   0.00887   1.93188
   A14        1.92252   0.00063   0.00000   0.00263   0.00263   1.92515
   A15        1.93239   0.00161   0.00000   0.01017   0.01013   1.94252
   A16        1.89022  -0.00106   0.00000  -0.00714  -0.00715   1.88307
   A17        1.89916  -0.00124   0.00000  -0.00522  -0.00529   1.89387
   A18        1.89570  -0.00137   0.00000  -0.01009  -0.01009   1.88561
   A19        1.97504   0.00066   0.00000   0.00715   0.00708   1.98212
   A20        1.91164  -0.00001   0.00000   0.00205   0.00187   1.91350
   A21        1.92001  -0.00126   0.00000  -0.01427  -0.01430   1.90571
   A22        1.92434   0.00084   0.00000   0.01693   0.01682   1.94116
   A23        1.83944   0.00052   0.00000   0.00395   0.00400   1.84345
   A24        1.89067  -0.00082   0.00000  -0.01720  -0.01729   1.87338
   A25        1.89458  -0.00024   0.00000  -0.00144  -0.00144   1.89313
    D1       -1.07982  -0.00055   0.00000  -0.01491  -0.01496  -1.09478
    D2        1.05747   0.00112   0.00000   0.02306   0.02310   1.08057
    D3        3.11879  -0.00021   0.00000  -0.00524  -0.00521   3.11358
    D4        3.10758  -0.00063   0.00000  -0.01618  -0.01621   3.09136
    D5       -1.03832   0.00104   0.00000   0.02179   0.02184  -1.01647
    D6        1.02301  -0.00029   0.00000  -0.00650  -0.00647   1.01654
    D7        1.01064  -0.00086   0.00000  -0.02005  -0.02013   0.99051
    D8       -3.13525   0.00081   0.00000   0.01792   0.01793  -3.11732
    D9       -1.07393  -0.00052   0.00000  -0.01038  -0.01038  -1.08431
   D10        3.05210   0.00036   0.00000   0.02557   0.02566   3.07776
   D11        0.96776   0.00045   0.00000   0.02715   0.02725   0.99501
   D12       -1.12934   0.00071   0.00000   0.03147   0.03160  -1.09774
   D13        0.91421  -0.00063   0.00000  -0.00765  -0.00777   0.90644
   D14       -1.17012  -0.00054   0.00000  -0.00608  -0.00618  -1.17630
   D15        3.01596  -0.00028   0.00000  -0.00175  -0.00183   3.01413
   D16       -1.14624   0.00013   0.00000   0.01399   0.01397  -1.13226
   D17        3.05262   0.00022   0.00000   0.01557   0.01556   3.06818
   D18        0.95551   0.00048   0.00000   0.01990   0.01991   0.97542
   D19        3.05873  -0.00026   0.00000   0.03169   0.03170   3.09043
   D20        0.90402  -0.00182   0.00000   0.00312   0.00313   0.90715
   D21       -1.17226  -0.00004   0.00000   0.03160   0.03155  -1.14071
   D22       -1.07907   0.00156   0.00000   0.07128   0.07134  -1.00773
   D23        3.04941   0.00001   0.00000   0.04272   0.04277   3.09218
   D24        0.97313   0.00179   0.00000   0.07120   0.07119   1.04432
   D25        0.98926   0.00087   0.00000   0.05573   0.05573   1.04499
   D26       -1.16545  -0.00068   0.00000   0.02717   0.02716  -1.13829
   D27        3.04145   0.00110   0.00000   0.05565   0.05558   3.09703
   D28       -0.99802  -0.00087   0.00000  -0.02249  -0.02256  -1.02059
   D29        1.14968   0.00022   0.00000  -0.00197  -0.00188   1.14780
   D30       -3.09679  -0.00004   0.00000  -0.01164  -0.01165  -3.10844
         Item               Value     Threshold  Converged?
 Maximum Force            0.011660     0.000015     NO 
 RMS     Force            0.003750     0.000010     NO 
 Maximum Displacement     0.100106     0.000060     NO 
 RMS     Displacement     0.030293     0.000040     NO 
 GradGradGradGradGradGradGradGradGradGradGradGradGradGradGradGradGradGrad

                    Distance matrix (angstroms):
                    1          2          3          4          5
     1  C    0.000000
     2  C    1.532636   0.000000
     3  C    2.542563   1.532834   0.000000
     4  C    2.521964   1.533363   2.528453   0.000000
     5  O    3.792285   2.462492   2.959030   1.408936   0.000000
     6  H    1.105071   2.181093   2.823416   2.791031   4.117101
     7  H    1.104661   2.195156   3.509575   2.778679   4.086011
     8  H    1.103613   2.185095   2.781846   3.488488   4.630580
     9  H    2.149978   1.108372   2.152264   2.135358   2.693817
    10  H    3.499724   2.181711   1.102713   2.722811   2.583652
    11  H    2.774947   2.178645   1.105138   2.841405   3.401781
    12  H    2.836214   2.190514   1.104192   3.493451   3.937921
    13  H    2.700910   2.174807   3.488870   1.110794   2.086121
    14  H    2.799395   2.163529   2.761399   1.103381   2.009929
    15  H    4.012565   2.624586   3.224813   1.944588   0.966303
                    6          7          8          9         10
     6  H    0.000000
     7  H    1.786972   0.000000
     8  H    1.784403   1.785291   0.000000
     9  H    3.078454   2.496050   2.510000   0.000000
    10  H    3.809323   4.353301   3.812095   2.527321   0.000000
    11  H    2.603110   3.807545   3.087622   3.077536   1.784966
    12  H    3.239877   3.833340   2.626084   2.478100   1.791188
    13  H    3.049999   2.491839   3.725678   2.499226   3.765180
    14  H    2.615449   3.176713   3.806513   3.054656   3.026608
    15  H    4.560955   4.211112   4.735614   2.437488   2.786415
                   11         12         13         14         15
    11  H    0.000000
    12  H    1.787807   0.000000
    13  H    3.824499   4.339310   0.000000
    14  H    2.624375   3.802660   1.783749   0.000000
    15  H    3.916055   4.030884   2.369643   2.822204   0.000000
 Framework group  C1[X(C4H10O)]
 Deg. of freedom    39
                         Standard orientation:                         
 ---------------------------------------------------------------------
 Center     Atomic      Atomic             Coordinates (Angstroms)
 Number     Number       Type             X           Y           Z
 ---------------------------------------------------------------------
      1          6           0       -1.715203   -0.784569   -0.007562
      2          6           0       -0.443180    0.007508   -0.329343
      3          6           0       -0.543912    1.468295    0.124015
      4          6           0        0.788165   -0.675289    0.277931
      5          8           0        2.001536   -0.031954   -0.036636
      6          1           0       -1.879531   -0.826355    1.084423
      7          1           0       -1.655221   -1.821930   -0.382473
      8          1           0       -2.600918   -0.309876   -0.463784
      9          1           0       -0.304383   -0.002481   -1.428944
     10          1           0        0.405053    1.999303   -0.058939
     11          1           0       -0.758498    1.519805    1.206895
     12          1           0       -1.351361    1.999247   -0.410171
     13          1           0        0.809525   -1.743930   -0.024417
     14          1           0        0.713107   -0.646370    1.378376
     15          1           0        2.094725   -0.007449   -0.998123
 ---------------------------------------------------------------------
 Rotational constants (GHZ):           7.5054526           3.4976774           2.6508920
    90 basis functions,   165 primitive gaussians,    95 cartesian basis functions
    21 alpha electrons       21 beta electrons
       nuclear repulsion energy       192.6153127326 Hartrees.
 NAtoms=   15 NActive=   15 NUniq=   15 SFac= 1.00D+00 NAtFMM=   60 NAOKFM=F Big=F
 Nuclear repulsion after empirical dispersion term =      192.6074970565 Hartrees.
   1 Symmetry operations used in ECPInt.
 ECPInt:  NShTT=    1275 NPrTT=    5145 LenC2=    1274 LenP2D=    4354.
 LDataN:  DoStor=T MaxTD1= 4 Len=   56
 Initial guess from the checkpoint file:  "monomer.chk"
 B after Tr=    -0.000000    0.000000   -0.000000
         Rot=    0.999975   -0.002990   -0.000627    0.006347 Ang=  -0.81 deg.
 ExpMin= 1.22D-01 ExpMax= 2.27D+03 ExpMxC= 3.41D+02 IAcc=3 IRadAn=         5 AccDes= 0.00D+00
 Harris functional with IExCor= 4639 and IRadAn=       5 diagonalized for initial guess.
 HarFok:  IExCor= 4639 AccDes= 0.00D+00 IRadAn=         5 IDoV= 1 UseB2=F ITyADJ=14
 ICtDFT=  3500011 ScaDFX=  1.000000  1.000000  1.000000  1.000000
 FoFCou: FMM=F IPFlag=           0 FMFlag=      100000 FMFlg1=           0
         NFxFlg=           0 DoJE=T BraDBF=F KetDBF=T FulRan=T
         wScrn=  0.000000 ICntrl=       500 IOpCl=  0 I1Cent=   200000004 NGrid=           0
         NMat0=    1 NMatS0=      1 NMatT0=    0 NMatD0=    1 NMtDS0=    0 NMtDT0=    0
 Petite list used in FoFCou.
     Accept linear search using points  3 and  4.
     Minimum is close to point  3 DX=  7.13D-02 DF= -8.21D-07 DXR=  6.09D-02 DFR=  3.72D-03 which will be used.
     Accept linear search using points  1 and  2.
     Accept linear search using points  1 and  2.
     Minimum is close to point  2 DX= -4.49D-06 DF=  0.00D+00 DXR=  4.49D-06 DFR=  0.00D+00 which will be used.
 SCF Done:  E(RwB97XD) =  -233.400451786     a.u. after    6 cycles
            Convg  =    0.3205D-09                    31 Fock formations.
              S**2 =  0.0000                  -V/T =  2.0100
   1 Symmetry operations used in ECPInt.
 ECPInt:  NShTT=    1275 NPrTT=    5145 LenC2=    1274 LenP2D=    4354.
 LDataN:  DoStor=T MaxTD1= 5 Len=  102
 Calling FoFJK, ICntrl=      2127 FMM=F ISym2X=0 I1Cent= 0 IOpClX= 0 NMat=1 NMatS=1 NMatT=0.

 GradGradGradGradGradGradGradGradGradGradGradGradGradGradGradGradGradGrad
 Using GEDIIS/GDIIS optimizer.
 FormGI is forming the generalized inverse of G from B-inverse, IUseBI=4.
 Internal  Forces:  Max     0.002415640 RMS     0.000558760
 Step number   2 out of a maximum of   79
 All quantities printed in internal units (Hartrees-Bohrs-Radians)
 Mixed Optimization -- En-DIIS/RFO-DIIS
 Trust test= 9.38D-01 RLast= 1.95D-01 DXMaxT set to 5.05D-01
 ITU=  1  0
 Use linear search instead of GDIIS.
     Eigenvalues ---    0.00316   0.00417   0.00428   0.01585   0.03566
     Eigenvalues ---    0.04720   0.04835   0.04946   0.05501   0.05537
     Eigenvalues ---    0.05620   0.05663   0.05783   0.11848   0.14086
     Eigenvalues ---    0.15750   0.16000   0.16000   0.16000   0.16000
     Eigenvalues ---    0.16000   0.16095   0.16834   0.17059   0.22054
     Eigenvalues ---    0.28882   0.29517   0.29820   0.33416   0.33653
     Eigenvalues ---    0.34384   0.34905   0.35071   0.35079   0.35106
     Eigenvalues ---    0.35120   0.35991   0.45129   0.54600
 Quartic linear search produced a step of -0.01138.
 Iteration  1 RMS(Cart)=  0.01364181 RMS(Int)=  0.00012122
 Iteration  2 RMS(Cart)=  0.00012663 RMS(Int)=  0.00000599
 Iteration  3 RMS(Cart)=  0.00000001 RMS(Int)=  0.00000599
 Variable       Old X    -DE/DX   Delta X   Delta X   Delta X     New X
                                 (Linear)    (Quad)   (Total)
    R1        2.89626  -0.00224  -0.00015  -0.00689  -0.00704   2.88922
    R2        2.08828   0.00033  -0.00037   0.00218   0.00180   2.09009
    R3        2.08751  -0.00019  -0.00036   0.00068   0.00032   2.08783
    R4        2.08553  -0.00007  -0.00035   0.00100   0.00065   2.08617
    R5        2.89664  -0.00242  -0.00014  -0.00754  -0.00768   2.88896
    R6        2.89764  -0.00063   0.00002  -0.00221  -0.00219   2.89545
    R7        2.09452   0.00082  -0.00022   0.00311   0.00289   2.09741
    R8        2.08383  -0.00042  -0.00033  -0.00007  -0.00040   2.08343
    R9        2.08841   0.00034  -0.00037   0.00223   0.00186   2.09027
   R10        2.08662  -0.00016  -0.00036   0.00076   0.00040   2.08702
   R11        2.66250  -0.00232  -0.00003  -0.00507  -0.00509   2.65741
   R12        2.09910  -0.00006  -0.00022   0.00055   0.00034   2.09943
   R13        2.08509   0.00050  -0.00023   0.00222   0.00199   2.08708
   R14        1.82605   0.00048  -0.00005   0.00104   0.00099   1.82703
    A1        1.92882   0.00058  -0.00004   0.00396   0.00392   1.93274
    A2        1.94873  -0.00019  -0.00016  -0.00078  -0.00093   1.94780
    A3        1.93586   0.00018  -0.00012   0.00140   0.00128   1.93714
    A4        1.88382  -0.00019   0.00009  -0.00130  -0.00121   1.88261
    A5        1.88117  -0.00037   0.00013  -0.00249  -0.00236   1.87881
    A6        1.88305  -0.00004   0.00011  -0.00104  -0.00092   1.88212
    A7        1.95614  -0.00027  -0.00021  -0.00283  -0.00304   1.95310
    A8        1.93179  -0.00021  -0.00008  -0.00197  -0.00204   1.92975
    A9        1.88343   0.00000   0.00015  -0.00215  -0.00200   1.88143
   A10        1.93907   0.00032  -0.00017   0.00217   0.00200   1.94106
   A11        1.88624  -0.00002   0.00011   0.00053   0.00063   1.88687
   A12        1.86328   0.00019   0.00023   0.00455   0.00478   1.86806
   A13        1.93188  -0.00001  -0.00010   0.00038   0.00028   1.93216
   A14        1.92515   0.00059  -0.00003   0.00359   0.00356   1.92872
   A15        1.94252  -0.00019  -0.00012  -0.00074  -0.00085   1.94167
   A16        1.88307  -0.00030   0.00008  -0.00220  -0.00212   1.88096
   A17        1.89387   0.00014   0.00006   0.00096   0.00102   1.89489
   A18        1.88561  -0.00024   0.00011  -0.00214  -0.00203   1.88358
   A19        1.98212   0.00008  -0.00008   0.00106   0.00097   1.98309
   A20        1.91350  -0.00025  -0.00002  -0.00393  -0.00395   1.90955
   A21        1.90571   0.00063   0.00016   0.00652   0.00667   1.91238
   A22        1.94116  -0.00016  -0.00019  -0.00353  -0.00373   1.93743
   A23        1.84345  -0.00000  -0.00005   0.00418   0.00411   1.84756
   A24        1.87338  -0.00029   0.00020  -0.00403  -0.00382   1.86956
   A25        1.89313  -0.00024   0.00002  -0.00155  -0.00153   1.89160
    D1       -1.09478  -0.00007   0.00017   0.00391   0.00408  -1.09070
    D2        1.08057   0.00000  -0.00026   0.00318   0.00292   1.08349
    D3        3.11358   0.00012   0.00006   0.00631   0.00637   3.11995
    D4        3.09136  -0.00009   0.00018   0.00340   0.00358   3.09494
    D5       -1.01647  -0.00002  -0.00025   0.00267   0.00242  -1.01405
    D6        1.01654   0.00009   0.00007   0.00580   0.00587   1.02241
    D7        0.99051  -0.00003   0.00023   0.00428   0.00451   0.99502
    D8       -3.11732   0.00003  -0.00020   0.00355   0.00335  -3.11398
    D9       -1.08431   0.00015   0.00012   0.00668   0.00680  -1.07751
   D10        3.07776   0.00005  -0.00029   0.01914   0.01884   3.09660
   D11        0.99501   0.00005  -0.00031   0.01932   0.01901   1.01402
   D12       -1.09774   0.00009  -0.00036   0.02011   0.01975  -1.07799
   D13        0.90644   0.00027   0.00009   0.02218   0.02227   0.92872
   D14       -1.17630   0.00028   0.00007   0.02237   0.02244  -1.15386
   D15        3.01413   0.00031   0.00002   0.02316   0.02318   3.03732
   D16       -1.13226  -0.00012  -0.00016   0.01514   0.01498  -1.11728
   D17        3.06818  -0.00012  -0.00018   0.01533   0.01515   3.08333
   D18        0.97542  -0.00008  -0.00023   0.01612   0.01589   0.99132
   D19        3.09043  -0.00012  -0.00036   0.01697   0.01661   3.10704
   D20        0.90715   0.00023  -0.00004   0.02393   0.02389   0.93103
   D21       -1.14071   0.00035  -0.00036   0.02727   0.02692  -1.11379
   D22       -1.00773  -0.00038  -0.00081   0.01344   0.01262  -0.99511
   D23        3.09218  -0.00003  -0.00049   0.02040   0.01990   3.11208
   D24        1.04432   0.00009  -0.00081   0.02374   0.02293   1.06725
   D25        1.04499  -0.00012  -0.00063   0.01796   0.01732   1.06231
   D26       -1.13829   0.00023  -0.00031   0.02491   0.02460  -1.11369
   D27        3.09703   0.00035  -0.00063   0.02825   0.02763   3.12467
   D28       -1.02059   0.00023   0.00026  -0.00482  -0.00456  -1.02515
   D29        1.14780  -0.00016   0.00002  -0.01205  -0.01203   1.13578
   D30       -3.10844  -0.00059   0.00013  -0.01622  -0.01609  -3.12453
         Item               Value     Threshold  Converged?
 Maximum Force            0.002416     0.000015     NO 
 RMS     Force            0.000559     0.000010     NO 
 Maximum Displacement     0.048219     0.000060     NO 
 RMS     Displacement     0.013637     0.000040     NO 
 GradGradGradGradGradGradGradGradGradGradGradGradGradGradGradGradGradGrad

                    Distance matrix (angstroms):
                    1          2          3          4          5
     1  C    0.000000
     2  C    1.528911   0.000000
     3  C    2.533507   1.528769   0.000000
     4  C    2.516172   1.532207   2.525874   0.000000
     5  O    3.785119   2.460070   2.951016   1.406241   0.000000
     6  H    1.106025   2.181379   2.816197   2.789972   4.109474
     7  H    1.104832   2.191328   3.501122   2.770544   4.080967
     8  H    1.103956   2.182995   2.775896   3.484362   4.625937
     9  H    2.146353   1.109902   2.150320   2.139103   2.704641
    10  H    3.491923   2.178175   1.102503   2.730431   2.585600
    11  H    2.777726   2.178404   1.106122   2.831871   3.375343
    12  H    2.817308   2.186473   1.104403   3.491696   3.940027
    13  H    2.702292   2.171007   3.484180   1.110973   2.081311
    14  H    2.787004   2.168212   2.776976   1.104433   2.011473
    15  H    4.010854   2.623285   3.215006   1.941572   0.966824
                    6          7          8          9         10
     6  H    0.000000
     7  H    1.787094   0.000000
     8  H    1.783912   1.785106   0.000000
     9  H    3.078813   2.493052   2.504295   0.000000
    10  H    3.808546   4.345853   3.802254   2.519293   0.000000
    11  H    2.605937   3.807968   3.098919   3.079237   1.784216
    12  H    3.216847   3.818174   2.606958   2.480805   1.791847
    13  H    3.063806   2.489214   3.724065   2.489952   3.764860
    14  H    2.605091   3.153700   3.799887   3.062376   3.062903
    15  H    4.558927   4.213575   4.735788   2.449648   2.775111
                   11         12         13         14         15
    11  H    0.000000
    12  H    1.787457   0.000000
    13  H    3.822285   4.333047   0.000000
    14  H    2.631226   3.811747   1.782230   0.000000
    15  H    3.891884   4.035748   2.358989   2.823374   0.000000
 Framework group  C1[X(C4H10O)]
 Deg. of freedom    39
                         Standard orientation:                         
 ---------------------------------------------------------------------
 Center     Atomic      Atomic             Coordinates (Angstroms)
 Number     Number       Type             X           Y           Z
 ---------------------------------------------------------------------
      1          6           0       -1.711230   -0.780974   -0.004050
      2          6           0       -0.443167    0.007930   -0.331488
      3          6           0       -0.543518    1.463715    0.124313
      4          6           0        0.787824   -0.677846    0.270200
      5          8           0        1.998114   -0.027841   -0.030142
      6          1           0       -1.875388   -0.822458    1.088938
      7          1           0       -1.652237   -1.819074   -0.377576
      8          1           0       -2.599441   -0.308143   -0.458179
      9          1           0       -0.313625   -0.000317   -1.433774
     10          1           0        0.396946    2.001725   -0.079613
     11          1           0       -0.733643    1.516775    1.212680
     12          1           0       -1.367656    1.988458   -0.390611
     13          1           0        0.814720   -1.739803   -0.055046
     14          1           0        0.710209   -0.677146    1.371902
     15          1           0        2.095747    0.005756   -0.991437
 ---------------------------------------------------------------------
 Rotational constants (GHZ):           7.5366962           3.5089757           2.6597700
    90 basis functions,   165 primitive gaussians,    95 cartesian basis functions
    21 alpha electrons       21 beta electrons
       nuclear repulsion energy       192.8556278585 Hartrees.
 NAtoms=   15 NActive=   15 NUniq=   15 SFac= 1.00D+00 NAtFMM=   60 NAOKFM=F Big=F
 Nuclear repulsion after empirical dispersion term =      192.8478050704 Hartrees.
   1 Symmetry operations used in ECPInt.
 ECPInt:  NShTT=    1275 NPrTT=    5145 LenC2=    1274 LenP2D=    4356.
 LDataN:  DoStor=T MaxTD1= 4 Len=   56
 Initial guess from the checkpoint file:  "monomer.chk"
 B after Tr=    -0.000000   -0.000000    0.000000
         Rot=    0.999999   -0.001411   -0.000557   -0.000352 Ang=  -0.18 deg.
 ExpMin= 1.22D-01 ExpMax= 2.27D+03 ExpMxC= 3.41D+02 IAcc=3 IRadAn=         5 AccDes= 0.00D+00
 Harris functional with IExCor= 4639 and IRadAn=       5 diagonalized for initial guess.
 HarFok:  IExCor= 4639 AccDes= 0.00D+00 IRadAn=         5 IDoV= 1 UseB2=F ITyADJ=14
 ICtDFT=  3500011 ScaDFX=  1.000000  1.000000  1.000000  1.000000
 FoFCou: FMM=F IPFlag=           0 FMFlag=      100000 FMFlg1=           0
         NFxFlg=           0 DoJE=T BraDBF=F KetDBF=T FulRan=T
         wScrn=  0.000000 ICntrl=       500 IOpCl=  0 I1Cent=   200000004 NGrid=           0
         NMat0=    1 NMatS0=      1 NMatT0=    0 NMatD0=    1 NMtDS0=    0 NMtDT0=    0
 Petite list used in FoFCou.
     Accept linear search using points  1 and  2.
     Minimum is close to point  2 DX= -1.05D-06 DF=  0.00D+00 DXR=  1.05D-06 DFR=  0.00D+00 which will be used.
 SCF Done:  E(RwB97XD) =  -233.400518874     a.u. after    4 cycles
            Convg  =    0.1638D-09                    27 Fock formations.
              S**2 =  0.0000                  -V/T =  2.0100
   1 Symmetry operations used in ECPInt.
 ECPInt:  NShTT=    1275 NPrTT=    5145 LenC2=    1274 LenP2D=    4356.
 LDataN:  DoStor=T MaxTD1= 5 Len=  102
 Calling FoFJK, ICntrl=      2127 FMM=F ISym2X=0 I1Cent= 0 IOpClX= 0 NMat=1 NMatS=1 NMatT=0.

 GradGradGradGradGradGradGradGradGradGradGradGradGradGradGradGradGradGrad
 Using GEDIIS/GDIIS optimizer.
 FormGI is forming the generalized inverse of G from B-inverse, IUseBI=4.
 Internal  Forces:  Max     0.000359143 RMS     0.000133898
 Step number   3 out of a maximum of   79
 All quantities printed in internal units (Hartrees-Bohrs-Radians)
 Mixed Optimization -- En-DIIS/RFO-DIIS
 Swapping is turned off.
 Trust test= 1.08D+00 RLast= 9.30D-02 DXMaxT set to 5.05D-01
 ITU=  1  1  0
     Eigenvalues ---    0.00306   0.00378   0.00430   0.01486   0.03590
     Eigenvalues ---    0.04734   0.04898   0.05225   0.05492   0.05539
     Eigenvalues ---    0.05599   0.05645   0.05652   0.11954   0.14019
     Eigenvalues ---    0.15056   0.16000   0.16000   0.16000   0.16000
     Eigenvalues ---    0.16018   0.16404   0.16854   0.16980   0.22016
     Eigenvalues ---    0.28967   0.29733   0.31496   0.33544   0.34095
     Eigenvalues ---    0.34674   0.35052   0.35079   0.35105   0.35120
     Eigenvalues ---    0.35251   0.35857   0.44146   0.54685
 En-DIIS/RFO-DIIS/Sim-DIIS IScMMF=       -3 using points:     3    2
 RFO step:  Lambda=-1.78246123D-05.
 DidBck=F Rises=F RFO-DIIS coefs:    1.41197   -0.41197
 Iteration  1 RMS(Cart)=  0.00673417 RMS(Int)=  0.00003458
 Iteration  2 RMS(Cart)=  0.00003554 RMS(Int)=  0.00000241
 Iteration  3 RMS(Cart)=  0.00000000 RMS(Int)=  0.00000241
 Variable       Old X    -DE/DX   Delta X   Delta X   Delta X     New X
                                 (Linear)    (Quad)   (Total)
    R1        2.88922   0.00003  -0.00290   0.00213  -0.00077   2.88845
    R2        2.09009  -0.00026   0.00074  -0.00113  -0.00039   2.08969
    R3        2.08783  -0.00020   0.00013  -0.00054  -0.00041   2.08742
    R4        2.08617  -0.00024   0.00027  -0.00076  -0.00049   2.08568
    R5        2.88896  -0.00013  -0.00316   0.00171  -0.00145   2.88750
    R6        2.89545  -0.00006  -0.00090   0.00035  -0.00055   2.89490
    R7        2.09741  -0.00015   0.00119  -0.00119   0.00000   2.09742
    R8        2.08343  -0.00025  -0.00016  -0.00052  -0.00068   2.08275
    R9        2.09027  -0.00026   0.00077  -0.00115  -0.00038   2.08988
   R10        2.08702  -0.00025   0.00016  -0.00072  -0.00056   2.08646
   R11        2.65741  -0.00030  -0.00210   0.00066  -0.00143   2.65598
   R12        2.09943   0.00007   0.00014   0.00023   0.00037   2.09980
   R13        2.08708  -0.00020   0.00082  -0.00107  -0.00025   2.08683
   R14        1.82703  -0.00007   0.00041  -0.00038   0.00003   1.82706
    A1        1.93274   0.00010   0.00161  -0.00043   0.00118   1.93392
    A2        1.94780   0.00015  -0.00038   0.00140   0.00101   1.94881
    A3        1.93714   0.00013   0.00053   0.00059   0.00111   1.93825
    A4        1.88261  -0.00013  -0.00050  -0.00067  -0.00117   1.88144
    A5        1.87881  -0.00012  -0.00097  -0.00033  -0.00131   1.87750
    A6        1.88212  -0.00014  -0.00038  -0.00065  -0.00103   1.88109
    A7        1.95310   0.00005  -0.00125   0.00199   0.00074   1.95384
    A8        1.92975  -0.00010  -0.00084   0.00035  -0.00050   1.92925
    A9        1.88143   0.00001  -0.00082  -0.00005  -0.00088   1.88055
   A10        1.94106   0.00011   0.00082   0.00082   0.00164   1.94270
   A11        1.88687  -0.00003   0.00026  -0.00042  -0.00017   1.88670
   A12        1.86806  -0.00005   0.00197  -0.00297  -0.00100   1.86706
   A13        1.93216   0.00036   0.00012   0.00262   0.00274   1.93490
   A14        1.92872   0.00008   0.00147  -0.00070   0.00077   1.92948
   A15        1.94167  -0.00002  -0.00035   0.00021  -0.00014   1.94152
   A16        1.88096  -0.00024  -0.00087  -0.00130  -0.00218   1.87878
   A17        1.89489  -0.00013   0.00042  -0.00069  -0.00027   1.89463
   A18        1.88358  -0.00006  -0.00084  -0.00026  -0.00110   1.88248
   A19        1.98309   0.00030   0.00040   0.00171   0.00210   1.98519
   A20        1.90955  -0.00013  -0.00163   0.00079  -0.00085   1.90870
   A21        1.91238  -0.00014   0.00275  -0.00374  -0.00100   1.91138
   A22        1.93743   0.00007  -0.00154   0.00344   0.00190   1.93933
   A23        1.84756  -0.00009   0.00169  -0.00188  -0.00020   1.84736
   A24        1.86956  -0.00002  -0.00157  -0.00068  -0.00225   1.86732
   A25        1.89160   0.00016  -0.00063   0.00151   0.00088   1.89248
    D1       -1.09070  -0.00001   0.00168   0.00484   0.00652  -1.08417
    D2        1.08349   0.00010   0.00120   0.00763   0.00884   1.09233
    D3        3.11995  -0.00001   0.00263   0.00423   0.00685   3.12681
    D4        3.09494  -0.00001   0.00147   0.00505   0.00652   3.10147
    D5       -1.01405   0.00011   0.00100   0.00784   0.00883  -1.00522
    D6        1.02241  -0.00000   0.00242   0.00443   0.00685   1.02926
    D7        0.99502  -0.00002   0.00186   0.00452   0.00638   1.00140
    D8       -3.11398   0.00009   0.00138   0.00731   0.00869  -3.10528
    D9       -1.07751  -0.00002   0.00280   0.00391   0.00671  -1.07080
   D10        3.09660  -0.00000   0.00776   0.00422   0.01199   3.10859
   D11        1.01402   0.00002   0.00783   0.00462   0.01245   1.02647
   D12       -1.07799   0.00006   0.00814   0.00527   0.01341  -1.06458
   D13        0.92872   0.00000   0.00918   0.00168   0.01085   0.93957
   D14       -1.15386   0.00002   0.00924   0.00207   0.01131  -1.14254
   D15        3.03732   0.00007   0.00955   0.00273   0.01228   3.04959
   D16       -1.11728   0.00002   0.00617   0.00507   0.01124  -1.10604
   D17        3.08333   0.00004   0.00624   0.00546   0.01170   3.09503
   D18        0.99132   0.00009   0.00655   0.00612   0.01266   1.00398
   D19        3.10704   0.00003   0.00684  -0.00264   0.00420   3.11124
   D20        0.93103  -0.00017   0.00984  -0.00901   0.00083   0.93186
   D21       -1.11379   0.00001   0.01109  -0.00649   0.00461  -1.10919
   D22       -0.99511   0.00011   0.00520   0.00080   0.00600  -0.98911
   D23        3.11208  -0.00010   0.00820  -0.00558   0.00262   3.11469
   D24        1.06725   0.00009   0.00945  -0.00305   0.00640   1.07365
   D25        1.06231   0.00010   0.00714  -0.00104   0.00609   1.06840
   D26       -1.11369  -0.00011   0.01014  -0.00742   0.00272  -1.11097
   D27        3.12467   0.00008   0.01138  -0.00489   0.00650   3.13116
   D28       -1.02515  -0.00019  -0.00188  -0.00952  -0.01140  -1.03655
   D29        1.13578  -0.00008  -0.00495  -0.00449  -0.00944   1.12634
   D30       -3.12453  -0.00013  -0.00663  -0.00462  -0.01125  -3.13578
         Item               Value     Threshold  Converged?
 Maximum Force            0.000359     0.000015     NO 
 RMS     Force            0.000134     0.000010     NO 
 Maximum Displacement     0.023761     0.000060     NO 
 RMS     Displacement     0.006737     0.000040     NO 
 GradGradGradGradGradGradGradGradGradGradGradGradGradGradGradGradGradGrad

                    Distance matrix (angstroms):
                    1          2          3          4          5
     1  C    0.000000
     2  C    1.528504   0.000000
     3  C    2.533166   1.528001   0.000000
     4  C    2.515164   1.531913   2.526417   0.000000
     5  O    3.784626   2.460883   2.950921   1.405482   0.000000
     6  H    1.105819   2.181719   2.814053   2.793975   4.111233
     7  H    1.104617   2.191530   3.500962   2.766269   4.079087
     8  H    1.103695   2.183243   2.779566   3.483636   4.626518
     9  H    2.145342   1.109904   2.149525   2.138088   2.707785
    10  H    3.492583   2.179204   1.102141   2.738448   2.593874
    11  H    2.783789   2.178134   1.105919   2.827898   3.364724
    12  H    2.810798   2.185467   1.104106   3.492081   3.944764
    13  H    2.700884   2.170268   3.484074   1.111167   2.082133
    14  H    2.782838   2.167121   2.780064   1.104302   2.010585
    15  H    4.016004   2.630059   3.221361   1.941499   0.966839
                    6          7          8          9         10
     6  H    0.000000
     7  H    1.785994   0.000000
     8  H    1.782680   1.784053   0.000000
     9  H    3.078480   2.495208   2.501400   0.000000
    10  H    3.810933   4.346999   3.802963   2.516212   0.000000
    11  H    2.610348   3.811163   3.113471   3.079002   1.782343
    12  H    3.203460   3.815047   2.603926   2.484330   1.791141
    13  H    3.069842   2.483804   3.720406   2.487108   3.770831
    14  H    2.605975   3.142991   3.798404   3.061027   3.077590
    15  H    4.565453   4.217587   4.742035   2.459436   2.785002
                   11         12         13         14         15
    11  H    0.000000
    12  H    1.786341   0.000000
    13  H    3.820241   4.332087   0.000000
    14  H    2.629370   3.811152   1.780802   0.000000
    15  H    3.888357   4.050292   2.357208   2.823056   0.000000
 Framework group  C1[X(C4H10O)]
 Deg. of freedom    39
                         Standard orientation:                         
 ---------------------------------------------------------------------
 Center     Atomic      Atomic             Coordinates (Angstroms)
 Number     Number       Type             X           Y           Z
 ---------------------------------------------------------------------
      1          6           0       -1.710449   -0.781308   -0.002928
      2          6           0       -0.443694    0.008502   -0.331347
      3          6           0       -0.544080    1.463811    0.123390
      4          6           0        0.788036   -0.678052    0.267189
      5          8           0        1.998140   -0.026892   -0.027803
      6          1           0       -1.878560   -0.817595    1.089435
      7          1           0       -1.649012   -1.821397   -0.369834
      8          1           0       -2.599043   -0.314118   -0.461489
      9          1           0       -0.315835   -0.000237   -1.433828
     10          1           0        0.390230    2.007498   -0.091519
     11          1           0       -0.720592    1.518549    1.213759
     12          1           0       -1.377206    1.983939   -0.381008
     13          1           0        0.814157   -1.739304   -0.061068
     14          1           0        0.708908   -0.682843    1.368642
     15          1           0        2.102942    0.002927   -0.988483
 ---------------------------------------------------------------------
 Rotational constants (GHZ):           7.5379457           3.5096419           2.6590668
    90 basis functions,   165 primitive gaussians,    95 cartesian basis functions
    21 alpha electrons       21 beta electrons
       nuclear repulsion energy       192.8719142627 Hartrees.
 NAtoms=   15 NActive=   15 NUniq=   15 SFac= 1.00D+00 NAtFMM=   60 NAOKFM=F Big=F
 Nuclear repulsion after empirical dispersion term =      192.8640950835 Hartrees.
   1 Symmetry operations used in ECPInt.
 ECPInt:  NShTT=    1275 NPrTT=    5145 LenC2=    1274 LenP2D=    4356.
 LDataN:  DoStor=T MaxTD1= 4 Len=   56
 Initial guess from the checkpoint file:  "monomer.chk"
 B after Tr=     0.000000   -0.000000    0.000000
         Rot=    1.000000    0.000120   -0.000121   -0.000206 Ang=   0.03 deg.
 ExpMin= 1.22D-01 ExpMax= 2.27D+03 ExpMxC= 3.41D+02 IAcc=3 IRadAn=         5 AccDes= 0.00D+00
 Harris functional with IExCor= 4639 and IRadAn=       5 diagonalized for initial guess.
 HarFok:  IExCor= 4639 AccDes= 0.00D+00 IRadAn=         5 IDoV= 1 UseB2=F ITyADJ=14
 ICtDFT=  3500011 ScaDFX=  1.000000  1.000000  1.000000  1.000000
 FoFCou: FMM=F IPFlag=           0 FMFlag=      100000 FMFlg1=           0
         NFxFlg=           0 DoJE=T BraDBF=F KetDBF=T FulRan=T
         wScrn=  0.000000 ICntrl=       500 IOpCl=  0 I1Cent=   200000004 NGrid=           0
         NMat0=    1 NMatS0=      1 NMatT0=    0 NMatD0=    1 NMtDS0=    0 NMtDT0=    0
 Petite list used in FoFCou.
     Accept linear search using points  1 and  2.
     Minimum is close to point  2 DX= -2.30D-05 DF= -2.84D-14 DXR=  2.30D-05 DFR=  4.53D-10 which will be used.
 SCF Done:  E(RwB97XD) =  -233.400529700     a.u. after    3 cycles
            Convg  =    0.4717D-09                    20 Fock formations.
              S**2 =  0.0000                  -V/T =  2.0100
   1 Symmetry operations used in ECPInt.
 ECPInt:  NShTT=    1275 NPrTT=    5145 LenC2=    1274 LenP2D=    4356.
 LDataN:  DoStor=T MaxTD1= 5 Len=  102
 Calling FoFJK, ICntrl=      2127 FMM=F ISym2X=0 I1Cent= 0 IOpClX= 0 NMat=1 NMatS=1 NMatT=0.

 GradGradGradGradGradGradGradGradGradGradGradGradGradGradGradGradGradGrad
 Using GEDIIS/GDIIS optimizer.
 FormGI is forming the generalized inverse of G from B-inverse, IUseBI=4.
 Internal  Forces:  Max     0.000171665 RMS     0.000046747
 Step number   4 out of a maximum of   79
 All quantities printed in internal units (Hartrees-Bohrs-Radians)
 Mixed Optimization -- En-DIIS/RFO-DIIS
 Swapping is turned off.
 Trust test= 1.21D+00 RLast= 4.90D-02 DXMaxT set to 5.05D-01
 ITU=  1  1  1  0
     Eigenvalues ---    0.00269   0.00350   0.00429   0.01242   0.03644
     Eigenvalues ---    0.04756   0.04971   0.05214   0.05489   0.05551
     Eigenvalues ---    0.05591   0.05630   0.05952   0.11949   0.14113
     Eigenvalues ---    0.15679   0.15999   0.16000   0.16000   0.16000
     Eigenvalues ---    0.16105   0.16319   0.16885   0.17050   0.22625
     Eigenvalues ---    0.29109   0.29723   0.32247   0.33493   0.34040
     Eigenvalues ---    0.34560   0.34928   0.35078   0.35090   0.35106
     Eigenvalues ---    0.35122   0.36105   0.44541   0.54749
 En-DIIS/RFO-DIIS/Sim-DIIS IScMMF=       -3 using points:     4    3    2
 RFO step:  Lambda=-3.46857858D-06.
 DidBck=F Rises=F RFO-DIIS coefs:    1.46382   -0.44854   -0.01527
 Iteration  1 RMS(Cart)=  0.00309274 RMS(Int)=  0.00000826
 Iteration  2 RMS(Cart)=  0.00000843 RMS(Int)=  0.00000037
 Iteration  3 RMS(Cart)=  0.00000000 RMS(Int)=  0.00000037
 Variable       Old X    -DE/DX   Delta X   Delta X   Delta X     New X
                                 (Linear)    (Quad)   (Total)
    R1        2.88845   0.00017  -0.00046   0.00074   0.00027   2.88873
    R2        2.08969  -0.00009  -0.00015  -0.00010  -0.00025   2.08944
    R3        2.08742  -0.00004  -0.00018   0.00004  -0.00015   2.08728
    R4        2.08568  -0.00006  -0.00022   0.00003  -0.00019   2.08549
    R5        2.88750   0.00011  -0.00079   0.00067  -0.00012   2.88739
    R6        2.89490   0.00010  -0.00029   0.00051   0.00022   2.89512
    R7        2.09742  -0.00011   0.00005  -0.00028  -0.00023   2.09718
    R8        2.08275  -0.00001  -0.00032   0.00019  -0.00013   2.08262
    R9        2.08988  -0.00008  -0.00015  -0.00006  -0.00021   2.08968
   R10        2.08646  -0.00004  -0.00025   0.00011  -0.00015   2.08631
   R11        2.65598  -0.00001  -0.00074   0.00028  -0.00047   2.65551
   R12        2.09980  -0.00002   0.00018  -0.00015   0.00003   2.09983
   R13        2.08683  -0.00004  -0.00008   0.00003  -0.00006   2.08677
   R14        1.82706  -0.00009   0.00003  -0.00017  -0.00014   1.82692
    A1        1.93392  -0.00004   0.00061  -0.00053   0.00008   1.93400
    A2        1.94881   0.00001   0.00045  -0.00033   0.00012   1.94893
    A3        1.93825  -0.00001   0.00054  -0.00039   0.00015   1.93840
    A4        1.88144   0.00001  -0.00056   0.00039  -0.00017   1.88127
    A5        1.87750   0.00003  -0.00064   0.00063  -0.00002   1.87748
    A6        1.88109   0.00000  -0.00049   0.00030  -0.00019   1.88091
    A7        1.95384   0.00003   0.00030  -0.00016   0.00014   1.95398
    A8        1.92925  -0.00001  -0.00026  -0.00001  -0.00027   1.92898
    A9        1.88055   0.00002  -0.00044   0.00091   0.00048   1.88103
   A10        1.94270  -0.00004   0.00079  -0.00098  -0.00019   1.94251
   A11        1.88670  -0.00001  -0.00007  -0.00006  -0.00013   1.88658
   A12        1.86706   0.00001  -0.00039   0.00039  -0.00000   1.86705
   A13        1.93490   0.00004   0.00127  -0.00068   0.00060   1.93549
   A14        1.92948  -0.00003   0.00041  -0.00035   0.00006   1.92954
   A15        1.94152   0.00000  -0.00008   0.00011   0.00003   1.94155
   A16        1.87878  -0.00001  -0.00104   0.00043  -0.00061   1.87817
   A17        1.89463  -0.00002  -0.00011  -0.00008  -0.00019   1.89444
   A18        1.88248   0.00003  -0.00054   0.00062   0.00008   1.88256
   A19        1.98519  -0.00007   0.00099  -0.00115  -0.00016   1.98503
   A20        1.90870   0.00002  -0.00045   0.00030  -0.00016   1.90855
   A21        1.91138  -0.00002  -0.00036   0.00018  -0.00018   1.91119
   A22        1.93933   0.00003   0.00082  -0.00049   0.00033   1.93966
   A23        1.84736   0.00003  -0.00003   0.00025   0.00022   1.84758
   A24        1.86732   0.00002  -0.00110   0.00105  -0.00005   1.86726
   A25        1.89248   0.00009   0.00039   0.00033   0.00072   1.89320
    D1       -1.08417   0.00002   0.00309   0.00141   0.00450  -1.07968
    D2        1.09233  -0.00001   0.00414   0.00001   0.00415   1.09647
    D3        3.12681   0.00001   0.00328   0.00100   0.00427   3.13108
    D4        3.10147   0.00003   0.00308   0.00149   0.00457   3.10604
    D5       -1.00522  -0.00000   0.00413   0.00009   0.00422  -1.00100
    D6        1.02926   0.00001   0.00327   0.00108   0.00435   1.03361
    D7        1.00140   0.00003   0.00303   0.00160   0.00463   1.00603
    D8       -3.10528  -0.00000   0.00408   0.00019   0.00428  -3.10100
    D9       -1.07080   0.00001   0.00322   0.00118   0.00440  -1.06640
   D10        3.10859  -0.00001   0.00585  -0.00167   0.00418   3.11277
   D11        1.02647   0.00000   0.00606  -0.00154   0.00452   1.03100
   D12       -1.06458  -0.00001   0.00652  -0.00215   0.00437  -1.06021
   D13        0.93957   0.00000   0.00537  -0.00080   0.00458   0.94415
   D14       -1.14254   0.00001   0.00559  -0.00067   0.00492  -1.13762
   D15        3.04959  -0.00000   0.00605  -0.00128   0.00476   3.05436
   D16       -1.10604   0.00002   0.00544  -0.00067   0.00477  -1.10127
   D17        3.09503   0.00003   0.00566  -0.00055   0.00511   3.10014
   D18        1.00398   0.00002   0.00612  -0.00116   0.00496   1.00894
   D19        3.11124   0.00001   0.00220   0.00030   0.00251   3.11374
   D20        0.93186   0.00001   0.00075   0.00155   0.00230   0.93416
   D21       -1.10919  -0.00001   0.00255   0.00001   0.00256  -1.10663
   D22       -0.98911   0.00002   0.00297  -0.00063   0.00235  -0.98676
   D23        3.11469   0.00002   0.00152   0.00062   0.00214   3.11684
   D24        1.07365  -0.00000   0.00332  -0.00092   0.00240   1.07605
   D25        1.06840  -0.00001   0.00309  -0.00101   0.00208   1.07049
   D26       -1.11097  -0.00001   0.00164   0.00024   0.00188  -1.10910
   D27        3.13116  -0.00003   0.00344  -0.00130   0.00214   3.13330
   D28       -1.03655  -0.00010  -0.00536  -0.00334  -0.00870  -1.04524
   D29        1.12634  -0.00011  -0.00456  -0.00420  -0.00876   1.11758
   D30       -3.13578  -0.00005  -0.00547  -0.00306  -0.00853   3.13888
         Item               Value     Threshold  Converged?
 Maximum Force            0.000172     0.000015     NO 
 RMS     Force            0.000047     0.000010     NO 
 Maximum Displacement     0.010016     0.000060     NO 
 RMS     Displacement     0.003094     0.000040     NO 
 GradGradGradGradGradGradGradGradGradGradGradGradGradGradGradGradGradGrad

                    Distance matrix (angstroms):
                    1          2          3          4          5
     1  C    0.000000
     2  C    1.528649   0.000000
     3  C    2.533355   1.527939   0.000000
     4  C    2.515143   1.532031   2.526298   0.000000
     5  O    3.784402   2.460656   2.949264   1.405236   0.000000
     6  H    1.105686   2.181805   2.812235   2.795851   4.111669
     7  H    1.104540   2.191688   3.501153   2.764350   4.078231
     8  H    1.103593   2.183398   2.781947   3.483575   4.626333
     9  H    2.145736   1.109781   2.149283   2.138097   2.708448
    10  H    3.493023   2.179529   1.102074   2.740746   2.594649
    11  H    2.786025   2.178038   1.105808   2.825381   3.358599
    12  H    2.808994   2.185372   1.104028   3.492145   3.944979
    13  H    2.701657   2.170266   3.483946   1.111181   2.082164
    14  H    2.781346   2.167066   2.780877   1.104272   2.010516
    15  H    4.019296   2.633969   3.225479   1.941707   0.966767
                    6          7          8          9         10
     6  H    0.000000
     7  H    1.785716   0.000000
     8  H    1.782480   1.783786   0.000000
     9  H    3.078679   2.497394   2.500282   0.000000
    10  H    3.810902   4.347462   3.803969   2.514608   0.000000
    11  H    2.610556   3.811799   3.120249   3.078789   1.781801
    12  H    3.197464   3.814924   2.604264   2.485912   1.790903
    13  H    3.074247   2.482468   3.719759   2.486269   3.772122
    14  H    2.606447   3.137946   3.798181   3.060890   3.082606
    15  H    4.568914   4.219767   4.745656   2.464563   2.790124
                   11         12         13         14         15
    11  H    0.000000
    12  H    1.786238   0.000000
    13  H    3.818965   4.332033   0.000000
    14  H    2.627512   3.810701   1.780754   0.000000
    15  H    3.887920   4.057732   2.354600   2.823230   0.000000
 Framework group  C1[X(C4H10O)]
 Deg. of freedom    39
                         Standard orientation:                         
 ---------------------------------------------------------------------
 Center     Atomic      Atomic             Coordinates (Angstroms)
 Number     Number       Type             X           Y           Z
 ---------------------------------------------------------------------
      1          6           0       -1.710968   -0.780596   -0.002340
      2          6           0       -0.443946    0.008633   -0.331795
      3          6           0       -0.542958    1.463934    0.123062
      4          6           0        0.787716   -0.678724    0.266257
      5          8           0        1.997489   -0.026639   -0.026870
      6          1           0       -1.880728   -0.813024    1.089755
      7          1           0       -1.648648   -1.821960   -0.365225
      8          1           0       -2.599076   -0.315693   -0.463909
      9          1           0       -0.316472    0.000012   -1.434197
     10          1           0        0.389664    2.008622   -0.096248
     11          1           0       -0.713828    1.518896    1.214206
     12          1           0       -1.378884    1.983395   -0.377205
     13          1           0        0.814077   -1.739407   -0.063863
     14          1           0        0.707729   -0.685524    1.367607
     15          1           0        2.107192   -0.001683   -0.987068
 ---------------------------------------------------------------------
 Rotational constants (GHZ):           7.5385220           3.5103586           2.6592699
    90 basis functions,   165 primitive gaussians,    95 cartesian basis functions
    21 alpha electrons       21 beta electrons
       nuclear repulsion energy       192.8774489734 Hartrees.
 NAtoms=   15 NActive=   15 NUniq=   15 SFac= 1.00D+00 NAtFMM=   60 NAOKFM=F Big=F
 Nuclear repulsion after empirical dispersion term =      192.8696315649 Hartrees.
   1 Symmetry operations used in ECPInt.
 ECPInt:  NShTT=    1275 NPrTT=    5145 LenC2=    1274 LenP2D=    4356.
 LDataN:  DoStor=T MaxTD1= 4 Len=   56
 Initial guess from the checkpoint file:  "monomer.chk"
 B after Tr=     0.000000    0.000000   -0.000000
         Rot=    1.000000    0.000122   -0.000029    0.000188 Ang=   0.03 deg.
     Minimum is close to point  2 DX=  4.54D-06 DF=  0.00D+00 DXR=  4.54D-06 DFR=  0.00D+00 which will be used.
 SCF Done:  E(RwB97XD) =  -233.400532003     a.u. after    3 cycles
            Convg  =    0.1595D-09                    21 Fock formations.
              S**2 =  0.0000                  -V/T =  2.0100
   1 Symmetry operations used in ECPInt.
 ECPInt:  NShTT=    1275 NPrTT=    5145 LenC2=    1274 LenP2D=    4356.
 LDataN:  DoStor=T MaxTD1= 5 Len=  102
 Calling FoFJK, ICntrl=      2127 FMM=F ISym2X=0 I1Cent= 0 IOpClX= 0 NMat=1 NMatS=1 NMatT=0.

 GradGradGradGradGradGradGradGradGradGradGradGradGradGradGradGradGradGrad
 Using GEDIIS/GDIIS optimizer.
 FormGI is forming the generalized inverse of G from B-inverse, IUseBI=4.
 Internal  Forces:  Max     0.000117560 RMS     0.000032923
 Step number   5 out of a maximum of   79
 All quantities printed in internal units (Hartrees-Bohrs-Radians)
 Mixed Optimization -- En-DIIS/RFO-DIIS
 Swapping is turned off.
 Trust test= 1.33D+00 RLast= 2.54D-02 DXMaxT set to 5.05D-01
 ITU=  1  1  1  1  0
     Eigenvalues ---    0.00265   0.00334   0.00425   0.00894   0.03626
     Eigenvalues ---    0.04760   0.04924   0.05211   0.05487   0.05559
     Eigenvalues ---    0.05591   0.05634   0.05969   0.11944   0.14104
     Eigenvalues ---    0.15816   0.15985   0.16000   0.16000   0.16026
     Eigenvalues ---    0.16112   0.16751   0.16959   0.17548   0.22627
     Eigenvalues ---    0.28872   0.29859   0.31037   0.33508   0.33973
     Eigenvalues ---    0.34638   0.35044   0.35075   0.35102   0.35122
     Eigenvalues ---    0.35127   0.37113   0.45857   0.54581
 En-DIIS/RFO-DIIS/Sim-DIIS IScMMF=       -3 using points:     5    4    3    2
 RFO step:  Lambda=-1.49846641D-06.
 DidBck=F Rises=F RFO-DIIS coefs:    1.91539   -0.98377   -0.01929    0.08767
 Iteration  1 RMS(Cart)=  0.00203668 RMS(Int)=  0.00000773
 Iteration  2 RMS(Cart)=  0.00000708 RMS(Int)=  0.00000061
 Iteration  3 RMS(Cart)=  0.00000000 RMS(Int)=  0.00000061
 Variable       Old X    -DE/DX   Delta X   Delta X   Delta X     New X
                                 (Linear)    (Quad)   (Total)
    R1        2.88873   0.00007   0.00092  -0.00065   0.00027   2.88900
    R2        2.08944  -0.00001  -0.00036   0.00026  -0.00010   2.08935
    R3        2.08728   0.00002  -0.00013   0.00017   0.00003   2.08731
    R4        2.08549   0.00001  -0.00020   0.00019  -0.00001   2.08548
    R5        2.88739   0.00011   0.00067  -0.00034   0.00033   2.88771
    R6        2.89512   0.00009   0.00043   0.00006   0.00050   2.89562
    R7        2.09718  -0.00005  -0.00047   0.00023  -0.00024   2.09694
    R8        2.08262   0.00002  -0.00004   0.00005   0.00001   2.08263
    R9        2.08968  -0.00000  -0.00033   0.00028  -0.00005   2.08963
   R10        2.08631   0.00002  -0.00013   0.00017   0.00004   2.08635
   R11        2.65551   0.00012   0.00012   0.00002   0.00014   2.65565
   R12        2.09983  -0.00003  -0.00003  -0.00006  -0.00009   2.09973
   R13        2.08677  -0.00002  -0.00021   0.00013  -0.00008   2.08669
   R14        1.82692  -0.00004  -0.00021   0.00007  -0.00014   1.82678
    A1        1.93400  -0.00006  -0.00035  -0.00006  -0.00041   1.93359
    A2        1.94893  -0.00002   0.00013  -0.00029  -0.00017   1.94877
    A3        1.93840  -0.00002  -0.00006  -0.00003  -0.00008   1.93831
    A4        1.88127   0.00004   0.00003   0.00019   0.00022   1.88149
    A5        1.87748   0.00004   0.00028   0.00008   0.00036   1.87785
    A6        1.88091   0.00002  -0.00002   0.00014   0.00011   1.88102
    A7        1.95398  -0.00001   0.00034  -0.00051  -0.00016   1.95382
    A8        1.92898   0.00003  -0.00004   0.00008   0.00005   1.92903
    A9        1.88103   0.00000   0.00067  -0.00035   0.00032   1.88135
   A10        1.94251  -0.00003  -0.00046   0.00018  -0.00028   1.94223
   A11        1.88658   0.00001  -0.00016   0.00022   0.00006   1.88663
   A12        1.86705  -0.00000  -0.00035   0.00041   0.00006   1.86711
   A13        1.93549  -0.00005   0.00033  -0.00059  -0.00026   1.93523
   A14        1.92954  -0.00003  -0.00031   0.00018  -0.00013   1.92941
   A15        1.94155   0.00000   0.00011  -0.00010   0.00000   1.94155
   A16        1.87817   0.00004  -0.00023   0.00037   0.00015   1.87831
   A17        1.89444   0.00002  -0.00024   0.00022  -0.00002   1.89442
   A18        1.88256   0.00002   0.00032  -0.00004   0.00028   1.88284
   A19        1.98503  -0.00001  -0.00037   0.00037   0.00000   1.98504
   A20        1.90855   0.00001   0.00026  -0.00018   0.00008   1.90862
   A21        1.91119  -0.00002  -0.00068   0.00047  -0.00021   1.91099
   A22        1.93966  -0.00001   0.00050  -0.00051  -0.00001   1.93965
   A23        1.84758  -0.00000  -0.00014  -0.00001  -0.00015   1.84743
   A24        1.86726   0.00002   0.00044  -0.00015   0.00029   1.86756
   A25        1.89320  -0.00001   0.00073  -0.00071   0.00002   1.89322
    D1       -1.07968   0.00001   0.00332  -0.00093   0.00238  -1.07729
    D2        1.09647  -0.00001   0.00294  -0.00101   0.00193   1.09841
    D3        3.13108   0.00000   0.00288  -0.00067   0.00221   3.13329
    D4        3.10604   0.00001   0.00343  -0.00093   0.00249   3.10853
    D5       -1.00100  -0.00001   0.00305  -0.00101   0.00204  -0.99896
    D6        1.03361   0.00000   0.00299  -0.00068   0.00232   1.03593
    D7        1.00603   0.00001   0.00340  -0.00089   0.00252   1.00855
    D8       -3.10100  -0.00001   0.00303  -0.00096   0.00206  -3.09894
    D9       -1.06640   0.00000   0.00297  -0.00063   0.00234  -1.06406
   D10        3.11277   0.00000   0.00136  -0.00021   0.00115   3.11391
   D11        1.03100   0.00000   0.00162  -0.00040   0.00122   1.03221
   D12       -1.06021  -0.00001   0.00135  -0.00041   0.00095  -1.05926
   D13        0.94415  -0.00000   0.00149  -0.00007   0.00142   0.94557
   D14       -1.13762  -0.00001   0.00176  -0.00027   0.00149  -1.13613
   D15        3.05436  -0.00002   0.00149  -0.00027   0.00122   3.05558
   D16       -1.10127   0.00001   0.00228  -0.00081   0.00148  -1.09980
   D17        3.10014   0.00001   0.00255  -0.00100   0.00155   3.10169
   D18        1.00894  -0.00001   0.00228  -0.00100   0.00127   1.01021
   D19        3.11374   0.00001   0.00055  -0.00066  -0.00011   3.11363
   D20        0.93416   0.00002  -0.00004  -0.00012  -0.00016   0.93400
   D21       -1.10663  -0.00001  -0.00033  -0.00011  -0.00044  -1.10707
   D22       -0.98676  -0.00000   0.00063  -0.00113  -0.00049  -0.98726
   D23        3.11684   0.00000   0.00004  -0.00058  -0.00055   3.11629
   D24        1.07605  -0.00002  -0.00025  -0.00057  -0.00082   1.07523
   D25        1.07049  -0.00001  -0.00003  -0.00052  -0.00055   1.06994
   D26       -1.10910   0.00000  -0.00062   0.00002  -0.00060  -1.10969
   D27        3.13330  -0.00002  -0.00091   0.00004  -0.00088   3.13243
   D28       -1.04524  -0.00006  -0.00678  -0.00215  -0.00893  -1.05417
   D29        1.11758  -0.00006  -0.00632  -0.00251  -0.00883   1.10875
   D30        3.13888  -0.00004  -0.00563  -0.00294  -0.00857   3.13031
         Item               Value     Threshold  Converged?
 Maximum Force            0.000118     0.000015     NO 
 RMS     Force            0.000033     0.000010     NO 
 Maximum Displacement     0.011047     0.000060     NO 
 RMS     Displacement     0.002036     0.000040     NO 
 GradGradGradGradGradGradGradGradGradGradGradGradGradGradGradGradGradGrad

                    Distance matrix (angstroms):
                    1          2          3          4          5
     1  C    0.000000
     2  C    1.528792   0.000000
     3  C    2.533476   1.528111   0.000000
     4  C    2.515516   1.532294   2.526416   0.000000
     5  O    3.784814   2.460943   2.949572   1.405310   0.000000
     6  H    1.105635   2.181596   2.810827   2.796732   4.112355
     7  H    1.104557   2.191709   3.501289   2.763635   4.077801
     8  H    1.103587   2.183459   2.783043   3.483865   4.626634
     9  H    2.146005   1.109652   2.149381   2.138275   2.708488
    10  H    3.493079   2.179499   1.102081   2.741134   2.595261
    11  H    2.786515   2.178075   1.105784   2.824575   3.357771
    12  H    2.808648   2.185544   1.104050   3.492399   3.945667
    13  H    2.702010   2.170516   3.484104   1.111131   2.082186
    14  H    2.781729   2.167113   2.780333   1.104231   2.010439
    15  H    4.021920   2.637985   3.232366   1.941732   0.966691
                    6          7          8          9         10
     6  H    0.000000
     7  H    1.785832   0.000000
     8  H    1.782671   1.783870   0.000000
     9  H    3.078605   2.498477   2.499662   0.000000
    10  H    3.810027   4.347452   3.804466   2.513965   0.000000
    11  H    2.609392   3.811583   3.122763   3.078768   1.781883
    12  H    3.194898   3.815337   2.604896   2.486545   1.790912
    13  H    3.075640   2.481683   3.719584   2.486770   3.772446
    14  H    2.607492   3.136932   3.798944   3.060857   3.082646
    15  H    4.571492   4.220041   4.748952   2.468596   2.798105
                   11         12         13         14         15
    11  H    0.000000
    12  H    1.786421   0.000000
    13  H    3.818220   4.332394   0.000000
    14  H    2.625907   3.810059   1.780876   0.000000
    15  H    3.892876   4.065703   2.351415   2.823088   0.000000
 Framework group  C1[X(C4H10O)]
 Deg. of freedom    39
                         Standard orientation:                         
 ---------------------------------------------------------------------
 Center     Atomic      Atomic             Coordinates (Angstroms)
 Number     Number       Type             X           Y           Z
 ---------------------------------------------------------------------
      1          6           0       -1.710972   -0.781170   -0.002216
      2          6           0       -0.444123    0.008468   -0.332020
      3          6           0       -0.543778    1.463948    0.122702
      4          6           0        0.788011   -0.678107    0.266633
      5          8           0        1.997593   -0.025691   -0.026902
      6          1           0       -1.881531   -0.811120    1.089773
      7          1           0       -1.647176   -1.823282   -0.362743
      8          1           0       -2.598878   -0.318021   -0.465920
      9          1           0       -0.316408   -0.000293   -1.434263
     10          1           0        0.388266    2.009106   -0.097935
     11          1           0       -0.713327    1.518856    1.214030
     12          1           0       -1.380597    1.982705   -0.376849
     13          1           0        0.814856   -1.738977   -0.062678
     14          1           0        0.707953   -0.683793    1.367943
     15          1           0        2.111269   -0.008490   -0.986732
 ---------------------------------------------------------------------
 Rotational constants (GHZ):           7.5382763           3.5092027           2.6586638
    90 basis functions,   165 primitive gaussians,    95 cartesian basis functions
    21 alpha electrons       21 beta electrons
       nuclear repulsion energy       192.8612799302 Hartrees.
[...]
 ! D22   D(3,2,4,5)            -56.5883         -DE/DX =    0.0                 !
 ! D23   D(3,2,4,13)           178.5392         -DE/DX =    0.0                 !
 ! D24   D(3,2,4,14)            61.5791         -DE/DX =    0.0                 !
 ! D25   D(9,2,4,5)             61.2712         -DE/DX =    0.0                 !
 ! D26   D(9,2,4,13)           -63.6013         -DE/DX =    0.0                 !
 ! D27   D(9,2,4,14)           179.4386         -DE/DX =    0.0                 !
 ! D28   D(2,4,5,15)           -60.6898         -DE/DX =    0.0                 !
 ! D29   D(13,4,5,15)           63.2318         -DE/DX =    0.0                 !
 ! D30   D(14,4,5,15)          179.0618         -DE/DX =    0.0                 !
 --------------------------------------------------------------------------------
 GradGradGradGradGradGradGradGradGradGradGradGradGradGradGradGradGradGrad


 ----------------------------------------------------------------------

 Electric dipole moment (input orientation):
 (Debye = 10**-18 statcoulomb cm , SI units = C m)
                  (au)            (Debye)         (10**-30 SI)
   Tot        0.667346D+00      0.169623D+01      0.565800D+01
   x          0.380038D+00      0.965960D+00      0.322210D+01
   y          0.219599D+00      0.558165D+00      0.186184D+01
   z         -0.502691D+00     -0.127771D+01     -0.426200D+01

 Dipole polarizability, Alpha (input orientation).
 (esu units = cm**3 , SI units = C**2 m**2 J**-1)
 Alpha(0;0):
               (au)            (10**-24 esu)      (10**-40 SI)
   iso        0.468980D+02      0.694957D+01      0.773244D+01
   aniso      0.407288D+01      0.603538D+00      0.671527D+00
   xx         0.483720D+02      0.716800D+01      0.797547D+01
   yx         0.705003D+00      0.104471D+00      0.116239D+00
   yy         0.476872D+02      0.706651D+01      0.786256D+01
   zx         0.100490D+01      0.148910D+00      0.165685D+00
   zy         0.252485D+00      0.374144D-01      0.416292D-01
   zz         0.446348D+02      0.661419D+01      0.735928D+01

 ----------------------------------------------------------------------

 Dipole orientation:
     6          2.55622884         -1.08098151          2.37344928
     6          0.42593803          0.30923640          1.00390267
     6          1.38658513          2.64479323         -0.39672866
     6         -0.97311664         -1.48699774         -0.78498190
     8         -3.00695988         -0.35301262         -2.06234367
     1          3.98615287         -1.76952163          1.01446777
     1          1.84171268         -2.72842240          3.43759230
     1          3.52529984          0.17811007          3.72434989
     1         -0.95973304          0.93897351          2.44629312
     1         -0.16466749          3.58719606         -1.41798692
     1          2.83821092          2.11158450         -1.80212744
     1          2.24393756          4.01680707          0.92064433
     1         -1.60049281         -3.18307820          0.28191139
     1          0.33457846         -2.14927766         -2.27012265
     1         -4.21555401          0.23069675         -0.82308871

 Electric dipole moment (dipole orientation):
 (Debye = 10**-18 statcoulomb cm , SI units = C m)
                  (au)            (Debye)         (10**-30 SI)
   Tot        0.667346D+00      0.169623D+01      0.565800D+01
   x          0.000000D+00      0.000000D+00      0.000000D+00
   y          0.000000D+00      0.000000D+00      0.000000D+00
   z          0.667346D+00      0.169623D+01      0.565800D+01

 Dipole polarizability, Alpha (dipole orientation).
 (esu units = cm**3 , SI units = C**2 m**2 J**-1)
 Alpha(0;0):
               (au)            (10**-24 esu)      (10**-40 SI)
   iso        0.468980D+02      0.694957D+01      0.773244D+01
   aniso      0.407288D+01      0.603538D+00      0.671527D+00
   xx         0.479315D+02      0.710271D+01      0.790283D+01
   yx        -0.249874D+00     -0.370275D-01     -0.411987D-01
   yy         0.473083D+02      0.701037D+01      0.780009D+01
   zx         0.155001D+01      0.229687D+00      0.255561D+00
   zy        -0.118493D+01     -0.175588D+00     -0.195368D+00
   zz         0.454542D+02      0.673562D+01      0.749439D+01

 ----------------------------------------------------------------------
 1\1\GINC-C200\Freq\RwB97XD\def2SVPP\C4H10O1\PETERCHAO1\29-Mar-2024\0\\
 #T Geom=AllCheck Guess=TCheck SCRF=Check GenChk RwB97XD/def2SVPP Freq\
 \Monomer\\0,1\C,1.7565968726,0.8054172049,0.012476406\C,0.5037252677,-
 0.0028131773,-0.3256584763\C,0.6280600935,-1.4606350785,0.1154495172\C
 ,-0.7403618188,0.6566353943,0.2785859691\O,-1.9383482527,-0.0137793293
 ,-0.0226116547\H,1.9248377773,0.8297550484,1.1049943422\H,1.6759346212
 ,1.8490782643,-0.3401538693\H,2.65286536,0.3607097747,-0.4532253131\H,
 0.3763801741,0.0140656612,-1.4278489665\H,-0.2954454878,-2.0186293669,
 -0.1090429444\H,0.8004583289,-1.5227287151,1.2059616399\H,1.4724280967
 ,-1.9609273426,-0.3902179301\H,-0.7853632641,1.719996066,-0.0404108835
 \H,-0.6613709413,0.6528799799,1.3799856718\H,-2.0531399605,-0.01943585
 52,-0.9824519715\\Version=ES64L-G16RevB.01\State=1-A\HF=-233.4005334\R
 MSD=7.913e-11\RMSF=8.517e-07\ZeroPoint=0.1377015\Thermal=0.1442781\Dip
 ole=0.3800381,0.2195989,-0.5026914\DipoleDeriv=0.0022474,-0.0084101,0.
 0002038,0.0016487,0.0149566,-0.0027624,0.0212186,0.0078039,0.0768478,0
 .0069075,0.0023531,0.0055741,0.0679963,0.0919839,-0.0327578,0.0568538,
 -0.0170694,0.1219547,-0.0122245,-0.0215499,-0.0040912,-0.0253809,-0.03
 24324,0.0092224,0.0063232,-0.019398,0.0753544,0.7723973,0.1567423,0.09
 4047,0.0993772,0.4635332,0.035387,0.0747344,0.0559433,0.3117183,-1.030
 0796,-0.1125059,-0.1012104,-0.0894546,-0.604024,-0.0750167,-0.1273903,
 -0.1004026,-0.2618687,0.0431081,-0.0216253,0.0041826,-0.0188596,0.0591
 746,0.0174438,-0.0588534,-0.0219979,-0.134286,0.0468025,0.0187846,-0.0
 25881,-0.0304948,-0.1446477,0.0515739,-0.0157811,0.0639364,0.0500642,-
 0.1015253,0.0301828,0.0474694,0.07425,0.0317698,-0.0501751,0.0713962,-
 0.0405101,0.0360847,-0.0225116,0.0003811,-0.0617272,0.0057078,-0.01894
 11,0.0105551,-0.0446731,0.0066084,-0.202731,-0.0284433,-0.1148813,-0.0
 320462,-0.0721642,0.002574,0.0008777,-0.0428829,-0.010179,0.0593621,0.
 0688535,0.0145981,-0.0293298,-0.0010221,0.03446,-0.0301081,-0.0348601,
 0.0436384,-0.1363425,-0.0605665,0.1081176,0.0720809,0.0678984,-0.01332
 39,-0.0117179,0.0825775,-0.0376967,0.0224927,-0.0432598,0.0043485,-0.0
 138682,-0.0012465,-0.238428,0.0272663,0.0018141,0.084769,0.0151135,-0.
 0021223,-0.0103475,-0.0326102,-0.0126388,0.0437163,0.0241515,-0.009983
 8,-0.0265203,-0.1451007,0.3604166,-0.0461879,0.0772066,-0.0656169,0.30
 96287,0.0260602,0.0195068,0.0110748,0.1113366\Polar=48.3720311,0.70500
 26,47.6871897,1.0048952,0.2524852,44.6347901\Quadrupole=-2.0560426,0.0
 770075,1.9790351,-0.5187256,2.4334838,0.1481318\PG=C01 [X(C4H10O1)]\NI
 mag=0\\0.52624580,-0.04241762,0.56198474,-0.02093936,-0.01309236,0.573
 56418,-0.16624714,-0.05121720,-0.02466641,0.50241232,-0.05332348,-0.11
 554835,-0.01654126,0.00560981,0.51305927,-0.02389180,-0.01568541,-0.09
 004579,0.01563865,-0.00115026,0.59574891,0.00176317,-0.02990656,0.0090
 5586,-0.08375713,0.01098526,-0.00345396,0.59677648,-0.00236188,-0.0228
 7277,0.00504714,0.00806348,-0.19362831,0.03587432,0.00810223,0.5028933
 2,0.00136074,-0.00656705,0.00230733,-0.00281141,0.03804726,-0.09639142
 ,-0.00425920,0.03056678,0.57161061,-0.02860565,0.00531576,0.00883586,-
 0.13770696,0.04634525,0.04192853,-0.00280420,0.01006856,0.00017170,0.4
 8666741,-0.01582432,0.00852929,0.00834748,0.04257151,-0.11090578,-0.02
 232973,0.03059009,-0.02040572,-0.01438675,0.01102932,0.57270035,-0.007
 43892,0.00568729,0.00370087,0.03447065,-0.02503882,-0.11037283,-0.0079
 5623,0.00295398,0.00468149,0.02356572,-0.02773944,0.63495350,-0.006073
 81,0.00678652,0.00507124,-0.04316516,-0.02357088,-0.01321508,0.0011076
 3,-0.00216183,0.00015935,-0.20824854,-0.08267359,-0.00985819,0.3173521
 2,0.00128981,0.00017229,-0.00014290,0.00316294,0.00725583,0.00083507,-
 0.00019788,-0.00167350,0.00012485,-0.08476424,-0.11914081,-0.00233993,
 0.13971554,0.14056136,0.00191325,-0.00148846,-0.00009420,0.00850741,0.
 00692071,0.00414598,-0.00036498,-0.00054736,0.00086754,-0.05268345,-0.
 02559427,-0.10875680,0.09320660,0.02110101,0.59334769,-0.05367731,-0.0
 0007117,-0.03585919,-0.00420662,0.00010334,-0.02831376,0.00084102,0.00
 138014,-0.00016557,0.00097720,-0.00016595,-0.00226283,0.00015115,0.000
 20441,0.00072722,0.05625746,0.00026157,-0.04966255,-0.00308149,-0.0020
 0227,-0.00075337,-0.01790957,0.00035775,0.00105596,-0.00154294,0.00071
 538,0.00016011,0.00006763,0.00006720,-0.00009518,0.00016685,0.00351570
 ,0.04771409,-0.03655942,-0.00372108,-0.30738768,-0.00143469,0.00017411
 ,-0.00734109,0.00045355,0.00048807,0.00091518,0.00104636,-0.00009328,0
 .00031329,-0.00023553,0.00000770,0.00048487,0.04218639,0.00530433,0.32
 856994,-0.05097533,0.02228586,-0.00776744,0.00386934,-0.02543832,0.010
 85266,-0.00487008,-0.00165955,-0.00150128,0.00053767,-0.00212154,0.000
 52764,0.00057446,0.00080187,-0.00004973,-0.00135133,0.00364998,-0.0005
 6432,0.05241409,0.02098631,-0.28485329,0.08157573,0.00306445,-0.014657
 78,0.00575323,-0.00436866,-0.00082548,-0.00177692,0.00136907,-0.000227
 35,-0.00001275,-0.00011680,0.00079845,-0.00019144,-0.00035575,0.003256
 78,-0.00147183,-0.02014963,0.30576861,-0.00693107,0.08212027,-0.078131
 56,0.00124808,-0.00880813,0.00187607,-0.00127127,-0.00056030,0.0000991
 2,0.00010849,0.00059168,0.00003678,0.00004256,-0.00031276,-0.00012790,
 -0.00255892,0.02981230,-0.00689503,0.00893918,-0.08812942,0.07668575,-
 0.22183022,0.08939717,0.09312805,-0.02152444,0.01228444,0.01231387,0.0
 0104408,0.00129965,0.00019778,-0.00130462,-0.00458815,-0.00309928,-0.0
 0277662,0.00007995,0.00058846,0.00543851,-0.00328165,-0.00296053,-0.00
 057074,-0.00040892,-0.00001692,0.23962109,0.09102291,-0.09408963,-0.04
 762345,-0.01587100,0.00720842,0.00940389,-0.00075381,0.00133913,0.0005
 4411,-0.00120607,-0.00272032,-0.00122594,-0.00175107,0.00050279,0.0000
 9574,-0.00129384,-0.00034974,0.00088353,0.02308512,-0.00958477,-0.0141
 0116,-0.09434057,0.09706106,0.09409795,-0.04726050,-0.09838023,-0.0081
 9135,0.00406052,0.00329043,0.00016953,0.00022935,-0.00000021,-0.000978
 13,-0.00099278,-0.00039480,-0.00080654,-0.00008576,0.00061214,0.025576
 61,-0.01315565,-0.01043271,-0.01031579,0.00421325,0.00504434,-0.099641
 69,0.05217865,0.09940381,-0.00469828,-0.00081501,-0.02907869,-0.052173
 76,0.00080739,-0.02594805,-0.00051568,0.00018578,-0.00300826,0.0002431
 0,0.00054213,0.03003307,0.00337977,0.00024466,-0.00037615,-0.00452807,
 -0.00331281,-0.00148402,0.00101137,0.00008575,0.00056496,0.00072301,0.
 00084169,-0.00001264,0.06002016,-0.00297005,-0.00088627,-0.01778941,0.
 00149896,-0.04931170,0.00428992,0.00435702,-0.00267269,0.03320609,-0.0
 0123694,-0.00046136,-0.01690097,-0.00109008,-0.00019833,0.00110025,-0.
 00310787,-0.00134952,-0.00097042,0.00055684,0.00033200,-0.00031825,0.0
 0041932,0.00048963,0.00068186,-0.00085299,0.05772146,-0.00042079,0.000
 05549,-0.00667067,-0.02710372,0.00392475,-0.29104317,-0.00109603,0.000
 21928,-0.00936164,-0.00322426,-0.00052609,-0.01680070,0.00031207,0.000
 74886,0.00318988,-0.00120582,-0.00093086,0.00102080,-0.00007612,-0.000
 48849,0.00039411,-0.00036791,0.00015361,0.00057623,0.02884058,-0.00382
 511,0.31652993,0.00030164,0.00037972,0.00043665,0.00450558,0.00202965,
 0.00107635,-0.24286402,-0.11661530,-0.04853402,-0.00047426,-0.00008309
 ,0.00060325,-0.00115190,0.00205455,0.00005433,-0.00000667,0.00011224,0
 .00003560,0.00015303,0.00018770,-0.00015445,0.00023136,0.00016020,-0.0
 0013678,0.00030204,-0.00047570,0.00029871,0.25695867,0.00232288,-0.006
 06664,0.00269261,-0.02669682,-0.01414257,-0.00854939,-0.11342151,-0.11
 547946,-0.02853751,-0.00304828,-0.00068916,-0.00103179,0.00105970,0.00
 213131,0.00073912,0.00024787,0.00015247,-0.00003390,-0.00164203,-0.001
 17297,-0.00035069,0.00010425,0.00020755,0.00016887,0.00012410,0.001117
 45,0.00029381,0.12467072,0.12507393,-0.00047576,0.00173813,-0.00013109
 ,0.00982132,0.00487836,0.00187935,-0.04792039,-0.02919429,-0.06235077,
 -0.00060279,-0.00075326,0.00014649,0.00010514,0.00026266,-0.00046915,0
 .00020115,0.00030055,0.00031288,0.00028134,0.00043913,0.00055343,-0.00
 032253,-0.00004823,-0.00008018,0.00060704,-0.00041112,0.00026628,0.052
 30393,0.02887565,0.06041253,0.00020703,-0.00017206,0.00109358,-0.00140
 510,0.00009012,-0.00259256,-0.05607106,0.00179096,-0.04055655,0.000257
 42,-0.00015845,-0.00159691,-0.00036297,0.00028949,0.00063849,0.0002483
 4,-0.00019637,-0.00005960,-0.00010776,0.00009768,-0.00006934,-0.000027
 50,0.00006224,0.00012054,0.00071740,0.00054869,-0.00007692,-0.00152304
 ,0.00265903,-0.02646412,0.05222709,0.00080831,0.00172071,0.00100767,0.
 00499238,-0.00181793,0.03295380,0.00174997,-0.04854616,0.00935239,-0.0
 0075996,0.00153376,0.00138431,0.00001408,0.00011285,-0.00019663,-0.000
 37858,-0.00028095,-0.00072772,0.00018084,0.00027005,-0.00032457,-0.000
 08428,-0.00005151,-0.00009871,0.00075818,-0.00622201,0.00215263,-0.000
 48612,0.00067098,-0.01588923,-0.00268238,0.05234346,-0.00016972,-0.000
 80912,0.00084356,-0.00154413,0.00035289,-0.01011977,-0.04039310,0.0107
 9129,-0.30518923,0.00072544,-0.00072928,0.00069081,-0.00041660,0.00034
 502,0.00013809,0.00056495,0.00059656,0.00024370,0.00007139,-0.00001116
 ,0.00037090,-0.00002490,0.00003910,-0.00012067,-0.00017902,0.00225488,
 0.00074813,0.00067646,0.00059182,-0.00385035,0.04452620,-0.01484501,0.
 32681069,0.00087491,-0.00073205,-0.00036430,-0.00163155,-0.00094149,0.
 00028820,-0.20660066,0.09135531,0.09542686,-0.00001898,-0.00031154,-0.
 00082453,-0.00000278,0.00119475,0.00018622,-0.00002363,0.00000282,-0.0
 0004776,0.00009732,0.00008552,-0.00012489,0.00028319,0.00012605,0.0001
 9578,-0.00004186,0.00028333,-0.00032860,-0.01626554,0.01282724,0.01260
 829,0.00566531,-0.00389702,-0.00349266,0.21749645,0.00123400,0.0013110
 1,-0.00062649,0.02475160,-0.01339133,-0.01651719,0.08989014,-0.1002461
 2,-0.05514055,-0.00227910,-0.00668186,0.00304616,0.00005079,0.00147255
 ,0.00016686,-0.00005661,-0.00006404,0.00002675,-0.00010456,0.00038315,
 0.00028006,-0.00094575,-0.00032699,0.00018554,-0.00008586,0.00116782,0
 .00025529,-0.01171786,0.00834200,0.00935868,-0.00231459,0.00027832,0.0
 0114648,-0.09990236,0.10873264,-0.00020122,-0.00037496,0.00001009,-0.0
 0922304,0.00556591,0.00460267,0.09599177,-0.05647596,-0.10748897,0.000
 00832,0.00198188,-0.00030407,0.00007187,0.00008891,0.00012665,0.000140
 48,-0.00002046,-0.00006219,-0.00021513,-0.00001936,-0.00004791,-0.0000
 1769,-0.00029568,0.00014879,-0.00050102,-0.00041664,0.00065411,-0.0062
 4932,0.00469413,0.00347681,0.02444105,-0.01356896,-0.01120536,-0.10376
 330,0.05840098,0.10923927,0.00101512,0.00147853,-0.00036435,-0.0014290
 5,0.02458451,-0.00928703,-0.00484013,0.00139533,0.00327404,-0.05160082
 ,0.02232316,-0.00864119,-0.01064249,-0.04021329,0.00619853,0.00000940,
 -0.00004281,-0.00002846,-0.00075148,-0.00057853,0.00031454,0.00026813,
 -0.00022922,0.00006393,0.00088942,-0.00067102,0.00039868,0.00006710,0.
 00006198,0.00011059,0.00001218,-0.00029084,-0.00000686,-0.00005444,0.0
 0181541,-0.00034482,0.06453607,-0.00083074,0.00034668,0.00017012,0.001
 58420,-0.01465827,0.00722604,0.00277595,0.00012051,-0.00242720,0.02219
 608,-0.26582908,0.07056969,-0.01462741,-0.01674158,-0.00122909,0.00007
 693,-0.00002041,-0.00005377,0.00058708,0.00074468,-0.00001843,0.000065
 15,0.00043258,-0.00022524,-0.00054839,0.00040277,-0.00037239,-0.000273
 79,0.00042260,0.00005686,-0.00000075,0.00022453,0.00003600,0.00011302,
 -0.00097966,0.00022821,-0.01191117,0.29407068,-0.00059521,-0.00017749,
 0.00022113,0.00411332,-0.01440723,0.00457590,0.00189977,-0.00022472,-0
 .00049144,-0.00672357,0.07352821,-0.08267091,-0.00193778,-0.01123168,0
 .00726642,0.00010786,0.00013994,-0.00004290,-0.00013434,0.00020037,0.0
 0016477,-0.00016795,-0.00007373,-0.00014910,-0.00088642,-0.00008860,0.
 00090180,-0.00015648,0.00005314,-0.00007854,0.00021092,-0.00036485,0.0
 0032081,0.00010625,-0.00057594,0.00047233,0.00638514,-0.07472564,0.075
 17163,0.00163563,0.00023538,0.00090207,0.00108346,-0.00031094,0.027377
 96,0.00100111,-0.00124596,0.00010122,-0.04843231,0.00118652,-0.0043637
 2,-0.01107284,-0.00500326,-0.03784510,-0.00048274,-0.00004399,-0.00067
 696,-0.00004613,0.00000502,-0.00002897,0.00019083,0.00008541,-0.000293
 02,-0.00432360,0.00270111,0.00234788,-0.00006167,0.00022432,-0.0000515
 1,-0.00005483,0.00028243,-0.00062251,0.00003369,-0.00030305,-0.0001752
 6,0.00142271,0.00110305,-0.00291413,0.06401404,-0.00058270,0.00003734,
 0.00030294,0.00048306,0.00043821,-0.01569237,-0.00071841,0.00087537,-0
 .00141454,0.00240503,-0.05421957,0.01497073,-0.00651104,-0.00036831,-0
 .02182038,-0.00009232,0.00030132,0.00019650,0.00013718,0.00001772,0.00
 011376,-0.00007163,-0.00010818,0.00007715,0.00212189,-0.00057401,-0.00
 180474,-0.00005951,-0.00000196,-0.00001960,0.00030587,-0.00010379,0.00
 042095,-0.00008539,0.00013774,0.00025054,0.00159428,0.00144513,0.02932
 693,0.00439470,0.05330705,-0.00047447,-0.00012251,0.00040555,-0.000339
 04,0.00068152,-0.01415583,-0.00063332,0.00082083,0.00116710,-0.0146090
 2,0.00699762,-0.31263703,-0.00585189,-0.00314766,-0.00654582,0.0007543
 3,0.00026904,0.00036558,0.00001131,-0.00007660,-0.00003413,0.00015603,
 0.00000028,0.00039814,0.00231455,-0.00126749,0.00007843,0.00001345,0.0
 0004246,-0.00005846,0.00030023,-0.00087960,0.00030048,0.00002456,0.000
 08237,0.00034237,0.00042753,0.00007789,-0.00674136,0.01876321,-0.00267
 498,0.33519494,0.00006445,-0.00054727,0.00051643,0.00137621,0.00074535
 ,-0.00277398,-0.00021054,0.00040308,0.00014459,-0.00948647,-0.00231611
 ,-0.04315853,-0.03906802,-0.01885929,-0.02070108,0.00035330,0.00019726
 ,0.00032940,0.00001558,0.00009679,-0.00006197,0.00023395,0.00006196,0.
 00015161,-0.00100503,0.00003937,0.00170225,-0.00017232,0.00050655,-0.0
 0020172,0.00021748,-0.00020700,0.00028507,0.00018856,-0.00003218,0.000
 03730,0.00109827,-0.00030922,0.00069260,-0.00490736,-0.00332100,-0.000
 85746,0.05130195,0.00038499,-0.00012257,-0.00024632,0.00000491,0.00085
 366,0.00149767,0.00055842,0.00006591,-0.00004801,-0.00614984,-0.001642
 51,-0.02439014,-0.01519115,-0.01478973,0.02077708,-0.00000628,-0.00006
 497,-0.00000901,-0.00016913,-0.00024980,0.00000565,0.00007102,-0.00001
 000,0.00002344,-0.00009651,0.00044475,0.00014398,0.00011661,-0.0005655
 5,0.00040571,-0.00031949,-0.00013230,-0.00018043,-0.00011817,-0.000135
 23,-0.00003854,0.00068367,0.00001883,-0.00137869,-0.00331076,-0.001184
 07,-0.00080317,0.02354172,0.01751357,0.00072580,-0.00030223,-0.0002114
 9,0.00151437,0.00133966,0.00335058,-0.00022200,0.00001157,-0.00037469,
 0.00243082,0.00169801,-0.01258608,-0.06664722,-0.00625338,-0.49418539,
 0.00010709,-0.00001622,-0.00006463,-0.00005935,-0.00000374,0.00001125,
 0.00023520,0.00006930,0.00008402,-0.00088594,0.00045502,-0.00048353,-0
 .00026768,0.00035169,-0.00002923,0.00008500,0.00004448,0.00001819,0.00
 010988,-0.00008898,0.00003539,0.00149972,0.00068694,0.00107944,-0.0025
 2117,-0.00223290,0.00192004,0.06389549,0.00424077,0.50143613\\-0.00000
 006,-0.00000098,-0.00000056,-0.00000142,0.00000093,0.00000064,-0.00000
 021,-0.00000065,0.00000108,0.00000334,0.00000082,-0.00000064,-0.000002
 40,-0.00000071,-0.00000043,0.00000003,0.00000023,-0.00000005,0.0000002
 4,-0.00000019,-0.00000080,0.00000046,-0.00000070,-0.00000012,0.0000005
 1,-0.00000059,-0.00000031,-0.00000037,0.00000045,0.00000078,-0.0000001
 5,0.00000048,0.00000108,0.,-0.00000021,0.00000097,0.00000013,0.0000000
 1,-0.00000085,-0.00000025,0.00000101,-0.00000028,0.00000015,0.00000010
 ,-0.00000051\\\@


 A people that values its privileges above its principles soon loses both.
 -- Dwight D. Eisenhower
 File lengths (MBytes):  RWF=     19 Int=      0 D2E=      0 Chk=      2 Scr=      1
 Normal termination of Gaussian 16 at Fri Mar 29 15:37:48 2024.
real 239.52
user 818.45
sys 9.79
