 Entering Gaussian System, Link 0=g16
 Input=gaussian_test.inp
 Output=gaussian_test.log
 Initial command:
 /sw/restricted/lms/sw/Gaussian/g16_B01/g16/l1.exe "/scratch/user/peterchao1/peterchao1/9993844_1712002034000000120060021/Gau-147414.inp" -scrdir="/scratch/user/peterchao1/peterchao1/9993844_1712002034000000120060021/"
 Entering Link 1 = /sw/restricted/lms/sw/Gaussian/g16_B01/g16/l1.exe PID=    147416.
  
 Copyright (c) 1988-2017, Gaussian, Inc.  All Rights Reserved.
  
 This is part of the Gaussian(R) 16 program.  It is based on
 the Gaussian(R) 09 system (copyright 2009, Gaussian, Inc.),
 the Gaussian(R) 03 system (copyright 2003, Gaussian, Inc.),
 the Gaussian(R) 98 system (copyright 1998, Gaussian, Inc.),
 the Gaussian(R) 94 system (copyright 1995, Gaussian, Inc.),
 the Gaussian 92(TM) system (copyright 1992, Gaussian, Inc.),
 the Gaussian 90(TM) system (copyright 1990, Gaussian, Inc.),
 the Gaussian 88(TM) system (copyright 1988, Gaussian, Inc.),
 the Gaussian 86(TM) system (copyright 1986, Carnegie Mellon
 University), and the Gaussian 82(TM) system (copyright 1983,
 Carnegie Mellon University). Gaussian is a federally registered
 trademark of Gaussian, Inc.
  
 This software contains proprietary and confidential information,
 including trade secrets, belonging to Gaussian, Inc.
  
 This software is provided under written license and may be
 used, copied, transmitted, or stored only in accord with that
 written license.
  
 The following legend is applicable only to US Government
 contracts under FAR:
  
                    RESTRICTED RIGHTS LEGEND
  
 Use, reproduction and disclosure by the US Government is
 subject to restrictions as set forth in subparagraphs (a)
 and (c) of the Commercial Computer Software - Restricted
 Rights clause in FAR 52.227-19.
  
 Gaussian, Inc.
 340 Quinnipiac St., Bldg. 40, Wallingford CT 06492
  
  
 ---------------------------------------------------------------
 Warning -- This program may not be used in any manner that
 competes with the business of Gaussian, Inc. or will provide
 assistance to any competitor of Gaussian, Inc.  The licensee
 of this program is prohibited from giving any competitor of
 Gaussian, Inc. access to this program.  By using this program,
 the user acknowledges that Gaussian, Inc. is engaged in the
 business of creating and licensing software in the field of
 computational chemistry and represents and warrants to the
 licensee that it is not a competitor of Gaussian, Inc. and that
 it will not use this program in any manner prohibited above.
 ---------------------------------------------------------------
  

 Cite this work as:
 Gaussian 16, Revision B.01,
 M. J. Frisch, G. W. Trucks, H. B. Schlegel, G. E. Scuseria, 
 M. A. Robb, J. R. Cheeseman, G. Scalmani, V. Barone, 
 G. A. Petersson, H. Nakatsuji, X. Li, M. Caricato, A. V. Marenich, 
 J. Bloino, B. G. Janesko, R. Gomperts, B. Mennucci, H. P. Hratchian, 
 J. V. Ortiz, A. F. Izmaylov, J. L. Sonnenberg, D. Williams-Young, 
 F. Ding, F. Lipparini, F. Egidi, J. Goings, B. Peng, A. Petrone, 
 T. Henderson, D. Ranasinghe, V. G. Zakrzewski, J. Gao, N. Rega, 
 G. Zheng, W. Liang, M. Hada, M. Ehara, K. Toyota, R. Fukuda, 
 J. Hasegawa, M. Ishida, T. Nakajima, Y. Honda, O. Kitao, H. Nakai, 
 T. Vreven, K. Throssell, J. A. Montgomery, Jr., J. E. Peralta, 
 F. Ogliaro, M. J. Bearpark, J. J. Heyd, E. N. Brothers, K. N. Kudin, 
 V. N. Staroverov, T. A. Keith, R. Kobayashi, J. Normand, 
 K. Raghavachari, A. P. Rendell, J. C. Burant, S. S. Iyengar, 
 J. Tomasi, M. Cossi, J. M. Millam, M. Klene, C. Adamo, R. Cammi, 
 J. W. Ochterski, R. L. Martin, K. Morokuma, O. Farkas, 
 J. B. Foresman, and D. J. Fox, Gaussian, Inc., Wallingford CT, 2016.
 
 ******************************************
 Gaussian 16:  ES64L-G16RevB.01 20-Dec-2017
                 1-Apr-2024 
 ******************************************
 %nprocshared=4
 Will use up to    4 processors via shared memory.
 %mem=8000mb
 %chk=dimer.chk
 %nprocshared=4
 Will use up to    4 processors via shared memory.
 %mem=8000mb
 ----------------------------------------------------------------------
 #T wB97XD/def2svpp opt=tight freq int(grid=ultrafine) scf=(verytight,q
 c) Volume=tight
 ----------------------------------------------------------------------
 -----
 Dimer
 -----
 Symbolic Z-matrix:
 Charge =  0 Multiplicity = 1
 C                     3.9411    0.68575   1.25937 
 C                     3.44452  -0.03301   0.00055 
 C                     3.94206   0.6824   -1.25986 
 N                     3.95332  -1.39156   0.00245 
 C                     1.91052   0.00286  -0.0004 
 O                     1.3968    1.20208  -0.00113 
 O                     1.24727  -1.02194  -0.00093 
 H                     3.56604   0.19028   2.15272 
 H                     3.60454   1.71825   1.26067 
 H                     5.02663   0.65596   1.2765 
 H                     5.02762   0.65345  -1.27559 
 H                     3.60461   1.71461  -1.26467 
 H                     3.56851   0.18382  -2.15211 
 H                     3.61752  -1.89408  -0.81245 
 H                     3.62012  -1.8909    0.82036 
 H                     0.38831   1.19109  -0.00187 
 C                    -3.93974  -0.68222   1.26194 
 C                    -3.44453   0.03301   0.00049 
 C                    -3.9436   -0.68581  -1.25731 
 N                    -3.95308   1.39163  -0.00047 
 C                    -1.91052  -0.00294  -0.00119 
 O                    -1.39685  -1.20216  -0.00146 
 O                    -1.24727   1.02188  -0.00176 
 H                    -3.6036   -1.71484   1.26562 
 H                    -5.02521  -0.65192   1.28042 
 H                    -3.56336  -0.18442   2.15342 
 H                    -5.02916  -0.65581  -1.27241 
 H                    -3.6072   -1.71837  -1.25915 
 H                    -3.57009  -0.19042  -2.15137 
 H                    -3.62137   1.89096  -0.819 
 H                    -3.61574   1.89411   0.81385 
 H                    -0.38836  -1.19125  -0.00149 
 
 Add virtual bond connecting atoms O23        and H16        Dist= 3.11D+00.
 Add virtual bond connecting atoms H32        and O7         Dist= 3.11D+00.

 GradGradGradGradGradGradGradGradGradGradGradGradGradGradGradGradGradGrad
 Initialization pass.
                           ----------------------------
                           !    Initial Parameters    !
                           ! (Angstroms and Degrees)  !
 --------------------------                            --------------------------
 ! Name  Definition              Value          Derivative Info.                !
 --------------------------------------------------------------------------------
 ! R1    R(1,2)                  1.5323         estimate D2E/DX2                !
 ! R2    R(1,8)                  1.0882         estimate D2E/DX2                !
 ! R3    R(1,9)                  1.086          estimate D2E/DX2                !
 ! R4    R(1,10)                 1.0861         estimate D2E/DX2                !
 ! R5    R(2,3)                  1.5323         estimate D2E/DX2                !
 ! R6    R(2,4)                  1.4507         estimate D2E/DX2                !
 ! R7    R(2,5)                  1.5344         estimate D2E/DX2                !
 ! R8    R(3,11)                 1.0861         estimate D2E/DX2                !
 ! R9    R(3,12)                 1.086          estimate D2E/DX2                !
 ! R10   R(3,13)                 1.0882         estimate D2E/DX2                !
 ! R11   R(4,14)                 1.0146         estimate D2E/DX2                !
 ! R12   R(4,15)                 1.0146         estimate D2E/DX2                !
 ! R13   R(5,6)                  1.3046         estimate D2E/DX2                !
 ! R14   R(5,7)                  1.2207         estimate D2E/DX2                !
 ! R15   R(6,16)                 1.0086         estimate D2E/DX2                !
 ! R16   R(7,32)                 1.6444         estimate D2E/DX2                !
 ! R17   R(16,23)                1.6443         estimate D2E/DX2                !
 ! R18   R(17,18)                1.5323         estimate D2E/DX2                !
 ! R19   R(17,24)                1.086          estimate D2E/DX2                !
 ! R20   R(17,25)                1.0861         estimate D2E/DX2                !
 ! R21   R(17,26)                1.0882         estimate D2E/DX2                !
 ! R22   R(18,19)                1.5323         estimate D2E/DX2                !
 ! R23   R(18,20)                1.4507         estimate D2E/DX2                !
 ! R24   R(18,21)                1.5344         estimate D2E/DX2                !
 ! R25   R(19,27)                1.0861         estimate D2E/DX2                !
 ! R26   R(19,28)                1.086          estimate D2E/DX2                !
 ! R27   R(19,29)                1.0882         estimate D2E/DX2                !
 ! R28   R(20,30)                1.0146         estimate D2E/DX2                !
 ! R29   R(20,31)                1.0146         estimate D2E/DX2                !
 ! R30   R(21,22)                1.3046         estimate D2E/DX2                !
 ! R31   R(21,23)                1.2207         estimate D2E/DX2                !
 ! R32   R(22,32)                1.0086         estimate D2E/DX2                !
 ! A1    A(2,1,8)              110.4355         estimate D2E/DX2                !
 ! A2    A(2,1,9)              110.2753         estimate D2E/DX2                !
 ! A3    A(2,1,10)             108.9056         estimate D2E/DX2                !
 ! A4    A(8,1,9)              108.9713         estimate D2E/DX2                !
 ! A5    A(8,1,10)             108.6047         estimate D2E/DX2                !
 ! A6    A(9,1,10)             109.6226         estimate D2E/DX2                !
 ! A7    A(1,2,3)              110.5805         estimate D2E/DX2                !
 ! A8    A(1,2,4)              108.938          estimate D2E/DX2                !
 ! A9    A(1,2,5)              108.2721         estimate D2E/DX2                !
 ! A10   A(3,2,4)              108.931          estimate D2E/DX2                !
 ! A11   A(3,2,5)              108.2513         estimate D2E/DX2                !
 ! A12   A(4,2,5)              111.8715         estimate D2E/DX2                !
 ! A13   A(2,3,11)             108.9058         estimate D2E/DX2                !
 ! A14   A(2,3,12)             110.2744         estimate D2E/DX2                !
 ! A15   A(2,3,13)             110.4291         estimate D2E/DX2                !
 ! A16   A(11,3,12)            109.6252         estimate D2E/DX2                !
 ! A17   A(11,3,13)            108.6037         estimate D2E/DX2                !
 ! A18   A(12,3,13)            108.9767         estimate D2E/DX2                !
 ! A19   A(2,4,14)             110.2858         estimate D2E/DX2                !
 ! A20   A(2,4,15)             110.2908         estimate D2E/DX2                !
 ! A21   A(14,4,15)            107.1601         estimate D2E/DX2                !
 ! A22   A(2,5,6)              114.529          estimate D2E/DX2                !
 ! A23   A(2,5,7)              121.5711         estimate D2E/DX2                !
 ! A24   A(6,5,7)              123.9            estimate D2E/DX2                !
 ! A25   A(5,6,16)             112.5649         estimate D2E/DX2                !
 ! A26   A(5,7,32)             128.8205         estimate D2E/DX2                !
 ! A27   A(18,17,24)           110.2786         estimate D2E/DX2                !
 ! A28   A(18,17,25)           108.9041         estimate D2E/DX2                !
 ! A29   A(18,17,26)           110.4325         estimate D2E/DX2                !
 ! A30   A(24,17,25)           109.6237         estimate D2E/DX2                !
 ! A31   A(24,17,26)           108.9742         estimate D2E/DX2                !
 ! A32   A(25,17,26)           108.6018         estimate D2E/DX2                !
 ! A33   A(17,18,19)           110.5813         estimate D2E/DX2                !
 ! A34   A(17,18,20)           108.9284         estimate D2E/DX2                !
 ! A35   A(17,18,21)           108.2429         estimate D2E/DX2                !
 ! A36   A(19,18,20)           108.9437         estimate D2E/DX2                !
 ! A37   A(19,18,21)           108.284          estimate D2E/DX2                !
 ! A38   A(20,18,21)           111.864          estimate D2E/DX2                !
 ! A39   A(18,19,27)           108.9052         estimate D2E/DX2                !
 ! A40   A(18,19,28)           110.2765         estimate D2E/DX2                !
 ! A41   A(18,19,29)           110.4298         estimate D2E/DX2                !
 ! A42   A(27,19,28)           109.6247         estimate D2E/DX2                !
 ! A43   A(27,19,29)           108.6064         estimate D2E/DX2                !
 ! A44   A(28,19,29)           108.9726         estimate D2E/DX2                !
 ! A45   A(18,20,30)           110.294          estimate D2E/DX2                !
 ! A46   A(18,20,31)           110.2882         estimate D2E/DX2                !
 ! A47   A(30,20,31)           107.1623         estimate D2E/DX2                !
 ! A48   A(18,21,22)           114.5297         estimate D2E/DX2                !
 ! A49   A(18,21,23)           121.568          estimate D2E/DX2                !
 ! A50   A(22,21,23)           123.9023         estimate D2E/DX2                !
 ! A51   A(21,22,32)           112.567          estimate D2E/DX2                !
 ! A52   A(16,23,21)           128.817          estimate D2E/DX2                !
 ! A53   L(6,16,23,7,-1)       174.718          estimate D2E/DX2                !
 ! A54   L(7,32,22,23,-1)      174.7105         estimate D2E/DX2                !
 ! A55   L(6,16,23,7,-2)       179.9533         estimate D2E/DX2                !
 ! A56   L(7,32,22,23,-2)      180.0232         estimate D2E/DX2                !
 ! D1    D(8,1,2,3)            178.5936         estimate D2E/DX2                !
 ! D2    D(8,1,2,4)            -61.7225         estimate D2E/DX2                !
 ! D3    D(8,1,2,5)             60.1511         estimate D2E/DX2                !
 ! D4    D(9,1,2,3)             58.0968         estimate D2E/DX2                !
 ! D5    D(9,1,2,4)            177.7806         estimate D2E/DX2                !
 ! D6    D(9,1,2,5)            -60.3457         estimate D2E/DX2                !
 ! D7    D(10,1,2,3)           -62.2307         estimate D2E/DX2                !
 ! D8    D(10,1,2,4)            57.4532         estimate D2E/DX2                !
 ! D9    D(10,1,2,5)           179.3268         estimate D2E/DX2                !
 ! D10   D(1,2,3,11)            62.1737         estimate D2E/DX2                !
 ! D11   D(1,2,3,12)           -58.1566         estimate D2E/DX2                !
 ! D12   D(1,2,3,13)          -178.6555         estimate D2E/DX2                !
 ! D13   D(4,2,3,11)           -57.5144         estimate D2E/DX2                !
 ! D14   D(4,2,3,12)          -177.8447         estimate D2E/DX2                !
 ! D15   D(4,2,3,13)            61.6564         estimate D2E/DX2                !
 ! D16   D(5,2,3,11)          -179.3711         estimate D2E/DX2                !
 ! D17   D(5,2,3,12)            60.2986         estimate D2E/DX2                !
 ! D18   D(5,2,3,13)           -60.2003         estimate D2E/DX2                !
 ! D19   D(1,2,4,14)           178.6154         estimate D2E/DX2                !
 ! D20   D(1,2,4,15)            60.4495         estimate D2E/DX2                !
 ! D21   D(3,2,4,14)           -60.6825         estimate D2E/DX2                !
 ! D22   D(3,2,4,15)          -178.8484         estimate D2E/DX2                !
 ! D23   D(5,2,4,14)            58.9512         estimate D2E/DX2                !
 ! D24   D(5,2,4,15)           -59.2147         estimate D2E/DX2                !
 ! D25   D(1,2,5,6)             59.8977         estimate D2E/DX2                !
 ! D26   D(1,2,5,7)           -120.1292         estimate D2E/DX2                !
 ! D27   D(3,2,5,6)            -60.0153         estimate D2E/DX2                !
 ! D28   D(3,2,5,7)            119.9578         estimate D2E/DX2                !
 ! D29   D(4,2,5,6)            179.9524         estimate D2E/DX2                !
 ! D30   D(4,2,5,7)             -0.0745         estimate D2E/DX2                !
 ! D31   D(2,5,6,16)           179.9919         estimate D2E/DX2                !
 ! D32   D(7,5,6,16)             0.0196         estimate D2E/DX2                !
 ! D33   D(2,5,7,32)           179.979          estimate D2E/DX2                !
 ! D34   D(6,5,7,32)            -0.0505         estimate D2E/DX2                !
 ! D35   D(5,6,23,21)            0.0143         estimate D2E/DX2                !
 ! D36   D(5,7,22,21)            0.0061         estimate D2E/DX2                !
 ! D37   D(24,17,18,19)         58.0789         estimate D2E/DX2                !
 ! D38   D(24,17,18,20)        177.7729         estimate D2E/DX2                !
 ! D39   D(24,17,18,21)        -60.3861         estimate D2E/DX2                !
 ! D40   D(25,17,18,19)        -62.251          estimate D2E/DX2                !
 ! D41   D(25,17,18,20)         57.443          estimate D2E/DX2                !
 ! D42   D(25,17,18,21)        179.284          estimate D2E/DX2                !
 ! D43   D(26,17,18,19)        178.5796         estimate D2E/DX2                !
 ! D44   D(26,17,18,20)        -61.7264         estimate D2E/DX2                !
 ! D45   D(26,17,18,21)         60.1145         estimate D2E/DX2                !
 ! D46   D(17,18,19,27)         62.2354         estimate D2E/DX2                !
 ! D47   D(17,18,19,28)        -58.095          estimate D2E/DX2                !
 ! D48   D(17,18,19,29)       -178.5905         estimate D2E/DX2                !
 ! D49   D(20,18,19,27)        -57.4494         estimate D2E/DX2                !
 ! D50   D(20,18,19,28)       -177.7798         estimate D2E/DX2                !
 ! D51   D(20,18,19,29)         61.7247         estimate D2E/DX2                !
 ! D52   D(21,18,19,27)       -179.3245         estimate D2E/DX2                !
 ! D53   D(21,18,19,28)         60.345          estimate D2E/DX2                !
 ! D54   D(21,18,19,29)        -60.1505         estimate D2E/DX2                !
 ! D55   D(17,18,20,30)        178.8433         estimate D2E/DX2                !
 ! D56   D(17,18,20,31)         60.6711         estimate D2E/DX2                !
 ! D57   D(19,18,20,30)        -60.4518         estimate D2E/DX2                !
 ! D58   D(19,18,20,31)       -178.6239         estimate D2E/DX2                !
 ! D59   D(21,18,20,30)         59.2263         estimate D2E/DX2                !
 ! D60   D(21,18,20,31)        -58.9458         estimate D2E/DX2                !
 ! D61   D(17,18,21,22)         60.031          estimate D2E/DX2                !
 ! D62   D(17,18,21,23)       -119.9466         estimate D2E/DX2                !
 ! D63   D(19,18,21,22)        -59.8849         estimate D2E/DX2                !
 ! D64   D(19,18,21,23)        120.1374         estimate D2E/DX2                !
 ! D65   D(20,18,21,22)       -179.9499         estimate D2E/DX2                !
 ! D66   D(20,18,21,23)          0.0725         estimate D2E/DX2                !
 ! D67   D(18,21,22,32)       -179.934          estimate D2E/DX2                !
 ! D68   D(23,21,22,32)          0.0431         estimate D2E/DX2                !
 ! D69   D(18,21,23,16)        179.9266         estimate D2E/DX2                !
 ! D70   D(22,21,23,16)         -0.0489         estimate D2E/DX2                !
 --------------------------------------------------------------------------------
 Number of steps in this run=    168 maximum allowed number of steps=    192.
 GradGradGradGradGradGradGradGradGradGradGradGradGradGradGradGradGradGrad

                    Distance matrix (angstroms):
                    1          2          3          4          5
     1  C    0.000000
     2  C    1.532270   0.000000
     3  C    2.519235   1.532316   0.000000
     4  N    2.428003   1.450695   2.427935   0.000000
     5  C    2.485281   1.534423   2.484992   2.473345   0.000000
     6  O    2.885986   2.391360   2.886658   3.641800   1.304614
     7  O    3.429476   2.409544   3.428061   2.731176   1.220707
     8  H    1.088229   2.167139   3.468330   2.697377   2.722466
     9  H    1.085965   2.163428   2.745898   3.372776   2.720763
    10  H    1.086072   2.146115   2.758647   2.639605   3.430329
    11  H    2.758187   2.146149   1.086059   2.639994   3.430116
    12  H    2.746371   2.163463   1.085971   3.372747   2.719999
    13  H    3.468276   2.167095   1.088223   2.696664   2.722410
    14  H    3.324556   2.038248   2.635100   1.014573   2.677995
    15  H    2.633415   2.038299   3.324582   1.014563   2.680058
    16  H    3.803737   3.292241   3.804002   4.402196   1.931060
    17  C    7.998691   7.519306   8.387164   8.024331   6.023986
    18  C    7.520534   6.889370   7.521431   7.533762   5.355135
    19  C    8.389477   7.522808   8.003474   8.027846   6.027002
    20  N    8.025181   7.533533   8.026351   8.381960   6.025816
    21  C    6.025349   5.355131   6.025505   6.026020   3.821048
    22  O    5.800662   4.980546   5.799929   5.353524   3.520057
    23  O    5.350014   4.808922   5.350442   5.733308   3.318138
    24  H    7.917406   7.355605   8.310341   7.668576   5.912594
    25  H    9.065573   8.588221   9.415171   9.099136   7.083334
    26  H    7.607465   7.332684   8.290553   7.911026   5.885354
    27  H    9.416753   8.591364   9.070486   9.102276   7.085969
    28  H    8.312614   7.358940   7.921805   7.672016   5.915427
    29  H    8.295709   7.338956   7.615050   7.917278   5.890762
    30  H    7.934928   7.368861   7.672052   8.296116   5.902269
    31  H    7.665802   7.363601   7.930253   8.291239   5.897406
    32  H    4.884372   4.004055   4.883293   4.346293   2.590506
                    6          7          8          9         10
     6  O    0.000000
     7  O    2.229039   0.000000
     8  H    3.220006   3.388866   0.000000
     9  H    2.594744   3.828448   1.769728   0.000000
    10  H    3.886675   4.327903   1.765767   1.775116   0.000000
    11  H    3.886909   4.326979   3.755539   3.097021   2.552096
    12  H    2.594925   3.826590   3.742145   2.525342   3.098457
    13  H    3.221776   3.386674   4.304835   3.742030   3.755581
    14  H    3.895636   2.652784   3.624838   4.164959   3.584970
    15  H    3.896727   2.657072   2.471720   3.635936   2.944962
    16  H    1.008552   2.373879   3.967605   3.495149   4.840931
    17  C    5.798676   5.349333   7.608651   7.916976   9.065692
    18  C    4.980484   4.808943   7.335190   7.356462   8.589345
    19  C    5.801892   5.351313   8.294006   8.312288   9.417298
    20  N    5.353238   5.733146   7.913070   7.669081   9.099837
    21  C    3.520010   3.318137   5.888077   5.913606   7.084543
    22  O    3.685768   2.650258   5.586567   5.927541   6.807858
    23  O    2.650207   3.224894   5.338666   5.061498   6.413243
    24  H    5.925962   5.061142   7.471287   7.983945   8.949948
    25  H    6.806024   6.412707   8.676399   8.949347  10.136573
    26  H    5.582805   5.337121   7.139247   7.469676   8.675437
    27  H    6.808880   6.414377   9.291117   9.305559  10.456411
    28  H    5.928880   5.063000   8.169406   8.376695   9.306445
    29  H    5.588611   5.340668   8.342332   8.170702   9.293558
    30  H    5.130837   5.732177   7.961303   7.521213   8.983552
    31  H    5.125302   5.728536   7.501579   7.236237   8.742864
    32  H    2.985763   1.644364   4.710257   5.099162   5.862380
                   11         12         13         14         15
    11  H    0.000000
    12  H    1.775138   0.000000
    13  H    1.765740   1.769788   0.000000
    14  H    2.948352   3.636928   2.472796   0.000000
    15  H    3.584379   4.165002   3.625281   1.632819   0.000000
    16  H    4.840929   3.494757   3.968847   4.539058   4.540846
    17  C    9.414706   8.309382   8.293346   7.929938   7.668602
    18  C    8.590149   7.356548   7.337515   7.365263   7.367696
    19  C    9.070648   7.920700   7.615027   7.669957   7.935916
    20  N    9.100758   7.669499   7.915974   8.292716   8.294704
    21  C    7.084687   5.912958   5.889069   5.898628   5.901472
    22  O    6.807391   5.926036   5.585790   5.126439   5.130281
    23  O    6.413473   5.061184   5.340232   5.729416   5.731637
    24  H    9.304001   8.373871   8.168528   7.516317   7.239569
    25  H   10.454503   9.303323   9.291542   8.978857   8.745772
    26  H    9.287902   8.165140   8.338870   7.955148   7.502771
    27  H   10.141643   8.953262   8.683242   8.746990   8.984160
    28  H    8.954655   7.987209   7.477060   7.240643   7.522517
    29  H    8.683299   7.476074   7.148400   7.507117   7.963786
    30  H    8.748991   7.241856   7.509048   8.168721   8.332413
    31  H    8.978458   7.515717   7.958359   8.325581   8.166031
    32  H    5.861656   5.097389   4.708790   4.147125   4.151245
                   16         17         18         19         20
    16  H    0.000000
    17  C    4.882473   0.000000
    18  C    4.003975   1.532339   0.000000
    19  C    4.885108   2.519259   1.532262   0.000000
    20  N    4.346019   2.427902   1.450678   2.428070   0.000000
    21  C    2.590432   2.484884   1.534429   2.485466   2.473228
    22  O    2.985709   2.886662   2.391370   2.886119   3.641712
    23  O    1.644312   3.427871   2.409526   3.429691   2.730954
    24  H    5.097671   1.085960   2.163527   2.745848   3.372724
    25  H    5.860648   1.086050   2.146140   2.758825   2.639366
    26  H    4.706701   1.088205   2.167144   3.468290   2.697228
    27  H    5.862956   2.758706   2.146109   1.086080   2.639663
    28  H    5.099976   2.745928   2.163444   1.085975   3.372838
    29  H    4.711457   3.468313   2.167064   1.088234   2.697401
    30  H    4.151510   3.324598   2.038334   2.633572   1.014577
    31  H    4.146335   2.635001   2.038273   3.324635   1.014589
    32  H    2.505737   3.803649   3.292269   3.804245   4.402104
                   21         22         23         24         25
    21  C    0.000000
    22  O    1.304607   0.000000
    23  O    1.220720   2.229068   0.000000
    24  H    2.720642   2.595773   3.827289   0.000000
    25  H    3.430012   3.887283   4.326481   1.775106   0.000000
    26  H    2.721606   3.220723   3.385888   1.769737   1.765697
    27  H    3.430469   3.886829   4.328032   3.097637   2.552834
    28  H    2.721006   2.594971   3.828739   2.524780   3.097984
    29  H    2.722605   3.220043   3.389097   3.741761   3.755999
    30  H    2.680048   3.896698   2.656975   4.165063   3.583938
    31  H    2.677845   3.895525   2.652483   3.637134   2.947299
    32  H    1.931082   1.008558   2.373956   3.495355   4.840933
                   26         27         28         29         30
    26  H    0.000000
    27  H    3.755935   0.000000
    28  H    3.741731   1.775154   0.000000
    29  H    4.304795   1.765796   1.769756   0.000000
    30  H    3.625723   2.945083   3.636096   2.471840   0.000000
    31  H    2.473354   3.585015   4.165024   3.624900   1.632867
    32  H    3.967118   4.841379   3.495783   3.968252   4.541001
                   31         32
    31  H    0.000000
    32  H    4.538750   0.000000
 Framework group  C1[X(C8H18N2O4)]
 Deg. of freedom    90
                         Standard orientation:                         
 ---------------------------------------------------------------------
 Center     Atomic      Atomic             Coordinates (Angstroms)
 Number     Number       Type             X           Y           Z
 ---------------------------------------------------------------------
      1          6           0       -3.945878   -0.657713    1.259313
      2          6           0       -3.444201    0.057502    0.000488
      3          6           0       -3.946813   -0.654360   -1.259920
      4          7           0       -3.943325    1.419628    0.002392
      5          6           0       -1.910492    0.010722   -0.000458
      6          8           0       -1.405314   -1.192114   -0.001191
      7          8           0       -1.239973    1.030785   -0.000990
      8          1           0       -3.567306   -0.164917    2.152665
      9          1           0       -3.616670   -1.692575    1.260610
     10          1           0       -5.031167   -0.620202    1.276445
     11          1           0       -5.032139   -0.617690   -1.275649
     12          1           0       -3.616711   -1.688933   -1.264730
     13          1           0       -3.569726   -0.158443   -2.152164
     14          1           0       -3.603962    1.919749   -0.812512
     15          1           0       -3.606587    1.916588    0.820301
     16          1           0       -0.396770   -1.188293   -0.001931
     17          6           0        3.944493    0.654192    1.261883
     18          6           0        3.444209   -0.057500    0.000427
     19          6           0        3.948371    0.657758   -1.257370
     20          7           0        3.943084   -1.419701   -0.000525
     21          6           0        1.910496   -0.010643   -0.001247
     22          8           0        1.405364    1.192204   -0.001518
     23          8           0        1.239974   -1.030720   -0.001819
     24          1           0        3.615696    1.689175    1.265562
     25          1           0        5.029721    0.616180    1.280359
     26          1           0        3.564585    0.159085    2.153358
     27          1           0        5.033691    0.620043   -1.272469
     28          1           0        3.619321    1.692681   -1.259213
     29          1           0        3.571351    0.165040   -2.151428
     30          1           0        3.607830   -1.916658   -0.819063
     31          1           0        3.602185   -1.919768    0.813792
     32          1           0        0.396814    1.188457   -0.001554
 ---------------------------------------------------------------------
 Rotational constants (GHZ):           1.6963864           0.2480836           0.2390610
   232 basis functions,   422 primitive gaussians,   246 cartesian basis functions
    56 alpha electrons       56 beta electrons
       nuclear repulsion energy       974.0866329521 Hartrees.
 NAtoms=   32 NActive=   32 NUniq=   32 SFac= 1.00D+00 NAtFMM=   60 NAOKFM=F Big=F
 Nuclear repulsion after empirical dispersion term =      974.0662155337 Hartrees.
   1 Symmetry operations used in ECPInt.
 ECPInt:  NShTT=    7260 NPrTT=   29156 LenC2=    6689 LenP2D=   18816.
 LDataN:  DoStor=T MaxTD1= 4 Len=   56
 ExpMin= 1.22D-01 ExpMax= 2.27D+03 ExpMxC= 3.41D+02 IAcc=3 IRadAn=         5 AccDes= 0.00D+00
 Harris functional with IExCor= 4639 and IRadAn=       5 diagonalized for initial guess.
 HarFok:  IExCor= 4639 AccDes= 0.00D+00 IRadAn=         5 IDoV= 1 UseB2=F ITyADJ=14
 ICtDFT=  3500011 ScaDFX=  1.000000  1.000000  1.000000  1.000000
 FoFCou: FMM=F IPFlag=           0 FMFlag=      100000 FMFlg1=           0
         NFxFlg=           0 DoJE=T BraDBF=F KetDBF=T FulRan=T
         wScrn=  0.000000 ICntrl=       500 IOpCl=  0 I1Cent=   200000004 NGrid=           0
         NMat0=    1 NMatS0=      1 NMatT0=    0 NMatD0=    1 NMtDS0=    0 NMtDT0=    0
 Petite list used in FoFCou.
     Accept linear search using points  2 and  3.
     Minimum is close to point  2 DX=  4.86D-02 DF= -6.04D-06 DXR=  6.49D-02 DFR=  4.23D-03 which will be used.
     Accept linear search using points  1 and  2.
     Minimum is close to point  2 DX=  2.23D-04 DF= -1.02D-12 DXR=  2.23D-04 DFR=  4.62D-08 which will be used.
 SCF Done:  E(RwB97XD) =  -725.351873966     a.u. after    8 cycles
            Convg  =    0.5836D-09                    36 Fock formations.
              S**2 =  0.0000                  -V/T =  2.0084

 **********************************************************************

            Population analysis using the SCF Density.

 **********************************************************************

 Orbital symmetries:
       Occupied  (A) (A) (A) (A) (A) (A) (A) (A) (A) (A) (A) (A)
                 (A) (A) (A) (A) (A) (A) (A) (A) (A) (A) (A) (A)
                 (A) (A) (A) (A) (A) (A) (A) (A) (A) (A) (A) (A)
                 (A) (A) (A) (A) (A) (A) (A) (A) (A) (A) (A) (A)
                 (A) (A) (A) (A) (A) (A) (A) (A)
       Virtual   (A) (A) (A) (A) (A) (A) (A) (A) (A) (A) (A) (A)
                 (A) (A) (A) (A) (A) (A) (A) (A) (A) (A) (A) (A)
                 (A) (A) (A) (A) (A) (A) (A) (A) (A) (A) (A) (A)
                 (A) (A) (A) (A) (A) (A) (A) (A) (A) (A) (A) (A)
                 (A) (A) (A) (A) (A) (A) (A) (A) (A) (A) (A) (A)
                 (A) (A) (A) (A) (A) (A) (A) (A) (A) (A) (A) (A)
                 (A) (A) (A) (A) (A) (A) (A) (A) (A) (A) (A) (A)
                 (A) (A) (A) (A) (A) (A) (A) (A) (A) (A) (A) (A)
                 (A) (A) (A) (A) (A) (A) (A) (A) (A) (A) (A) (A)
                 (A) (A) (A) (A) (A) (A) (A) (A) (A) (A) (A) (A)
                 (A) (A) (A) (A) (A) (A) (A) (A) (A) (A) (A) (A)
                 (A) (A) (A) (A) (A) (A) (A) (A) (A) (A) (A) (A)
                 (A) (A) (A) (A) (A) (A) (A) (A) (A) (A) (A) (A)
                 (A) (A) (A) (A) (A) (A) (A) (A) (A) (A) (A) (A)
                 (A) (A) (A) (A) (A) (A) (A) (A)
 The electronic state is 1-A.
 Alpha  occ. eigenvalues --  -19.29693 -19.29691 -19.26404 -19.26401 -14.41568
 Alpha  occ. eigenvalues --  -14.41567 -10.43705 -10.43705 -10.34588 -10.34587
 Alpha  occ. eigenvalues --  -10.28549 -10.28549 -10.28546 -10.28546  -1.21647
 Alpha  occ. eigenvalues --   -1.20493  -1.12220  -1.10919  -0.99439  -0.99342
 Alpha  occ. eigenvalues --   -0.86332  -0.86149  -0.79196  -0.79195  -0.76604
 Alpha  occ. eigenvalues --   -0.74238  -0.67964  -0.66564  -0.61156  -0.60430
 Alpha  occ. eigenvalues --   -0.59919  -0.58655  -0.58556  -0.57573  -0.55350
 Alpha  occ. eigenvalues --   -0.54790  -0.53957  -0.53587  -0.52964  -0.49087
 Alpha  occ. eigenvalues --   -0.47892  -0.47776  -0.47295  -0.47271  -0.46761
 Alpha  occ. eigenvalues --   -0.46561  -0.44940  -0.44801  -0.43057  -0.43011
 Alpha  occ. eigenvalues --   -0.42102  -0.41154  -0.38214  -0.37096  -0.32898
 Alpha  occ. eigenvalues --   -0.32530
 Alpha virt. eigenvalues --    0.07673   0.08110   0.13148   0.13682   0.18086
 Alpha virt. eigenvalues --    0.18519   0.18839   0.18848   0.20192   0.20197
 Alpha virt. eigenvalues --    0.20573   0.20906   0.21638   0.21640   0.22025
 Alpha virt. eigenvalues --    0.24372   0.25728   0.25741   0.26029   0.27215
 Alpha virt. eigenvalues --    0.27225   0.27514   0.30907   0.32088   0.32254
 Alpha virt. eigenvalues --    0.32411   0.35239   0.35591   0.37800   0.40896
 Alpha virt. eigenvalues --    0.47108   0.48612   0.49976   0.50840   0.50956
 Alpha virt. eigenvalues --    0.52950   0.52970   0.53026   0.53977   0.54823
 Alpha virt. eigenvalues --    0.56897   0.59199   0.63114   0.65012   0.65124
 Alpha virt. eigenvalues --    0.66257   0.66356   0.67521   0.68835   0.70269
 Alpha virt. eigenvalues --    0.71710   0.72309   0.72989   0.73314   0.74622
 Alpha virt. eigenvalues --    0.75050   0.76419   0.76702   0.77163   0.77693
 Alpha virt. eigenvalues --    0.78316   0.79271   0.79746   0.79822   0.80441
 Alpha virt. eigenvalues --    0.80603   0.80701   0.82708   0.83200   0.83559
 Alpha virt. eigenvalues --    0.83737   0.84651   0.85527   0.85815   0.85882
 Alpha virt. eigenvalues --    0.86982   0.93128   0.93682   0.96663   1.00507
 Alpha virt. eigenvalues --    1.02181   1.02226   1.02621   1.05689   1.06452
 Alpha virt. eigenvalues --    1.08572   1.11721   1.13289   1.16385   1.16459
 Alpha virt. eigenvalues --    1.17581   1.20077   1.22094   1.22671   1.26647
 Alpha virt. eigenvalues --    1.26958   1.27049   1.27620   1.46996   1.47029
 Alpha virt. eigenvalues --    1.49601   1.49646   1.50838   1.53461   1.59114
 Alpha virt. eigenvalues --    1.60573   1.62863   1.66572   1.66981   1.67779
 Alpha virt. eigenvalues --    1.77553   1.77587   1.78340   1.80270   1.85670
 Alpha virt. eigenvalues --    1.86051   1.87232   1.87509   1.92350   1.92512
 Alpha virt. eigenvalues --    2.00015   2.00133   2.03058   2.05135   2.10804
 Alpha virt. eigenvalues --    2.12747   2.13668   2.13677   2.13774   2.14249
 Alpha virt. eigenvalues --    2.23993   2.24007   2.25559   2.26747   2.27802
 Alpha virt. eigenvalues --    2.29318   2.33460   2.33845   2.38511   2.38913
 Alpha virt. eigenvalues --    2.40079   2.43246   2.43640   2.46757   2.55085
 Alpha virt. eigenvalues --    2.55130   2.63955   2.64191   2.65042   2.65147
 Alpha virt. eigenvalues --    2.69729   2.69968   2.72299   2.73923   2.76395
 Alpha virt. eigenvalues --    2.77952   2.77963   2.80472   2.82653   2.82661
 Alpha virt. eigenvalues --    2.94370   2.98449   3.02957   3.03461   3.09353
 Alpha virt. eigenvalues --    3.11604   3.21361   3.23023   3.26013   3.26129
 Alpha virt. eigenvalues --    3.41351   3.42004   3.66892   3.68970   3.74193
 Alpha virt. eigenvalues --    3.74725
          Condensed to atoms (all electrons):
 Mulliken charges:
               1
     1  C   -0.248519
     2  C   -0.184809
     3  C   -0.248281
     4  N   -0.458010
     5  C    0.265106
     6  O   -0.366260
     7  O   -0.317021
     8  H    0.111294
     9  H    0.133888
    10  H    0.133902
    11  H    0.133871
    12  H    0.133814
    13  H    0.111296
    14  H    0.221907
    15  H    0.221814
    16  H    0.355996
    17  C   -0.248300
    18  C   -0.184810
    19  C   -0.248484
    20  N   -0.458019
    21  C    0.265099
    22  O   -0.366250
    23  O   -0.317035
    24  H    0.133794
    25  H    0.133888
    26  H    0.111292
    27  H    0.133907
    28  H    0.133887
    29  H    0.111301
    30  H    0.221820
    31  H    0.221914
    32  H    0.356008
 Sum of Mulliken charges =   0.00000
 Mulliken charges with hydrogens summed into heavy atoms:
               1
     1  C    0.130566
     2  C   -0.184809
     3  C    0.130700
     4  N   -0.014289
     5  C    0.265106
     6  O   -0.010265
     7  O   -0.317021
    17  C    0.130674
    18  C   -0.184810
    19  C    0.130610
    20  N   -0.014285
    21  C    0.265099
    22  O   -0.010242
    23  O   -0.317035
 Electronic spatial extent (au):  <R**2>=           4735.0339
 Charge=              0.0000 electrons
 Dipole moment (field-independent basis, Debye):
    X=              0.0003    Y=              0.0002    Z=              0.0003  Tot=              0.0005
 Evaluate density.
 Using the total density.
 Monte-Carlo method of calculating molar volume:
 based on  0.001 e/bohr**3 density envelope.
 Number of points per bohr**3 =  100 CutOff= 1.00D-04
 Using the SCF density.
 There are      2009 points.  Will hold      2009 in memory.
 LenV=  1048016341 MDV=  1048576000.
 Box volume = 8119.858 fraction occupied=0.217
 Integrated density= 1.0786856390366600D+02 error=-4.1314360963339993D+00
 Molar volume = 1762.199 bohr**3/mol (157.257 cm**3/mol)
 Recommended a0 for SCRF calculation =  4.86 angstrom (  9.19 bohr)
   1 Symmetry operations used in ECPInt.
 ECPInt:  NShTT=    7260 NPrTT=   29156 LenC2=    6689 LenP2D=   18816.
 LDataN:  DoStor=T MaxTD1= 5 Len=  102
 Calling FoFJK, ICntrl=      2127 FMM=F ISym2X=0 I1Cent= 0 IOpClX= 0 NMat=1 NMatS=1 NMatT=0.

 GradGradGradGradGradGradGradGradGradGradGradGradGradGradGradGradGradGrad
 FormGI is forming the generalized inverse of G from B-inverse, IUseBI=4.
 Internal  Forces:  Max     0.011002270 RMS     0.003260471
 Step number   1 out of a maximum of  168
 All quantities printed in internal units (Hartrees-Bohrs-Radians)
 Mixed Optimization -- RFO/linear search
 Second derivative matrix not updated -- first step.
 ITU=  0
     Eigenvalues ---    0.00311   0.00311   0.00338   0.00338   0.00339
     Eigenvalues ---    0.00339   0.00506   0.01021   0.01021   0.01342
     Eigenvalues ---    0.01554   0.01699   0.02093   0.03194   0.03603
     Eigenvalues ---    0.04410   0.04410   0.04913   0.05248   0.05249
     Eigenvalues ---    0.05366   0.05632   0.05632   0.05633   0.05633
     Eigenvalues ---    0.05689   0.05689   0.05790   0.05790   0.05790
     Eigenvalues ---    0.05791   0.05992   0.05993   0.08289   0.09491
     Eigenvalues ---    0.15553   0.15554   0.15839   0.15839   0.16000
     Eigenvalues ---    0.16000   0.16000   0.16000   0.16000   0.16000
     Eigenvalues ---    0.16000   0.16000   0.16000   0.16000   0.16000
     Eigenvalues ---    0.16000   0.16000   0.16000   0.16000   0.16000
     Eigenvalues ---    0.16000   0.21257   0.22985   0.25000   0.25000
     Eigenvalues ---    0.29018   0.29019   0.29208   0.29211   0.29215
     Eigenvalues ---    0.29215   0.35017   0.35018   0.35019   0.35021
     Eigenvalues ---    0.35270   0.35271   0.35272   0.35273   0.35282
     Eigenvalues ---    0.35282   0.35283   0.35284   0.38154   0.38156
     Eigenvalues ---    0.43951   0.45213   0.45215   0.45215   0.45217
     Eigenvalues ---    0.46215   0.63923   0.65929   0.90838   0.95068
 Linear search not attempted -- first point.
 Iteration  1 RMS(Cart)=  0.01786956 RMS(Int)=  0.00021688
 Iteration  2 RMS(Cart)=  0.00052685 RMS(Int)=  0.00001541
 Iteration  3 RMS(Cart)=  0.00000002 RMS(Int)=  0.00001541
 Variable       Old X    -DE/DX   Delta X   Delta X   Delta X     New X
                                 (Linear)    (Quad)   (Total)
    R1        2.89557   0.00285   0.00000   0.00959   0.00959   2.90516
    R2        2.05645   0.01099   0.00000   0.03089   0.03089   2.08735
    R3        2.05218   0.01041   0.00000   0.02905   0.02905   2.08122
    R4        2.05238   0.01090   0.00000   0.03044   0.03044   2.08282
    R5        2.89566   0.00286   0.00000   0.00961   0.00961   2.90527
    R6        2.74142  -0.00003   0.00000  -0.00007  -0.00007   2.74134
    R7        2.89964   0.00198   0.00000   0.00668   0.00668   2.90632
    R8        2.05235   0.01091   0.00000   0.03046   0.03046   2.08281
    R9        2.05219   0.01041   0.00000   0.02905   0.02905   2.08124
   R10        2.05644   0.01099   0.00000   0.03089   0.03089   2.08734
   R11        1.91727   0.00454   0.00000   0.00993   0.00993   1.92719
   R12        1.91725   0.00455   0.00000   0.00995   0.00995   1.92720
   R13        2.46536   0.00313   0.00000   0.00464   0.00465   2.47001
   R14        2.30680   0.00363   0.00000   0.00383   0.00382   2.31063
   R15        1.90589  -0.00217   0.00000  -0.00482  -0.00480   1.90108
   R16        3.10740  -0.00154   0.00000  -0.01655  -0.01656   3.09083
   R17        3.10730  -0.00154   0.00000  -0.01834  -0.01832   3.08898
   R18        2.89570   0.00285   0.00000   0.00959   0.00959   2.90529
   R19        2.05217   0.01042   0.00000   0.02908   0.02908   2.08124
   R20        2.05234   0.01092   0.00000   0.03048   0.03048   2.08282
   R21        2.05641   0.01100   0.00000   0.03093   0.03093   2.08734
   R22        2.89556   0.00285   0.00000   0.00956   0.00956   2.90512
   R23        2.74138  -0.00002   0.00000  -0.00005  -0.00005   2.74134
   R24        2.89965   0.00198   0.00000   0.00669   0.00669   2.90634
   R25        2.05239   0.01090   0.00000   0.03043   0.03043   2.08282
   R26        2.05220   0.01040   0.00000   0.02902   0.02902   2.08122
   R27        2.05646   0.01098   0.00000   0.03088   0.03088   2.08735
   R28        1.91727   0.00454   0.00000   0.00992   0.00992   1.92719
   R29        1.91729   0.00453   0.00000   0.00989   0.00989   1.92719
   R30        2.46535   0.00313   0.00000   0.00477   0.00477   2.47012
   R31        2.30683   0.00361   0.00000   0.00374   0.00374   2.31057
   R32        1.90590  -0.00218   0.00000  -0.00449  -0.00450   1.90140
    A1        1.92746   0.00119   0.00000   0.00646   0.00643   1.93389
    A2        1.92467   0.00224   0.00000   0.01463   0.01459   1.93926
    A3        1.90076  -0.00034   0.00000  -0.00243  -0.00244   1.89833
    A4        1.90191  -0.00170   0.00000  -0.00959  -0.00965   1.89225
    A5        1.89551  -0.00070   0.00000  -0.00650  -0.00649   1.88902
    A6        1.91328  -0.00074   0.00000  -0.00291  -0.00292   1.91036
    A7        1.92999  -0.00036   0.00000  -0.00082  -0.00083   1.92916
    A8        1.90133   0.00011   0.00000  -0.00054  -0.00054   1.90079
    A9        1.88971   0.00034   0.00000   0.00344   0.00344   1.89314
   A10        1.90120   0.00012   0.00000  -0.00044  -0.00044   1.90077
   A11        1.88934   0.00034   0.00000   0.00349   0.00349   1.89283
   A12        1.95253  -0.00056   0.00000  -0.00513  -0.00513   1.94740
   A13        1.90077  -0.00035   0.00000  -0.00247  -0.00247   1.89830
   A14        1.92465   0.00225   0.00000   0.01470   0.01467   1.93932
   A15        1.92735   0.00120   0.00000   0.00647   0.00644   1.93379
   A16        1.91332  -0.00074   0.00000  -0.00292  -0.00293   1.91039
   A17        1.89549  -0.00070   0.00000  -0.00652  -0.00651   1.88898
   A18        1.90200  -0.00170   0.00000  -0.00961  -0.00967   1.89233
   A19        1.92485   0.00069   0.00000   0.00061   0.00060   1.92545
   A20        1.92494   0.00068   0.00000   0.00056   0.00056   1.92549
   A21        1.87030  -0.00144   0.00000  -0.01576  -0.01577   1.85452
   A22        1.99891  -0.00076   0.00000   0.00097   0.00097   1.99988
   A23        2.12182   0.00155   0.00000   0.01002   0.01002   2.13183
   A24        2.16246  -0.00079   0.00000  -0.01099  -0.01099   2.15148
   A25        1.96463  -0.00278   0.00000  -0.03611  -0.03609   1.92854
   A26        2.24834  -0.00014   0.00000  -0.01810  -0.01812   2.23022
   A27        1.92472   0.00224   0.00000   0.01464   0.01460   1.93932
   A28        1.90073  -0.00035   0.00000  -0.00248  -0.00248   1.89826
   A29        1.92741   0.00119   0.00000   0.00645   0.00643   1.93384
   A30        1.91329  -0.00073   0.00000  -0.00288  -0.00289   1.91041
   A31        1.90196  -0.00170   0.00000  -0.00959  -0.00965   1.89231
   A32        1.89546  -0.00070   0.00000  -0.00649  -0.00648   1.88898
   A33        1.93001  -0.00035   0.00000  -0.00083  -0.00083   1.92917
   A34        1.90116   0.00011   0.00000  -0.00041  -0.00040   1.90076
   A35        1.88920   0.00034   0.00000   0.00353   0.00353   1.89272
   A36        1.90143   0.00010   0.00000  -0.00064  -0.00064   1.90079
   A37        1.88991   0.00033   0.00000   0.00330   0.00329   1.89321
   A38        1.95239  -0.00054   0.00000  -0.00496  -0.00495   1.94744
   A39        1.90075  -0.00034   0.00000  -0.00244  -0.00244   1.89831
   A40        1.92469   0.00223   0.00000   0.01460   0.01456   1.93925
   A41        1.92736   0.00121   0.00000   0.00656   0.00653   1.93389
   A42        1.91331  -0.00074   0.00000  -0.00293  -0.00294   1.91037
   A43        1.89554  -0.00071   0.00000  -0.00652  -0.00651   1.88903
   A44        1.90193  -0.00170   0.00000  -0.00961  -0.00967   1.89226
   A45        1.92499   0.00067   0.00000   0.00051   0.00050   1.92550
   A46        1.92489   0.00068   0.00000   0.00056   0.00055   1.92545
   A47        1.87034  -0.00144   0.00000  -0.01579  -0.01581   1.85453
   A48        1.99892  -0.00077   0.00000   0.00084   0.00083   1.99976
   A49        2.12176   0.00156   0.00000   0.00997   0.00997   2.13174
   A50        2.16250  -0.00079   0.00000  -0.01081  -0.01081   2.15169
   A51        1.96466  -0.00277   0.00000  -0.03353  -0.03355   1.93111
   A52        2.24828  -0.00013   0.00000  -0.01966  -0.01964   2.22864
   A53        3.04940   0.00370   0.00000   0.06706   0.06709   3.11649
   A54        3.04927   0.00370   0.00000   0.06213   0.06210   3.11138
   A55        3.14078   0.00001   0.00000   0.00113   0.00113   3.14191
   A56        3.14200  -0.00000   0.00000  -0.00068  -0.00067   3.14133
    D1        3.11705   0.00034   0.00000   0.00951   0.00952   3.12657
    D2       -1.07726   0.00033   0.00000   0.00813   0.00814  -1.06912
    D3        1.04983  -0.00008   0.00000   0.00365   0.00367   1.05351
    D4        1.01398   0.00023   0.00000   0.00779   0.00777   1.02175
    D5        3.10286   0.00022   0.00000   0.00641   0.00639   3.10925
    D6       -1.05323  -0.00019   0.00000   0.00193   0.00192  -1.05131
    D7       -1.08613  -0.00002   0.00000   0.00392   0.00392  -1.08221
    D8        1.00275  -0.00002   0.00000   0.00254   0.00254   1.00529
    D9        3.12984  -0.00043   0.00000  -0.00193  -0.00193   3.12791
   D10        1.08514   0.00002   0.00000  -0.00375  -0.00375   1.08139
   D11       -1.01502  -0.00023   0.00000  -0.00763  -0.00762  -1.02264
   D12       -3.11813  -0.00034   0.00000  -0.00938  -0.00940  -3.12752
   D13       -1.00382   0.00003   0.00000  -0.00231  -0.00231  -1.00613
   D14       -3.10398  -0.00022   0.00000  -0.00619  -0.00618  -3.11015
   D15        1.07611  -0.00033   0.00000  -0.00794  -0.00796   1.06815
   D16       -3.13062   0.00043   0.00000   0.00207   0.00207  -3.12854
   D17        1.05241   0.00019   0.00000  -0.00181  -0.00180   1.05061
   D18       -1.05069   0.00008   0.00000  -0.00356  -0.00358  -1.05427
   D19        3.11743  -0.00031   0.00000  -0.00829  -0.00829   3.10914
   D20        1.05504   0.00062   0.00000   0.01040   0.01039   1.06544
   D21       -1.05911  -0.00061   0.00000  -0.00989  -0.00988  -1.06899
   D22       -3.12149   0.00032   0.00000   0.00880   0.00880  -3.11270
   D23        1.02889  -0.00046   0.00000  -0.00902  -0.00902   1.01987
   D24       -1.03349   0.00047   0.00000   0.00967   0.00966  -1.02383
   D25        1.04541  -0.00002   0.00000   0.00113   0.00114   1.04655
   D26       -2.09665  -0.00001   0.00000   0.00159   0.00160  -2.09505
   D27       -1.04746   0.00002   0.00000  -0.00184  -0.00184  -1.04931
   D28        2.09366   0.00003   0.00000  -0.00138  -0.00138   2.09228
   D29        3.14076  -0.00001   0.00000  -0.00043  -0.00043   3.14033
   D30       -0.00130  -0.00000   0.00000   0.00003   0.00003  -0.00127
   D31        3.14145   0.00001   0.00000   0.00030   0.00030  -3.14143
   D32        0.00034  -0.00001   0.00000  -0.00018  -0.00017   0.00017
   D33        3.14123  -0.00000   0.00000  -0.00010  -0.00010   3.14113
   D34       -0.00088   0.00001   0.00000   0.00041   0.00041  -0.00047
   D35        0.00025   0.00000   0.00000   0.00047   0.00048   0.00073
   D36        0.00011   0.00000   0.00000   0.00029   0.00030   0.00040
   D37        1.01367   0.00023   0.00000   0.00810   0.00808   1.02175
   D38        3.10272   0.00021   0.00000   0.00655   0.00654   3.10926
   D39       -1.05394  -0.00017   0.00000   0.00243   0.00242  -1.05152
   D40       -1.08648  -0.00002   0.00000   0.00422   0.00422  -1.08227
   D41        1.00257  -0.00004   0.00000   0.00268   0.00267   1.00524
   D42        3.12910  -0.00042   0.00000  -0.00145  -0.00145   3.12764
   D43        3.11680   0.00034   0.00000   0.00982   0.00984   3.12664
   D44       -1.07733   0.00032   0.00000   0.00827   0.00829  -1.06904
   D45        1.04920  -0.00006   0.00000   0.00415   0.00417   1.05337
   D46        1.08621   0.00001   0.00000  -0.00407  -0.00406   1.08215
   D47       -1.01395  -0.00023   0.00000  -0.00788  -0.00787  -1.02182
   D48       -3.11699  -0.00034   0.00000  -0.00962  -0.00964  -3.12663
   D49       -1.00268   0.00003   0.00000  -0.00267  -0.00266  -1.00534
   D50       -3.10284  -0.00022   0.00000  -0.00648  -0.00646  -3.10931
   D51        1.07730  -0.00033   0.00000  -0.00822  -0.00824   1.06906
   D52       -3.12980   0.00043   0.00000   0.00174   0.00175  -3.12806
   D53        1.05322   0.00018   0.00000  -0.00207  -0.00206   1.05116
   D54       -1.04982   0.00008   0.00000  -0.00381  -0.00383  -1.05365
   D55        3.12140  -0.00032   0.00000  -0.00880  -0.00880   3.11261
   D56        1.05891   0.00062   0.00000   0.00999   0.00999   1.06890
   D57       -1.05508  -0.00061   0.00000  -0.01044  -0.01044  -1.06552
   D58       -3.11758   0.00032   0.00000   0.00835   0.00835  -3.10923
   D59        1.03369  -0.00048   0.00000  -0.00985  -0.00984   1.02385
   D60       -1.02880   0.00045   0.00000   0.00895   0.00894  -1.01986
   D61        1.04774  -0.00002   0.00000   0.00174   0.00175   1.04949
   D62       -2.09346  -0.00002   0.00000   0.00160   0.00160  -2.09186
   D63       -1.04519   0.00002   0.00000  -0.00116  -0.00117  -1.04636
   D64        2.09679   0.00001   0.00000  -0.00131  -0.00132   2.09548
   D65       -3.14072   0.00001   0.00000   0.00052   0.00052  -3.14020
   D66        0.00127   0.00001   0.00000   0.00037   0.00037   0.00163
   D67       -3.14044  -0.00001   0.00000  -0.00046  -0.00046  -3.14090
   D68        0.00075  -0.00001   0.00000  -0.00031  -0.00030   0.00045
   D69        3.14031   0.00001   0.00000   0.00015   0.00015   3.14046
   D70       -0.00085   0.00000   0.00000  -0.00002  -0.00001  -0.00086
         Item               Value     Threshold  Converged?
 Maximum Force            0.011002     0.000015     NO 
 RMS     Force            0.003260     0.000010     NO 
 Maximum Displacement     0.083375     0.000060     NO 
 RMS     Displacement     0.017692     0.000040     NO 
 GradGradGradGradGradGradGradGradGradGradGradGradGradGradGradGradGradGrad

                    Distance matrix (angstroms):
                    1          2          3          4          5
     1  C    0.000000
     2  C    1.537345   0.000000
     3  C    2.526858   1.537401   0.000000
     4  N    2.431697   1.450656   2.431721   0.000000
     5  C    2.495352   1.537960   2.495118   2.471985   0.000000
     6  O    2.898698   2.397168   2.899802   3.644009   1.307072
     7  O    3.444991   2.421051   3.443717   2.740041   1.222730
     8  H    1.104577   2.188552   3.493898   2.710235   2.746932
     9  H    1.101335   2.189989   2.775164   3.396653   2.749162
    10  H    1.102183   2.160660   2.768026   2.648893   3.452781
    11  H    2.767618   2.160684   1.102176   2.649272   3.452602
    12  H    2.775637   2.190087   1.101346   3.396723   2.748586
    13  H    3.493843   2.188525   1.104572   2.709727   2.746911
    14  H    3.333757   2.042536   2.644902   1.019827   2.673367
    15  H    2.643290   2.042568   3.333857   1.019830   2.675132
    16  H    3.808360   3.281140   3.809123   4.378982   1.908238
    17  C    8.021328   7.537481   8.410314   8.039664   6.037976
    18  C    7.538007   6.901536   7.538150   7.543023   5.363693
    19  C    8.411734   7.539240   8.023647   8.041194   6.039533
    20  N    8.039545   7.542493   8.039565   8.388324   6.032245
    21  C    6.038660   5.363696   6.038484   6.032601   3.825950
    22  O    5.808133   4.983162   5.807351   5.354219   3.517259
    23  O    5.355235   4.808913   5.355427   5.731196   3.316104
    24  H    7.944172   7.380112   8.343095   7.687471   5.933775
    25  H    9.103892   8.621357   9.451938   9.129811   7.112067
    26  H    7.636192   7.360652   8.324781   7.937017   5.910508
    27  H    9.452997   8.622922   9.106228   9.131163   7.113417
    28  H    8.344345   7.381832   7.946553   7.688997   5.935277
    29  H    8.327794   7.363811   7.639929   7.939730   5.913311
    30  H    7.939680   7.368648   7.675196   8.294466   5.900559
    31  H    7.671708   7.364994   7.935442   8.291284   5.897103
    32  H    4.880447   3.999229   4.879601   4.352404   2.573086
                    6          7          8          9         10
     6  O    0.000000
     7  O    2.226437   0.000000
     8  H    3.246748   3.415111   0.000000
     9  H    2.620824   3.858660   1.789342   0.000000
    10  H    3.913887   4.356282   1.787941   1.798989   0.000000
    11  H    3.914485   4.355432   3.780026   3.127991   2.551010
    12  H    2.621650   3.857058   3.790779   2.568366   3.129272
    13  H    3.249097   3.413123   4.348106   3.790609   3.780060
    14  H    3.895293   2.653763   3.642033   4.195301   3.600897
    15  H    3.895946   2.657537   2.483679   3.661494   2.965357
    16  H    1.006010   2.331493   3.980776   3.521437   4.861076
    17  C    5.805762   5.355805   7.636963   7.943671   9.104002
    18  C    4.982228   4.809485   7.362003   7.380190   8.621847
    19  C    5.808148   5.356308   8.326943   8.344023   9.453312
    20  N    5.352987   5.731509   7.937710   7.686899   9.129581
    21  C    3.516487   3.316540   5.911998   5.934151   7.112680
    22  O    3.676401   2.641491   5.603530   5.945442   6.829316
    23  O    2.640429   3.216856   5.356296   5.073258   6.433367
    24  H    5.943400   5.074070   7.499783   8.018371   8.991241
    25  H    6.827053   6.433971   8.720935   8.990562  10.190729
    26  H    5.599836   5.356603   7.170656   7.498529   8.720314
    27  H    6.829141   6.434387   9.336848   9.349603  10.506979
    28  H    5.945661   5.074503   8.212130   8.421368   9.350306
    29  H    5.604174   5.357520   8.388864   8.212788   9.338063
    30  H    5.121536   5.724333   7.978854   7.529821   9.002860
    31  H    5.117044   5.722001   7.517428   7.242009   8.764659
    32  H    2.948628   1.635599   4.719832   5.099888   5.874742
                   11         12         13         14         15
    11  H    0.000000
    12  H    1.799016   0.000000
    13  H    1.787904   1.789393   0.000000
    14  H    2.968384   3.662524   2.484848   0.000000
    15  H    3.600424   4.195424   3.642549   1.631683   0.000000
    16  H    4.861508   3.521754   3.982742   4.508163   4.509397
    17  C    9.451814   8.341925   8.326545   7.936610   7.674951
    18  C    8.621979   7.379675   7.362923   7.366313   7.368815
    19  C    9.106423   7.945358   7.640156   7.674170   7.940659
    20  N    9.129498   7.686277   7.938526   8.291976   8.294280
    21  C    7.112535   5.933331   5.912325   5.898004   5.900650
    22  O    6.828778   5.944045   5.602598   5.118874   5.122307
    23  O    6.433418   5.072862   5.357364   5.721994   5.723986
    24  H    9.349040   8.419471   8.211873   7.526970   7.245848
    25  H   10.505814   9.347841   9.336978   9.000006   8.768023
    26  H    9.334875   8.209077   8.386901   7.974975   7.519485
    27  H   10.193159   8.992282   8.724314   8.767163   9.003744
    28  H    8.993807   8.020082   7.503043   7.245021   7.531106
    29  H    8.724175   7.501716   7.175140   7.520046   7.980165
    30  H    8.768097   7.245090   7.521179   8.161311   8.325225
    31  H    8.998451   7.524712   7.975409   8.319758   8.160635
    32  H    5.874178   5.098488   4.718725   4.149961   4.153450
                   16         17         18         19         20
    16  H    0.000000
    17  C    4.877111   0.000000
    18  C    3.997680   1.537416   0.000000
    19  C    4.879443   2.526863   1.537323   0.000000
    20  N    4.351700   2.431723   1.450653   2.431672   0.000000
    21  C    2.571181   2.495040   1.537967   2.495398   2.472026
    22  O    2.946298   2.899700   2.397127   2.898578   3.644034
    23  O    1.634615   3.443415   2.420970   3.445127   2.739986
    24  H    5.096249   1.101346   2.190105   2.775252   3.396716
    25  H    5.871774   1.102178   2.160668   2.768018   2.648833
    26  H    4.715493   1.104574   2.188571   3.493857   2.710172
    27  H    5.873773   2.767989   2.160632   1.102182   2.648881
    28  H    5.098409   2.775187   2.189961   1.101334   3.396626
    29  H    4.719730   3.493905   2.188534   1.104578   2.710185
    30  H    4.153612   3.333860   2.042566   2.643308   1.019827
    31  H    4.149110   2.644848   2.042527   3.333727   1.019823
    32  H    2.425612   3.809312   3.282325   3.809139   4.380799
                   21         22         23         24         25
    21  C    0.000000
    22  O    1.307130   0.000000
    23  O    1.222701   2.226595   0.000000
    24  H    2.748920   2.621964   3.857284   0.000000
    25  H    3.452527   3.914594   4.354961   1.799025   0.000000
    26  H    2.746416   3.248408   3.412379   1.789381   1.787908
    27  H    3.452810   3.913732   4.356379   3.128610   2.551401
    28  H    2.749140   2.620589   3.858733   2.567964   3.128655
    29  H    2.747059   3.246734   3.415448   3.790520   3.780298
    30  H    2.675194   3.895990   2.657635   4.195431   3.600099
    31  H    2.673405   3.895379   2.653595   3.662678   2.967657
    32  H    1.910074   1.006177   2.334256   3.521649   4.861875
                   26         27         28         29         30
    26  H    0.000000
    27  H    3.780256   0.000000
    28  H    3.790416   1.798994   0.000000
    29  H    4.348126   1.787945   1.789342   0.000000
    30  H    3.642874   2.965424   3.661488   2.483669   0.000000
    31  H    2.485284   3.600853   4.195265   3.642006   1.631681
    32  H    3.982369   4.861723   3.521348   3.982135   4.511615
                   31         32
    31  H    0.000000
    32  H    4.510118   0.000000
 Framework group  C1[X(C8H18N2O4)]
 Deg. of freedom    90
                         Standard orientation:                         
 ---------------------------------------------------------------------
 Center     Atomic      Atomic             Coordinates (Angstroms)
 Number     Number       Type             X           Y           Z
 ---------------------------------------------------------------------
      1          6           0       -3.957092   -0.657839    1.262631
      2          6           0       -3.450310    0.057987    0.000016
      3          6           0       -3.957086   -0.655086   -1.264226
      4          7           0       -3.946244    1.421237    0.001489
      5          6           0       -1.912940    0.015400   -0.000292
      6          8           0       -1.402272   -1.187786   -0.000104
      7          8           0       -1.233952    1.032280   -0.000688
      8          1           0       -3.582880   -0.158080    2.173837
      9          1           0       -3.627953   -1.708663    1.281983
     10          1           0       -5.058480   -0.617836    1.274969
     11          1           0       -5.058498   -0.615784   -1.276040
     12          1           0       -3.627214   -1.705637   -1.286381
     13          1           0       -3.583601   -0.152676   -2.174265
     14          1           0       -3.596992    1.926029   -0.812915
     15          1           0       -3.599768    1.923301    0.818763
     16          1           0       -0.397220   -1.143896   -0.000170
     17          6           0        3.956272    0.653787    1.265397
     18          6           0        3.450246   -0.058331    0.000299
     19          6           0        3.958388    0.657990   -1.261462
     20          7           0        3.945598   -1.421789   -0.001547
     21          6           0        1.912889   -0.015017   -0.000507
     22          8           0        1.402914    1.188526   -0.000572
     23          8           0        1.233535   -1.031617   -0.000787
     24          1           0        3.627602    1.704717    1.287453
     25          1           0        5.057624    0.613181    1.278537
     26          1           0        3.581087    0.151574    2.174848
     27          1           0        5.059769    0.617564   -1.272859
     28          1           0        3.629664    1.708948   -1.280507
     29          1           0        3.584771    0.158883   -2.173270
     30          1           0        3.599532   -1.923258   -0.819357
     31          1           0        3.595515   -1.926871    0.812315
     32          1           0        0.397562    1.147810   -0.000456
 ---------------------------------------------------------------------
 Rotational constants (GHZ):           1.6902134           0.2471277           0.2382867
   232 basis functions,   422 primitive gaussians,   246 cartesian basis functions
    56 alpha electrons       56 beta electrons
       nuclear repulsion energy       971.6758870604 Hartrees.
 NAtoms=   32 NActive=   32 NUniq=   32 SFac= 1.00D+00 NAtFMM=   60 NAOKFM=F Big=F
 Nuclear repulsion after empirical dispersion term =      971.6554689615 Hartrees.
   1 Symmetry operations used in ECPInt.
 ECPInt:  NShTT=    7260 NPrTT=   29156 LenC2=    6688 LenP2D=   18784.
 LDataN:  DoStor=T MaxTD1= 4 Len=   56
 Initial guess from the checkpoint file:  "dimer.chk"
 B after Tr=    -0.000000    0.000000   -0.000000
         Rot=    1.000000    0.000011    0.000007    0.000308 Ang=   0.04 deg.
 ExpMin= 1.22D-01 ExpMax= 2.27D+03 ExpMxC= 3.41D+02 IAcc=3 IRadAn=         5 AccDes= 0.00D+00
 Harris functional with IExCor= 4639 and IRadAn=       5 diagonalized for initial guess.
 HarFok:  IExCor= 4639 AccDes= 0.00D+00 IRadAn=         5 IDoV= 1 UseB2=F ITyADJ=14
 ICtDFT=  3500011 ScaDFX=  1.000000  1.000000  1.000000  1.000000
 FoFCou: FMM=F IPFlag=           0 FMFlag=      100000 FMFlg1=           0
         NFxFlg=           0 DoJE=T BraDBF=F KetDBF=T FulRan=T
         wScrn=  0.000000 ICntrl=       500 IOpCl=  0 I1Cent=   200000004 NGrid=           0
         NMat0=    1 NMatS0=      1 NMatT0=    0 NMatD0=    1 NMtDS0=    0 NMtDT0=    0
 Petite list used in FoFCou.
     Accept linear search using points  3 and  4.
     Accept linear search using points  2 and  3.
     Accept linear search using points  1 and  2.
     Minimum is close to point  2 DX= -2.72D-04 DF= -5.80D-12 DXR=  2.72D-04 DFR=  7.49D-08 which will be used.
 SCF Done:  E(RwB97XD) =  -725.354568808     a.u. after    5 cycles
            Convg  =    0.1862D-09                    34 Fock formations.
              S**2 =  0.0000                  -V/T =  2.0089
   1 Symmetry operations used in ECPInt.
 ECPInt:  NShTT=    7260 NPrTT=   29156 LenC2=    6688 LenP2D=   18784.
 LDataN:  DoStor=T MaxTD1= 5 Len=  102
 Calling FoFJK, ICntrl=      2127 FMM=F ISym2X=0 I1Cent= 0 IOpClX= 0 NMat=1 NMatS=1 NMatT=0.

 GradGradGradGradGradGradGradGradGradGradGradGradGradGradGradGradGradGrad
 Using GEDIIS/GDIIS optimizer.
 FormGI is forming the generalized inverse of G from B-inverse, IUseBI=4.
 Internal  Forces:  Max     0.002158724 RMS     0.000428984
 Step number   2 out of a maximum of  168
 All quantities printed in internal units (Hartrees-Bohrs-Radians)
 Mixed Optimization -- En-DIIS/RFO-DIIS
 Trust test= 9.57D-01 RLast= 1.70D-01 DXMaxT set to 5.05D-01
 ITU=  1  0
 Use linear search instead of GDIIS.
     Eigenvalues ---    0.00311   0.00311   0.00338   0.00339   0.00339
     Eigenvalues ---    0.00339   0.00501   0.01021   0.01021   0.01283
     Eigenvalues ---    0.01535   0.01684   0.02061   0.03170   0.03603
     Eigenvalues ---    0.04406   0.04460   0.04844   0.05233   0.05234
     Eigenvalues ---    0.05410   0.05524   0.05525   0.05525   0.05527
     Eigenvalues ---    0.05677   0.05710   0.05759   0.05764   0.05764
     Eigenvalues ---    0.05764   0.06019   0.06019   0.08204   0.09456
     Eigenvalues ---    0.15586   0.15592   0.15735   0.15817   0.15817
     Eigenvalues ---    0.16000   0.16000   0.16000   0.16000   0.16000
     Eigenvalues ---    0.16000   0.16000   0.16000   0.16000   0.16000
     Eigenvalues ---    0.16000   0.16000   0.16000   0.16000   0.16000
     Eigenvalues ---    0.16257   0.21234   0.22963   0.25000   0.25051
     Eigenvalues ---    0.29018   0.29039   0.29209   0.29212   0.29215
     Eigenvalues ---    0.29364   0.34998   0.35018   0.35019   0.35020
     Eigenvalues ---    0.35265   0.35270   0.35271   0.35273   0.35282
     Eigenvalues ---    0.35283   0.35283   0.35933   0.38155   0.38182
     Eigenvalues ---    0.43897   0.44998   0.45213   0.45215   0.45216
     Eigenvalues ---    0.46382   0.63907   0.65764   0.90802   0.94925
 Quartic linear search produced a step of -0.00555.
 Iteration  1 RMS(Cart)=  0.00628313 RMS(Int)=  0.00001361
 Iteration  2 RMS(Cart)=  0.00001886 RMS(Int)=  0.00000484
 Iteration  3 RMS(Cart)=  0.00000000 RMS(Int)=  0.00000484
 Variable       Old X    -DE/DX   Delta X   Delta X   Delta X     New X
                                 (Linear)    (Quad)   (Total)
    R1        2.90516  -0.00122  -0.00005  -0.00386  -0.00391   2.90125
    R2        2.08735   0.00009  -0.00017   0.00117   0.00100   2.08835
    R3        2.08122  -0.00012  -0.00016   0.00053   0.00036   2.08159
    R4        2.08282  -0.00002  -0.00017   0.00085   0.00068   2.08351
    R5        2.90527  -0.00122  -0.00005  -0.00388  -0.00393   2.90134
    R6        2.74134  -0.00024   0.00000  -0.00062  -0.00062   2.74072
    R7        2.90632  -0.00081  -0.00004  -0.00258  -0.00262   2.90370
    R8        2.08281  -0.00002  -0.00017   0.00086   0.00069   2.08350
    R9        2.08124  -0.00012  -0.00016   0.00053   0.00037   2.08161
   R10        2.08734   0.00009  -0.00017   0.00117   0.00100   2.08834
   R11        1.92719   0.00035  -0.00006   0.00107   0.00102   1.92821
   R12        1.92720   0.00035  -0.00006   0.00107   0.00102   1.92822
   R13        2.47001   0.00216  -0.00003   0.00345   0.00342   2.47343
   R14        2.31063   0.00057  -0.00002   0.00068   0.00065   2.31128
   R15        1.90108   0.00074   0.00003   0.00161   0.00164   1.90272
   R16        3.09083  -0.00085   0.00009  -0.01159  -0.01150   3.07933
   R17        3.08898  -0.00087   0.00010  -0.01005  -0.00995   3.07902
   R18        2.90529  -0.00123  -0.00005  -0.00389  -0.00394   2.90135
   R19        2.08124  -0.00012  -0.00016   0.00052   0.00036   2.08160
   R20        2.08282  -0.00002  -0.00017   0.00085   0.00068   2.08350
   R21        2.08734   0.00009  -0.00017   0.00118   0.00100   2.08835
   R22        2.90512  -0.00121  -0.00005  -0.00382  -0.00387   2.90125
   R23        2.74134  -0.00024   0.00000  -0.00064  -0.00064   2.74070
   R24        2.90634  -0.00081  -0.00004  -0.00259  -0.00263   2.90371
   R25        2.08282  -0.00002  -0.00017   0.00085   0.00068   2.08351
   R26        2.08122  -0.00012  -0.00016   0.00052   0.00036   2.08158
   R27        2.08735   0.00009  -0.00017   0.00117   0.00100   2.08835
   R28        1.92719   0.00036  -0.00006   0.00108   0.00102   1.92822
   R29        1.92719   0.00036  -0.00005   0.00108   0.00103   1.92821
   R30        2.47012   0.00207  -0.00003   0.00321   0.00318   2.47330
   R31        2.31057   0.00061  -0.00002   0.00078   0.00077   2.31134
   R32        1.90140   0.00056   0.00002   0.00091   0.00093   1.90233
    A1        1.93389   0.00015  -0.00004   0.00079   0.00075   1.93464
    A2        1.93926   0.00027  -0.00008   0.00236   0.00228   1.94154
    A3        1.89833   0.00006   0.00001   0.00040   0.00041   1.89874
    A4        1.89225  -0.00024   0.00005  -0.00196  -0.00191   1.89034
    A5        1.88902  -0.00016   0.00004  -0.00171  -0.00167   1.88735
    A6        1.91036  -0.00009   0.00002   0.00001   0.00003   1.91038
    A7        1.92916  -0.00005   0.00000  -0.00189  -0.00189   1.92727
    A8        1.90079  -0.00003   0.00000  -0.00019  -0.00019   1.90060
    A9        1.89314  -0.00006  -0.00002  -0.00046  -0.00048   1.89267
   A10        1.90077  -0.00004   0.00000  -0.00022  -0.00021   1.90055
   A11        1.89283  -0.00005  -0.00002  -0.00041  -0.00043   1.89240
   A12        1.94740   0.00023   0.00003   0.00313   0.00316   1.95056
   A13        1.89830   0.00006   0.00001   0.00042   0.00044   1.89873
   A14        1.93932   0.00027  -0.00008   0.00234   0.00225   1.94157
   A15        1.93379   0.00015  -0.00004   0.00080   0.00077   1.93456
   A16        1.91039  -0.00009   0.00002   0.00000   0.00002   1.91041
   A17        1.88898  -0.00016   0.00004  -0.00171  -0.00167   1.88731
   A18        1.89233  -0.00024   0.00005  -0.00197  -0.00191   1.89042
   A19        1.92545  -0.00021  -0.00000  -0.00341  -0.00343   1.92202
   A20        1.92549  -0.00021  -0.00000  -0.00344  -0.00345   1.92204
   A21        1.85452  -0.00019   0.00009  -0.00596  -0.00591   1.84862
   A22        1.99988   0.00007  -0.00001  -0.00020  -0.00021   1.99967
   A23        2.13183  -0.00087  -0.00006  -0.00369  -0.00374   2.12809
   A24        2.15148   0.00080   0.00006   0.00389   0.00395   2.15542
   A25        1.92854   0.00078   0.00020   0.00715   0.00735   1.93589
   A26        2.23022  -0.00114   0.00010  -0.00613  -0.00603   2.22419
   A27        1.93932   0.00027  -0.00008   0.00233   0.00225   1.94157
   A28        1.89826   0.00006   0.00001   0.00042   0.00044   1.89869
   A29        1.93384   0.00015  -0.00004   0.00078   0.00075   1.93458
   A30        1.91041  -0.00009   0.00002   0.00001   0.00002   1.91043
   A31        1.89231  -0.00024   0.00005  -0.00195  -0.00189   1.89041
   A32        1.88898  -0.00016   0.00004  -0.00171  -0.00167   1.88731
   A33        1.92917  -0.00006   0.00000  -0.00188  -0.00187   1.92730
   A34        1.90076  -0.00004   0.00000  -0.00021  -0.00021   1.90054
   A35        1.89272  -0.00004  -0.00002  -0.00036  -0.00038   1.89234
   A36        1.90079  -0.00003   0.00000  -0.00017  -0.00017   1.90062
   A37        1.89321  -0.00005  -0.00002  -0.00041  -0.00043   1.89278
   A38        1.94744   0.00022   0.00003   0.00300   0.00303   1.95047
   A39        1.89831   0.00006   0.00001   0.00042   0.00043   1.89875
   A40        1.93925   0.00027  -0.00008   0.00238   0.00229   1.94155
   A41        1.93389   0.00015  -0.00004   0.00078   0.00075   1.93464
   A42        1.91037  -0.00009   0.00002   0.00000   0.00001   1.91038
   A43        1.88903  -0.00016   0.00004  -0.00172  -0.00169   1.88734
   A44        1.89226  -0.00024   0.00005  -0.00197  -0.00191   1.89034
   A45        1.92550  -0.00021  -0.00000  -0.00342  -0.00344   1.92206
   A46        1.92545  -0.00021  -0.00000  -0.00339  -0.00340   1.92204
   A47        1.85453  -0.00019   0.00009  -0.00596  -0.00591   1.84862
   A48        1.99976   0.00001  -0.00000  -0.00040  -0.00041   1.99935
   A49        2.13174  -0.00089  -0.00006  -0.00368  -0.00374   2.12800
   A50        2.15169   0.00088   0.00006   0.00408   0.00414   2.15584
   A51        1.93111   0.00059   0.00019   0.00378   0.00396   1.93507
   A52        2.22864  -0.00113   0.00011  -0.00455  -0.00444   2.22421
   A53        3.11649  -0.00055  -0.00037  -0.00713  -0.00750   3.10899
   A54        3.11138  -0.00023  -0.00034  -0.00109  -0.00143   3.10994
   A55        3.14191  -0.00001  -0.00001  -0.00202  -0.00203   3.13988
   A56        3.14133   0.00001   0.00000   0.00174   0.00174   3.14307
    D1        3.12657   0.00002  -0.00005   0.00450   0.00445   3.13102
    D2       -1.06912  -0.00008  -0.00005   0.00297   0.00292  -1.06619
    D3        1.05351   0.00015  -0.00002   0.00639   0.00637   1.05987
    D4        1.02175   0.00004  -0.00004   0.00487   0.00483   1.02658
    D5        3.10925  -0.00005  -0.00004   0.00334   0.00330   3.11255
    D6       -1.05131   0.00017  -0.00001   0.00676   0.00675  -1.04457
    D7       -1.08221  -0.00005  -0.00002   0.00312   0.00310  -1.07911
    D8        1.00529  -0.00015  -0.00001   0.00159   0.00158   1.00686
    D9        3.12791   0.00008   0.00001   0.00501   0.00502   3.13293
   D10        1.08139   0.00005   0.00002  -0.00289  -0.00287   1.07852
   D11       -1.02264  -0.00004   0.00004  -0.00462  -0.00458  -1.02722
   D12       -3.12752  -0.00002   0.00005  -0.00425  -0.00419  -3.13172
   D13       -1.00613   0.00015   0.00001  -0.00137  -0.00136  -1.00749
   D14       -3.11015   0.00005   0.00003  -0.00311  -0.00307  -3.11323
   D15        1.06815   0.00008   0.00004  -0.00273  -0.00268   1.06547
   D16       -3.12854  -0.00008  -0.00001  -0.00481  -0.00482  -3.13336
   D17        1.05061  -0.00017   0.00001  -0.00654  -0.00653   1.04408
   D18       -1.05427  -0.00015   0.00002  -0.00616  -0.00614  -1.06041
   D19        3.10914  -0.00019   0.00005  -0.00409  -0.00404   3.10510
   D20        1.06544   0.00030  -0.00006   0.00736   0.00730   1.07273
   D21       -1.06899  -0.00030   0.00005  -0.00664  -0.00658  -1.07557
   D22       -3.11270   0.00019  -0.00005   0.00482   0.00476  -3.10794
   D23        1.01987  -0.00024   0.00005  -0.00535  -0.00529   1.01458
   D24       -1.02383   0.00025  -0.00005   0.00611   0.00605  -1.01778
   D25        1.04655  -0.00006  -0.00001  -0.00092  -0.00093   1.04562
   D26       -2.09505  -0.00007  -0.00001  -0.00142  -0.00143  -2.09648
   D27       -1.04931   0.00007   0.00001   0.00185   0.00186  -1.04745
   D28        2.09228   0.00006   0.00001   0.00136   0.00136   2.09364
   D29        3.14033   0.00001   0.00000   0.00046   0.00047   3.14079
   D30       -0.00127  -0.00000  -0.00000  -0.00003  -0.00003  -0.00130
   D31       -3.14143  -0.00001  -0.00000  -0.00060  -0.00060   3.14115
   D32        0.00017  -0.00000   0.00000  -0.00010  -0.00010   0.00007
   D33        3.14113   0.00001   0.00000   0.00028   0.00028   3.14141
   D34       -0.00047  -0.00000  -0.00000  -0.00026  -0.00026  -0.00073
   D35        0.00073  -0.00000  -0.00000  -0.00049  -0.00049   0.00024
   D36        0.00040   0.00000  -0.00000  -0.00021  -0.00021   0.00019
   D37        1.02175   0.00004  -0.00004   0.00536   0.00531   1.02706
   D38        3.10926  -0.00005  -0.00004   0.00387   0.00383   3.11310
   D39       -1.05152   0.00017  -0.00001   0.00717   0.00716  -1.04436
   D40       -1.08227  -0.00005  -0.00002   0.00362   0.00360  -1.07867
   D41        1.00524  -0.00014  -0.00001   0.00213   0.00212   1.00736
   D42        3.12764   0.00008   0.00001   0.00544   0.00544   3.13309
   D43        3.12664   0.00002  -0.00005   0.00498   0.00493   3.13157
   D44       -1.06904  -0.00007  -0.00005   0.00349   0.00345  -1.06559
   D45        1.05337   0.00014  -0.00002   0.00680   0.00677   1.06014
   D46        1.08215   0.00005   0.00002  -0.00322  -0.00320   1.07895
   D47       -1.02182  -0.00005   0.00004  -0.00497  -0.00493  -1.02674
   D48       -3.12663  -0.00002   0.00005  -0.00460  -0.00455  -3.13118
   D49       -1.00534   0.00014   0.00001  -0.00171  -0.00169  -1.00704
   D50       -3.10931   0.00005   0.00004  -0.00346  -0.00342  -3.11273
   D51        1.06906   0.00007   0.00005  -0.00309  -0.00305   1.06602
   D52       -3.12806  -0.00007  -0.00001  -0.00501  -0.00502  -3.13307
   D53        1.05116  -0.00017   0.00001  -0.00676  -0.00675   1.04441
   D54       -1.05365  -0.00014   0.00002  -0.00639  -0.00637  -1.06002
   D55        3.11261  -0.00019   0.00005  -0.00481  -0.00475   3.10786
   D56        1.06890   0.00030  -0.00006   0.00663   0.00656   1.07546
   D57       -1.06552  -0.00030   0.00006  -0.00732  -0.00726  -1.07278
   D58       -3.10923   0.00019  -0.00005   0.00411   0.00406  -3.10517
   D59        1.02385  -0.00025   0.00005  -0.00608  -0.00602   1.01784
   D60       -1.01986   0.00024  -0.00005   0.00536   0.00530  -1.01456
   D61        1.04949  -0.00006  -0.00001  -0.00136  -0.00137   1.04812
   D62       -2.09186  -0.00006  -0.00001  -0.00132  -0.00133  -2.09319
   D63       -1.04636   0.00006   0.00001   0.00134   0.00135  -1.04501
   D64        2.09548   0.00006   0.00001   0.00138   0.00139   2.09687
   D65       -3.14020  -0.00000  -0.00000  -0.00002  -0.00003  -3.14023
   D66        0.00163  -0.00000  -0.00000   0.00002   0.00002   0.00165
   D67       -3.14090  -0.00001   0.00000  -0.00014  -0.00014  -3.14103
   D68        0.00045  -0.00001   0.00000  -0.00018  -0.00018   0.00027
   D69        3.14046   0.00000  -0.00000   0.00014   0.00014   3.14060
   D70       -0.00086   0.00000   0.00000   0.00018   0.00019  -0.00068
         Item               Value     Threshold  Converged?
 Maximum Force            0.002159     0.000015     NO 
 RMS     Force            0.000429     0.000010     NO 
 Maximum Displacement     0.026147     0.000060     NO 
 RMS     Displacement     0.006291     0.000040     NO 
 GradGradGradGradGradGradGradGradGradGradGradGradGradGradGradGradGradGrad

                    Distance matrix (angstroms):
                    1          2          3          4          5
     1  C    0.000000
     2  C    1.535275   0.000000
     3  C    2.521795   1.535321   0.000000
[...]
 00000836,-0.00034612,0.00001370,-0.00002119,-0.00032141,-0.00004079,-0
 .00002333,0.00000586,0.00000061,0.00000078,0.00000841,0.00000437,0.000
 00252,-0.00001108,-0.00000231,-0.00000667,-0.00001163,-0.00000240,0.00
 000571,0.00000907,0.00000494,-0.00000210,0.00000699,-0.00000057,-0.000
 00273,0.00002554,-0.00000876,-0.00001016,0.00002509,-0.00000830,0.0000
 1118,0.00050862,0.00006762,0.00005073,0.00084958,0.00028649,0.00099165
 ,-0.01232626,0.00102403,-0.00026685,-0.32334630,0.00657324,-0.00053945
 ,0.00140119,0.00050835,0.00149103,0.00171787,-0.00042491,-0.00220845,-
 0.00048608,-0.00009995,0.00004908,-0.00110462,-0.00078069,0.00018124,-
 0.00004057,-0.00006969,-0.00007043,0.00032691,0.00024141,-0.00056371,0
 .00032585,-0.00002761,0.00007049,0.34393295,-0.00000354,0.00000177,0.0
 0000318,0.00000810,0.00000145,0.00000233,-0.00000491,0.00000093,-0.000
 00449,-0.00001657,0.00000981,0.00000039,0.00005169,-0.00015570,0.00000
 364,-0.00023729,0.00007024,-0.00002927,0.00002255,0.00008400,-0.000006
 46,0.00000108,-0.00000021,0.00000031,0.00000267,0.00000220,0.00000133,
 -0.00000231,0.00000015,-0.00000122,-0.00000242,0.00000010,0.00000146,0
 .00000296,0.00000229,-0.00000095,0.00000117,-0.00000021,0.00000044,0.0
 0000225,-0.00000215,-0.00000192,0.00000269,-0.00000163,0.00000064,0.00
 033625,0.00002868,0.00008418,0.00048462,0.00003907,0.00105892,-0.01731
 048,-0.00075891,-0.00247011,0.00846026,-0.04810898,0.00194638,-0.00009
 060,0.00082503,0.00063972,0.00209316,-0.00267546,-0.00279680,0.0000401
 0,0.00110092,0.00059355,-0.00131182,-0.00018089,0.00057927,0.00016835,
 -0.00003413,-0.00000308,0.00024303,0.00044838,-0.00000381,-0.00003517,
 -0.00015723,0.00010614,-0.00668489,0.04555203,-0.00001379,0.00000304,0
 .00001178,0.00001946,-0.00001523,-0.00000187,-0.00001388,0.00000166,-0
 .00001665,-0.00004712,0.00001917,0.00000249,0.00012063,-0.00012101,-0.
 00001279,-0.00042477,0.00006511,-0.00001205,-0.00019146,0.00004307,0.0
 0002134,0.00000369,0.00000017,0.00000155,0.00000585,0.00000439,0.00000
 195,-0.00000667,-0.00000122,-0.00000458,-0.00000570,-0.00000144,0.0000
 0713,0.00000441,0.00000277,-0.00000317,0.00000118,0.00000333,0.0000027
 6,0.00001177,-0.00000454,-0.00000790,0.00001249,-0.00000570,0.00000550
 ,0.00061243,0.00005988,0.00006736,-0.00126766,0.00020462,0.00157221,-0
 .03028543,0.00030108,-0.00313001,0.00223653,0.00132113,-0.04682048,0.0
 0080644,0.00159770,0.00141547,0.00221820,-0.00281601,-0.00535569,-0.00
 102601,0.00076582,0.00067478,-0.00250124,-0.00103679,0.00108657,0.0000
 1892,0.00007269,-0.00005965,0.00056254,0.00000038,-0.00070682,0.000334
 22,-0.00000876,0.00030809,0.00212351,0.00132895,0.05039253,0.00001623,
 -0.00000529,-0.00001435,-0.00002024,0.00003386,-0.00000454,0.00001681,
 -0.00000706,0.00000989,0.00005705,-0.00000913,0.00000203,-0.00016082,-
 0.00023359,-0.00001060,0.00008076,0.00009503,0.00001501,0.00035842,0.0
 0014984,0.00004202,-0.00000425,-0.00000141,-0.00000016,-0.00000491,-0.
 00000115,-0.00000114,0.00000841,0.00000267,0.00000585,0.00000907,0.000
 00295,-0.00000442,-0.00000544,-0.00000174,0.00000113,-0.00000557,0.000
 00021,0.00000401,-0.00002333,0.00000596,0.00000800,-0.00002230,0.00000
 606,-0.00001114,-0.00014008,-0.00005740,-0.00003305,0.00008223,0.00014
 519,0.00050584,0.00238417,-0.01089530,0.00104523,-0.07727011,0.0850899
 6,0.00191404,-0.00015477,-0.00097291,-0.00170897,0.00074260,-0.0022798
 2,0.00022889,-0.00127583,0.00050650,-0.00024836,0.00010528,0.00060884,
 -0.00020587,0.00029737,0.00007463,0.00008576,-0.00004057,0.00016832,-0
 .00001942,-0.00013138,-0.00013234,0.00004673,-0.00505419,0.02934996,0.
 00023993,0.07671034,0.00001034,-0.00000465,-0.00000833,-0.00000772,0.0
 0002251,-0.00000312,0.00001009,-0.00000647,0.00000340,0.00002811,0.000
 00482,0.00000263,-0.00008758,-0.00030595,-0.00001224,-0.00007541,0.000
 14105,0.00000942,0.00032337,0.00017217,0.00002253,-0.00000160,-0.00000
 189,0.00000026,-0.00000115,0.00000158,-0.00000064,0.00000437,0.0000022
 0,0.00000439,0.00000495,0.00000229,-0.00000279,-0.00000174,0.00000076,
 0.00000034,-0.00000290,0.00000033,0.00000387,-0.00001313,0.00000294,0.
 00000381,-0.00001292,0.00000261,-0.00000716,0.00005484,-0.00005508,-0.
 00001180,0.00005473,0.00058592,0.00115355,0.00505642,-0.01209388,0.002
 77194,0.08135528,-0.29874084,-0.00477154,-0.00131693,-0.00114024,-0.00
 390092,0.00143579,-0.00293862,-0.00041861,0.00074709,0.00158330,0.0009
 6981,-0.00024398,0.00086275,0.00000814,0.00007421,0.00051115,-0.000323
 67,-0.00006951,-0.00003433,-0.00007278,-0.00018346,0.00019541,0.000080
 80,-0.00151058,0.00347903,0.00010555,-0.08944101,0.31792746,0.00000633
 ,-0.00000307,-0.00000232,-0.00000510,0.00001644,0.00000325,0.00000648,
 0.00000022,0.00000916,0.00001572,-0.00000192,-0.00000296,-0.00004224,-
 0.00010853,0.00001273,0.00000506,0.00004187,-0.00000323,0.00019696,0.0
 0006771,-0.00004068,-0.00000134,0.00000031,-0.00000245,-0.00000114,-0.
 00000064,-0.00000069,0.00000252,0.00000133,0.00000195,0.00000208,0.000
 00093,-0.00000317,-0.00000112,-0.00000034,-0.00000049,-0.00000074,-0.0
 0000121,-0.00000248,-0.00000597,0.00000231,0.00000656,-0.00000585,0.00
 000096,-0.00000100,-0.00002167,-0.00001691,-0.00000189,0.00058221,-0.0
 0093357,0.00128092,0.01060650,-0.02317871,0.00174944,0.00050188,-0.000
 91805,-0.04922810,-0.00160828,-0.00338990,-0.00568768,0.00069238,-0.00
 115960,0.00046239,-0.00014722,0.00041023,-0.00032153,-0.00007981,0.000
 39797,0.00004753,-0.00008646,0.00031981,-0.00080296,0.00007065,0.00000
 296,-0.00005946,-0.00011851,0.00020692,0.00025986,0.00000690,-0.000039
 40,-0.00116018,-0.00018725,0.00590011,0.05085819,0.00001021,-0.0000040
 8,-0.00000909,-0.00001741,0.00001508,-0.00000462,0.00001133,-0.0000054
 1,0.00000422,0.00004025,-0.00001002,0.00000195,-0.00012179,-0.00002602
 ,-0.00001613,0.00014226,0.00000540,0.00002112,0.00012847,0.00002500,0.
 00003183,-0.00000268,-0.00000065,0.00000028,-0.00000425,-0.00000160,-0
 .00000134,0.00000586,0.00000108,0.00000369,0.00000699,0.00000117,-0.00
 000118,-0.00000557,-0.00000290,0.00000075,-0.00000528,0.00000189,0.000
 00392,-0.00001465,0.00000477,0.00000446,-0.00001364,0.00000381,-0.0000
 0658,-0.00020109,-0.00003846,-0.00003645,-0.00048682,-0.00123931,-0.00
 166360,0.00280975,0.00621120,-0.01073401,-0.07987760,-0.04198267,0.073
 96994,-0.00014246,0.00088841,0.00051263,0.00077852,0.00080085,-0.00125
 438,-0.00002491,0.00000611,0.00031329,0.00032649,0.00012026,0.00032138
 ,-0.00013134,-0.00018312,0.00011922,0.00032569,-0.00003619,-0.00033411
 ,0.00071137,0.00015565,-0.00059859,-0.00675797,-0.01532292,0.02581542,
 0.00347795,0.00406643,-0.00967286,0.07886545,0.00000202,0.00000114,0.0
 0000019,-0.00000107,0.00000164,0.00000761,0.00000210,0.00000476,0.0000
 1003,0.00000342,-0.00000297,-0.00000658,-0.00000173,0.00006709,0.00002
 643,0.00009460,-0.00003827,-0.00002259,0.00004180,-0.00003170,-0.00005
 457,-0.00000065,0.00000146,-0.00000333,-0.00000141,-0.00000189,0.00000
 031,0.00000061,-0.00000021,0.00000017,-0.00000056,-0.00000022,-0.00000
 332,0.00000020,0.00000032,0.00000120,0.00000188,-0.00000439,-0.0000056
 3,-0.00000008,-0.00000124,0.00000570,0.00000098,-0.00000034,0.00000161
 ,-0.00012909,0.00000750,0.00002527,-0.00096254,-0.00141719,-0.00228667
 ,0.00628144,0.00637808,-0.01339241,-0.04145466,-0.10786836,0.10230830,
 0.00021863,0.00183084,-0.00026733,0.00014368,0.00098388,0.00040216,0.0
 0043544,-0.00021270,-0.00027220,0.00044812,-0.00006319,0.00012835,-0.0
 0013257,0.00019456,-0.00020669,-0.00002779,-0.00015752,0.00001010,0.00
 015705,0.00070993,-0.00073943,0.00086849,0.00029381,-0.00217179,-0.011
 92936,-0.01016021,0.02422446,0.04622224,0.10967791,0.00000098,0.000000
 07,-0.00000534,-0.00000616,0.00000548,-0.00001365,0.00000278,-0.000001
 41,-0.00000443,0.00001017,-0.00000841,0.00000848,-0.00004228,0.0000588
 5,-0.00003555,0.00001766,-0.00003722,0.00005784,-0.00004113,-0.0000345
 7,0.00006927,0.00000028,-0.00000334,0.00000486,-0.00000016,0.00000026,
 -0.00000245,0.00000077,0.00000031,0.00000155,0.00000273,-0.00000043,0.
 00000277,-0.00000401,-0.00000387,-0.00000247,-0.00000393,0.00000566,0.
 00000602,-0.00000263,0.00000363,-0.00000282,-0.00000397,0.00000080,-0.
 00000378,-0.00000698,0.00000638,-0.00010505,-0.00286615,-0.00379059,-0
 .00381373,0.00861662,0.01384291,-0.02056598,0.07273609,0.10043459,-0.2
 2638159,-0.00013560,0.00113815,0.00182212,0.00236566,0.00094241,-0.000
 59316,-0.00055386,0.00003455,0.00033474,-0.00078644,-0.00073264,0.0003
 8232,-0.00004620,-0.00008051,0.00026066,-0.00007044,-0.00010479,0.0003
 0858,0.00059721,0.00073318,-0.00143097,-0.00123590,-0.00129259,0.00183
 311,-0.00116031,-0.00182082,0.00235851,-0.07720895,-0.10792423,0.24576
 893,0.00004276,-0.00001208,-0.00003426,-0.00007147,0.00006128,0.000001
 52,0.00004362,-0.00001039,0.00003576,0.00016597,-0.00006044,-0.0000018
 7,-0.00047644,0.00027684,0.00000086,0.00093344,-0.00017905,0.00000169,
 0.00049596,-0.00009104,-0.00001212,-0.00001364,0.00000098,-0.00000398,
 -0.00002230,-0.00001292,-0.00000586,0.00002509,0.00000269,0.00001249,0
 .00002553,0.00000222,-0.00001178,-0.00002333,-0.00001312,0.00000602,-0
 .00001465,-0.00000007,0.00000263,-0.00005274,0.00001804,0.00002346,-0.
 00005130,0.00001768,-0.00002122,-0.00124776,-0.00011376,0.00000178,-0.
 00042168,0.00044039,0.00002396,-0.00180263,0.01305973,-0.01265634,0.00
 004247,-0.00012196,0.00018589,-0.06713349,-0.08402793,0.13884951,0.001
 46634,0.00446403,-0.00261610,0.00099679,-0.00183508,0.00013394,0.00014
 482,-0.00167447,0.00099685,0.00072251,0.00006151,0.00011221,0.00040286
 ,0.00027082,-0.00012341,-0.00011625,0.00011039,0.00007800,-0.00037096,
 -0.00044744,0.00013637,-0.00013470,0.00019657,-0.00017917,0.00045348,-
 0.00028781,-0.00015077,0.06551251,-0.00001632,0.00000778,0.00001296,0.
 00002355,-0.00001635,0.00000242,-0.00001665,0.00001052,-0.00000824,-0.
 00005507,0.00000830,-0.00000095,0.00017869,0.00004247,0.00000995,-0.00
 031044,-0.00004754,-0.00000533,-0.00024063,-0.00004911,-0.00002430,0.0
 0000381,-0.00000034,0.00000080,0.00000606,0.00000261,0.00000096,-0.000
 00830,-0.00000163,-0.00000570,-0.00000873,-0.00000214,0.00000452,0.000
 00594,0.00000292,-0.00000230,0.00000476,-0.00000127,-0.00000363,0.0000
 1796,-0.00000500,-0.00000666,0.00001768,-0.00000547,0.00000933,0.00049
 572,0.00015000,0.00000948,0.00342415,-0.00671893,-0.00133172,-0.015046
 61,-0.01867910,0.03185677,-0.00074016,0.00106255,0.00127475,-0.0563730
 0,-0.14776290,0.13607681,-0.00056364,-0.00108654,0.00095469,-0.0006697
 1,0.00063473,-0.00022358,-0.00036997,0.00103278,-0.00048278,-0.0006692
 7,-0.00075597,0.00187041,0.00004237,0.00020407,-0.00039015,0.00019306,
 0.00020187,0.00000656,0.00002737,-0.00013243,-0.00007124,0.00031786,0.
 00049108,-0.00018191,0.00013601,-0.00047642,-0.00137837,0.06301257,0.1
 6028888,0.00001992,-0.00000192,-0.00001643,-0.00003253,0.00002904,0.00
 000735,0.00001948,-0.00000280,0.00002043,0.00007399,-0.00002931,-0.000
 00684,-0.00021314,0.00014798,0.00001577,0.00046646,-0.00009304,-0.0000
 3376,0.00024461,-0.00004602,-0.00002051,-0.00000657,0.00000161,-0.0000
 0378,-0.00001113,-0.00000716,-0.00000100,0.00001118,0.00000064,0.00000
 550,0.00001017,0.00000190,-0.00000791,-0.00000801,-0.00000380,0.000006
 57,-0.00000447,-0.00000571,-0.00000279,-0.00002349,0.00000671,0.000012
 22,-0.00002122,0.00000933,-0.00000859,-0.00062986,-0.00006016,0.000048
 54,-0.00057994,0.00030584,0.00088971,0.00071069,-0.00002286,0.00061442
 ,-0.00045707,-0.00085128,0.00203412,0.09403146,0.13538888,-0.29032363,
 0.00126717,0.00149450,0.00003816,0.00076285,-0.00129481,-0.00002027,0.
 00091192,-0.00213634,0.00016512,0.00030119,-0.00003965,0.00034444,-0.0
 0000458,-0.00012019,-0.00001753,0.00008561,-0.00016197,0.00032706,-0.0
 0015705,0.00000559,-0.00006313,-0.00010211,0.00013171,-0.00020044,0.00
 053575,-0.00004910,-0.00035096,-0.11083999,-0.15022644,0.31009951,0.00
 004362,-0.00001049,-0.00003574,-0.00007148,0.00006127,-0.00000168,0.00
 004277,-0.00001199,0.00003429,0.00016597,-0.00006043,0.00000199,-0.000
 47646,0.00027684,-0.00000148,0.00093353,-0.00017905,-0.00000132,0.0004
 9600,-0.00009102,0.00001226,-0.00001465,-0.00000008,-0.00000263,-0.000
 02333,-0.00001313,-0.00000598,0.00002554,0.00000225,0.00001177,0.00002
 508,0.00000266,-0.00001251,-0.00002230,-0.00001290,0.00000589,-0.00001
 364,0.00000099,0.00000398,-0.00005131,0.00001774,0.00002119,-0.0000527
 4,0.00001797,-0.00002349,-0.00124788,-0.00011378,-0.00000143,0.0000421
 1,-0.00012211,-0.00018491,-0.00179429,0.01309692,0.01261924,-0.0004220
 4,0.00044166,-0.00002436,-0.06727269,-0.08452197,-0.13873214,0.0014665
 6,0.00447234,0.00260318,0.00099683,-0.00183585,-0.00012917,0.00014420,
 -0.00167690,-0.00099212,-0.00013438,0.00019711,0.00017861,-0.00037081,
 -0.00044774,-0.00013490,0.00045337,-0.00028753,0.00015152,0.00040287,0
 .00027118,0.00012242,0.00072243,0.00006159,-0.00011219,-0.00011628,0.0
 0011015,-0.00007827,0.00113038,0.00686641,0.01399873,0.06564427,-0.000
 01671,0.00001056,0.00000828,0.00002365,-0.00001645,-0.00000236,-0.0000
 1639,0.00000775,-0.00001303,-0.00005532,0.00000840,0.00000092,0.000179
 41,0.00004198,-0.00001003,-0.00031201,-0.00004727,0.00000540,-0.000241
 44,-0.00004891,0.00002439,0.00000478,-0.00000124,0.00000363,0.00000596
 ,0.00000294,0.00000231,-0.00000876,-0.00000215,-0.00000454,-0.00000834
 ,-0.00000162,0.00000572,0.00000609,0.00000263,-0.00000097,0.00000383,-
 0.00000034,-0.00000081,0.00001775,-0.00000553,-0.00000935,0.00001804,-
 0.00000501,0.00000671,0.00049787,0.00015026,-0.00000979,-0.00073908,0.
 00106098,-0.00127136,-0.01506688,-0.01877387,-0.03179099,0.00342612,-0
 .00671564,0.00135268,-0.05673325,-0.14857087,-0.13646398,-0.00056773,-
 0.00109479,-0.00095217,-0.00067219,0.00063975,0.00022187,-0.00037335,0
 .00104130,0.00048136,0.00031822,0.00049107,0.00017984,0.00002801,-0.00
 013215,0.00007138,0.00013483,-0.00047218,0.00137846,0.00004254,0.00020
 555,0.00038950,-0.00067091,-0.00076123,-0.00186688,0.00019280,0.000202
 32,-0.00000633,0.00683525,0.01156265,0.01762976,0.06343147,0.16118313,
 -0.00001945,0.00000283,0.00002043,0.00003250,-0.00002900,0.00000745,-0
 .00001990,0.00000186,-0.00001642,-0.00007393,0.00002930,-0.00000692,0.
 00021290,-0.00014811,0.00001616,-0.00046611,0.00009311,-0.00003404,-0.
 00024426,0.00004611,-0.00002068,0.00000446,0.00000571,-0.00000282,0.00
 000800,0.00000381,0.00000656,-0.00001016,-0.00000192,-0.00000790,-0.00
 001117,-0.00000062,0.00000549,0.00001113,0.00000715,-0.00000102,0.0000
 0657,-0.00000162,-0.00000378,0.00002120,-0.00000935,-0.00000856,0.0000
 2346,-0.00000667,0.00001222,0.00062922,0.00005999,0.00004849,0.0004602
 0,0.00085351,0.00203503,-0.00066352,0.00007157,0.00070158,0.00057031,-
 0.00028384,0.00088638,-0.09399446,-0.13575869,-0.28937834,-0.00126658,
 -0.00149363,0.00004394,-0.00076156,0.00129397,-0.00002386,-0.00091200,
 0.00213519,0.00015770,0.00010103,-0.00013396,-0.00020072,0.00015707,-0
 .00000508,-0.00006338,-0.00053637,0.00004970,-0.00035519,0.00000422,0.
 00011942,-0.00001914,-0.00029953,0.00004282,0.00034998,-0.00008600,0.0
 0016227,0.00032670,-0.01403332,-0.01773802,-0.02360749,0.11079645,0.15
 063127,0.30907600,0.00156608,-0.00048467,-0.00114973,-0.00065806,0.005
 20555,-0.00000592,0.00156600,-0.00048163,0.00115077,0.00286433,-0.0000
 6360,-0.00000024,-0.00496519,-0.04405985,0.00005396,-0.01206044,0.0183
 8367,-0.00002211,0.01438765,0.02788247,-0.00003709,-0.00020110,-0.0001
 2910,-0.00000706,-0.00014008,0.00005486,-0.00002168,0.00050855,0.00033
 622,0.00061259,0.00050843,0.00033459,-0.00061347,-0.00014007,0.0000549
 3,0.00002156,-0.00020112,-0.00012909,0.00000749,-0.00124790,0.00049773
 ,0.00062907,-0.00124775,0.00049588,-0.00063001,0.01695549,-0.00185582,
 0.00000155,0.00097902,-0.00021054,0.00092109,-0.00040943,-0.00026485,0
 .00000051,0.00097850,-0.00021312,-0.00092072,0.00364899,-0.00199713,0.
 00000207,-0.02099041,0.04968346,-0.00006151,-0.31172917,-0.02807323,0.
 00007137,-0.01222789,-0.02375618,0.00003101,-0.00062029,-0.00051332,0.
 00042060,0.00050742,-0.00007277,-0.00037745,-0.00017029,-0.00010376,-0
 .00005293,0.00050765,-0.00007170,0.00037735,-0.00062061,-0.00051458,-0
 .00041875,-0.00017031,-0.00010352,0.00005319,-0.00065120,0.00031452,-0
 .00036001,-0.00065126,0.00031572,0.00035957,0.32412444,0.00021771,-0.0
 0003483,-0.00012563,0.00010742,0.00038186,0.00000268,0.00021653,-0.000
 03429,0.00012563,0.00056859,-0.00018535,0.00000009,-0.00856244,-0.0025
 0678,0.00000441,0.00076739,-0.00007603,-0.00000192,0.00833877,-0.01089
 386,-0.00000422,-0.00003846,0.00000750,0.00000638,-0.00005740,-0.00005
 508,-0.00001692,0.00006761,0.00002867,0.00005989,0.00006747,0.00002830
 ,-0.00005981,-0.00005730,-0.00005500,0.00001707,-0.00003838,0.00000741
 ,-0.00000666,-0.00011379,0.00015023,0.00005998,-0.00011375,0.00015003,
 -0.00006017,-0.00185582,-0.00302562,0.00000511,-0.00032345,-0.00014136
 ,0.00012475,-0.00091621,-0.00451546,0.00001336,-0.00032234,-0.00014177
 ,-0.00012389,0.00158648,-0.00074360,0.00000098,0.05273653,0.00334938,-
 0.00000590,-0.04672827,-0.05974208,0.00004381,-0.00530772,0.00221101,-
 0.00001094,0.00008087,0.00025291,-0.00020657,-0.00002155,0.00006203,0.
 00003596,-0.00000477,0.00008125,-0.00001377,-0.00002132,0.00006247,-0.
 00003626,0.00008058,0.00025405,0.00020613,-0.00000483,0.00008156,0.000
 01290,0.00005658,0.00003793,-0.00000092,0.00005640,0.00003797,0.000000
 93,-0.00046113,0.07496653,0.00048116,-0.00008752,-0.00003402,0.0000000
 4,0.00000202,0.00255394,-0.00048212,0.00008760,-0.00003474,-0.00000096
 ,0.00000011,-0.00009009,0.00001059,0.00000845,0.00050376,0.00000012,-0
 .00000369,-0.00150392,-0.00001297,-0.00000649,-0.01356396,-0.00003643,
 0.00002531,-0.00010506,-0.00003305,-0.00001181,-0.00000190,0.00005069,
 0.00008414,0.00006731,-0.00005096,-0.00008411,0.00006784,0.00003323,0.
 00001194,-0.00000198,0.00003656,-0.00002559,-0.00010497,-0.00000134,-0
 .00000981,0.00004841,0.00000187,0.00000946,0.00004863,0.00000076,0.000
 00518,0.00096081,-0.00056132,-0.00006764,0.00013927,0.00000209,0.00001
 246,0.00543433,0.00056151,0.00006855,0.00013955,-0.00000221,0.00000148
 ,0.00014575,-0.00006609,-0.00000471,0.00421811,0.00009638,0.00004112,-
 0.03098453,0.00000760,-0.00000879,-0.00670593,0.00014314,-0.00013947,0
 .00012213,-0.00010561,-0.00017448,-0.00002989,0.00003200,-0.00009266,-
 0.00023424,0.00010547,0.00017425,-0.00003052,-0.00014315,0.00013935,0.
 00012124,-0.00003194,0.00009175,-0.00023455,0.00008725,-0.00000907,0.0
 0005614,-0.00008721,0.00000910,0.00005615,-0.00003506,-0.00004645,0.03
 897694\\0.00000024,0.00000057,-0.00000109,0.00000016,0.00000177,0.0000
 0113,-0.00000005,0.00000081,0.00000075,0.00000147,0.00000079,-0.000000
 18,0.00000043,-0.00000402,-0.00000196,-0.00000122,0.00000170,0.0000006
 6,-0.00000120,0.00000366,0.00000025,0.00000053,0.00000103,-0.00000033,
 0.00000015,-0.00000054,0.00000007,-0.00000105,0.00000082,0.00000065,-0
 .00000108,0.00000074,-0.00000058,0.00000016,-0.00000055,-0.00000006,0.
 00000054,0.00000098,0.00000038,-0.00000020,0.00000004,0.00000012,0.000
 00009,0.00000006,0.00000005,-0.00000119,-0.00000026,0.00000054,-0.0000
 0025,-0.00000060,-0.00000089,0.,-0.00000151,0.00000075,0.00000004,-0.0
 0000053,0.00000138,-0.00000181,-0.00000083,0.00000043,-0.00000065,0.00
 000378,-0.00000428,0.00000100,-0.00000166,0.00000113,0.00000144,-0.000
 00369,0.00000076,-0.00000011,0.00000039,-0.00000003,0.00000099,-0.0000
 0090,0.00000075,-0.00000058,-0.00000091,-0.00000045,0.00000104,-0.0000
 0072,-0.00000054,-0.00000019,0.00000069,-0.00000004,-0.00000045,-0.000
 00103,0.00000042,-0.00000008,-0.00000025,0.,0.00000018,-0.00000007,-0.
 00000022,0.00000164,0.00000024,0.00000041\\\@


 THEORY:  SUPPOSITION WHICH HAS SCIENTIFIC BASIS,
          BUT NOT EXPERIMENTALLY PROVEN.
 FACT:    A THEORY WHICH HAS BEEN PROVEN BY ENOUGH 
          MONEY TO PAY FOR THE EXPERIMENTS.

                          --  THE WIZARD OF ID
 File lengths (MBytes):  RWF=    218 Int=      0 D2E=      0 Chk=      5 Scr=      1
 Normal termination of Gaussian 16 at Mon Apr  1 15:31:42 2024.
real 1466.05
user 5318.80
sys 33.06
