 Entering Gaussian System, Link 0=g16
 Input=gaussian_test.inp
 Output=gaussian_test.log
 Initial command:
 /sw/restricted/lms/sw/Gaussian/g16_B01/g16/l1.exe "/scratch/user/peterchao1/peterchao1/6113309_1660079070000000130990947/Gau-172757.inp" -scrdir="/scratch/user/peterchao1/peterchao1/6113309_1660079070000000130990947/"
 Entering Link 1 = /sw/restricted/lms/sw/Gaussian/g16_B01/g16/l1.exe PID=    172758.
  
 Copyright (c) 1988-2017, Gaussian, Inc.  All Rights Reserved.
  
 This is part of the Gaussian(R) 16 program.  It is based on
 the Gaussian(R) 09 system (copyright 2009, Gaussian, Inc.),
 the Gaussian(R) 03 system (copyright 2003, Gaussian, Inc.),
 the Gaussian(R) 98 system (copyright 1998, Gaussian, Inc.),
 the Gaussian(R) 94 system (copyright 1995, Gaussian, Inc.),
 the Gaussian 92(TM) system (copyright 1992, Gaussian, Inc.),
 the Gaussian 90(TM) system (copyright 1990, Gaussian, Inc.),
 the Gaussian 88(TM) system (copyright 1988, Gaussian, Inc.),
 the Gaussian 86(TM) system (copyright 1986, Carnegie Mellon
 University), and the Gaussian 82(TM) system (copyright 1983,
 Carnegie Mellon University). Gaussian is a federally registered
 trademark of Gaussian, Inc.
  
 This software contains proprietary and confidential information,
 including trade secrets, belonging to Gaussian, Inc.
  
 This software is provided under written license and may be
 used, copied, transmitted, or stored only in accord with that
 written license.
  
 The following legend is applicable only to US Government
 contracts under FAR:
  
                    RESTRICTED RIGHTS LEGEND
  
 Use, reproduction and disclosure by the US Government is
 subject to restrictions as set forth in subparagraphs (a)
 and (c) of the Commercial Computer Software - Restricted
 Rights clause in FAR 52.227-19.
  
 Gaussian, Inc.
 340 Quinnipiac St., Bldg. 40, Wallingford CT 06492
  
  
 ---------------------------------------------------------------
 Warning -- This program may not be used in any manner that
 competes with the business of Gaussian, Inc. or will provide
 assistance to any competitor of Gaussian, Inc.  The licensee
 of this program is prohibited from giving any competitor of
 Gaussian, Inc. access to this program.  By using this program,
 the user acknowledges that Gaussian, Inc. is engaged in the
 business of creating and licensing software in the field of
 computational chemistry and represents and warrants to the
 licensee that it is not a competitor of Gaussian, Inc. and that
 it will not use this program in any manner prohibited above.
 ---------------------------------------------------------------
  

 Cite this work as:
 Gaussian 16, Revision B.01,
 M. J. Frisch, G. W. Trucks, H. B. Schlegel, G. E. Scuseria, 
 M. A. Robb, J. R. Cheeseman, G. Scalmani, V. Barone, 
 G. A. Petersson, H. Nakatsuji, X. Li, M. Caricato, A. V. Marenich, 
 J. Bloino, B. G. Janesko, R. Gomperts, B. Mennucci, H. P. Hratchian, 
 J. V. Ortiz, A. F. Izmaylov, J. L. Sonnenberg, D. Williams-Young, 
 F. Ding, F. Lipparini, F. Egidi, J. Goings, B. Peng, A. Petrone, 
 T. Henderson, D. Ranasinghe, V. G. Zakrzewski, J. Gao, N. Rega, 
 G. Zheng, W. Liang, M. Hada, M. Ehara, K. Toyota, R. Fukuda, 
 J. Hasegawa, M. Ishida, T. Nakajima, Y. Honda, O. Kitao, H. Nakai, 
 T. Vreven, K. Throssell, J. A. Montgomery, Jr., J. E. Peralta, 
 F. Ogliaro, M. J. Bearpark, J. J. Heyd, E. N. Brothers, K. N. Kudin, 
 V. N. Staroverov, T. A. Keith, R. Kobayashi, J. Normand, 
 K. Raghavachari, A. P. Rendell, J. C. Burant, S. S. Iyengar, 
 J. Tomasi, M. Cossi, J. M. Millam, M. Klene, C. Adamo, R. Cammi, 
 J. W. Ochterski, R. L. Martin, K. Morokuma, O. Farkas, 
 J. B. Foresman, and D. J. Fox, Gaussian, Inc., Wallingford CT, 2016.
 
 ******************************************
 Gaussian 16:  ES64L-G16RevB.01 20-Dec-2017
                 9-Aug-2022 
 ******************************************
 %nprocshared=4
 Will use up to    4 processors via shared memory.
 %mem=8000mb
 ----------------------------------------------------------------------
 #T wB97XD/def2svpp opt=tight freq int(grid=ultrafine) scf=(verytight,q
 c)
 ----------------------------------------------------------------------
 -----
 dimer
 -----
 Symbolic Z-matrix:
 Charge =  0 Multiplicity = 1
 C                    -4.30856  -0.07758  -0.30959 
 C                    -2.78684  -0.01013  -0.15993 
 C                    -2.14094   0.01812  -1.5476 
 C                    -2.42331   1.2718    0.61741 
 O                    -1.05488   1.37808   0.9348 
 C                    -2.34003  -1.25645   0.6389 
 O                    -0.97708  -1.28993   0.99451 
 H                    -4.67704   0.80821  -0.82128 
 H                    -4.79424  -0.13823   0.66194 
 H                    -4.59062  -0.95293  -0.88986 
 H                    -2.67672   0.71455  -2.1887 
 H                    -2.17356  -0.96671  -2.00847 
 H                    -1.10915   0.34916  -1.49376 
 H                    -3.01633   1.30711   1.54354 
 H                    -2.67135   2.152     0.01806 
 H                    -0.80994   0.50364   1.29456 
 H                    -2.60977  -2.15725   0.07351 
 H                    -2.88347  -1.27979   1.58973 
 H                    -0.41782  -1.47681   0.21423 
 C                     2.13968  -0.01847   1.54753 
 C                     2.78659   0.01035   0.16033 
 C                     4.30817   0.07857   0.31114 
 C                     2.42419  -1.27165  -0.6174 
 O                     1.05596  -1.37848  -0.93558 
 C                     2.33981   1.25655  -0.63872 
 O                     0.97716   1.28938  -0.99554 
 H                     2.16968   0.96667   2.00791 
 H                     2.67648  -0.71338   2.18944 
 H                     1.1087   -0.35192   1.493 
 H                     4.67676  -0.8071    0.82298 
 H                     4.58925   0.95393   0.89185 
 H                     4.79459   0.13974  -0.65998 
 H                     2.67225  -2.15182  -0.01801 
 H                     3.01775  -1.30658  -1.54319 
 H                     0.81098  -0.50418  -1.29562 
 H                     2.88414   1.28032  -1.58905 
 H                     2.60856   2.15741  -0.07292 
 H                     0.41724   1.47612  -0.21568 
 
 Add virtual bond connecting atoms O24        and H19        Dist= 3.54D+00.
 Add virtual bond connecting atoms H38        and O5         Dist= 3.54D+00.

 GradGradGradGradGradGradGradGradGradGradGradGradGradGradGradGradGradGrad
 Initialization pass.
                           ----------------------------
                           !    Initial Parameters    !
                           ! (Angstroms and Degrees)  !
 --------------------------                            --------------------------
 ! Name  Definition              Value          Derivative Info.                !
 --------------------------------------------------------------------------------
 ! R1    R(1,2)                  1.5306         estimate D2E/DX2                !
 ! R2    R(1,8)                  1.0873         estimate D2E/DX2                !
 ! R3    R(1,9)                  1.0879         estimate D2E/DX2                !
 ! R4    R(1,10)                 1.0874         estimate D2E/DX2                !
 ! R5    R(2,3)                  1.5309         estimate D2E/DX2                !
 ! R6    R(2,4)                  1.5426         estimate D2E/DX2                !
 ! R7    R(2,6)                  1.5463         estimate D2E/DX2                !
 ! R8    R(3,11)                 1.0877         estimate D2E/DX2                !
 ! R9    R(3,12)                 1.0878         estimate D2E/DX2                !
 ! R10   R(3,13)                 1.0849         estimate D2E/DX2                !
 ! R11   R(4,5)                  1.4088         estimate D2E/DX2                !
 ! R12   R(4,14)                 1.1003         estimate D2E/DX2                !
 ! R13   R(4,15)                 1.0934         estimate D2E/DX2                !
 ! R14   R(5,16)                 0.9768         estimate D2E/DX2                !
 ! R15   R(5,38)                 1.8709         estimate D2E/DX2                !
 ! R16   R(6,7)                  1.409          estimate D2E/DX2                !
 ! R17   R(6,17)                 1.0972         estimate D2E/DX2                !
 ! R18   R(6,18)                 1.0954         estimate D2E/DX2                !
 ! R19   R(7,19)                 0.978          estimate D2E/DX2                !
 ! R20   R(19,24)                1.8718         estimate D2E/DX2                !
 ! R21   R(20,21)                1.5309         estimate D2E/DX2                !
 ! R22   R(20,27)                1.0878         estimate D2E/DX2                !
 ! R23   R(20,28)                1.0877         estimate D2E/DX2                !
 ! R24   R(20,29)                1.0849         estimate D2E/DX2                !
 ! R25   R(21,22)                1.5306         estimate D2E/DX2                !
 ! R26   R(21,23)                1.5426         estimate D2E/DX2                !
 ! R27   R(21,25)                1.5463         estimate D2E/DX2                !
 ! R28   R(22,30)                1.0873         estimate D2E/DX2                !
 ! R29   R(22,31)                1.0874         estimate D2E/DX2                !
 ! R30   R(22,32)                1.0878         estimate D2E/DX2                !
 ! R31   R(23,24)                1.4088         estimate D2E/DX2                !
 ! R32   R(23,33)                1.0934         estimate D2E/DX2                !
 ! R33   R(23,34)                1.1003         estimate D2E/DX2                !
 ! R34   R(24,35)                0.9768         estimate D2E/DX2                !
 ! R35   R(25,26)                1.409          estimate D2E/DX2                !
 ! R36   R(25,36)                1.0954         estimate D2E/DX2                !
 ! R37   R(25,37)                1.0972         estimate D2E/DX2                !
 ! R38   R(26,38)                0.978          estimate D2E/DX2                !
 ! A1    A(2,1,8)              110.3069         estimate D2E/DX2                !
 ! A2    A(2,1,9)              111.0392         estimate D2E/DX2                !
 ! A3    A(2,1,10)             110.2145         estimate D2E/DX2                !
 ! A4    A(8,1,9)              108.3249         estimate D2E/DX2                !
 ! A5    A(8,1,10)             108.4671         estimate D2E/DX2                !
 ! A6    A(9,1,10)             108.4138         estimate D2E/DX2                !
 ! A7    A(1,2,3)              109.3693         estimate D2E/DX2                !
 ! A8    A(1,2,4)              108.6743         estimate D2E/DX2                !
 ! A9    A(1,2,6)              107.5944         estimate D2E/DX2                !
 ! A10   A(3,2,4)              109.999          estimate D2E/DX2                !
 ! A11   A(3,2,6)              111.1761         estimate D2E/DX2                !
 ! A12   A(4,2,6)              109.9604         estimate D2E/DX2                !
 ! A13   A(2,3,11)             109.7711         estimate D2E/DX2                !
 ! A14   A(2,3,12)             110.7734         estimate D2E/DX2                !
 ! A15   A(2,3,13)             111.2163         estimate D2E/DX2                !
 ! A16   A(11,3,12)            108.3714         estimate D2E/DX2                !
 ! A17   A(11,3,13)            107.5976         estimate D2E/DX2                !
 ! A18   A(12,3,13)            109.0132         estimate D2E/DX2                !
 ! A19   A(2,4,5)              113.8988         estimate D2E/DX2                !
 ! A20   A(2,4,14)             108.893          estimate D2E/DX2                !
 ! A21   A(2,4,15)             109.8338         estimate D2E/DX2                !
 ! A22   A(5,4,14)             109.3584         estimate D2E/DX2                !
 ! A23   A(5,4,15)             106.4472         estimate D2E/DX2                !
 ! A24   A(14,4,15)            108.2572         estimate D2E/DX2                !
 ! A25   A(4,5,16)             105.0129         estimate D2E/DX2                !
 ! A26   A(4,5,38)             129.0297         estimate D2E/DX2                !
 ! A27   A(16,5,38)             94.3634         estimate D2E/DX2                !
 ! A28   A(2,6,7)              115.4073         estimate D2E/DX2                !
 ! A29   A(2,6,17)             108.9338         estimate D2E/DX2                !
 ! A30   A(2,6,18)             108.7982         estimate D2E/DX2                !
 ! A31   A(7,6,17)             110.3866         estimate D2E/DX2                !
 ! A32   A(7,6,18)             105.0888         estimate D2E/DX2                !
 ! A33   A(17,6,18)            107.9286         estimate D2E/DX2                !
 ! A34   A(6,7,19)             110.8751         estimate D2E/DX2                !
 ! A35   A(7,19,24)            158.4757         estimate D2E/DX2                !
 ! A36   A(21,20,27)           110.7802         estimate D2E/DX2                !
 ! A37   A(21,20,28)           109.7695         estimate D2E/DX2                !
 ! A38   A(21,20,29)           111.2108         estimate D2E/DX2                !
 ! A39   A(27,20,28)           108.3731         estimate D2E/DX2                !
 ! A40   A(27,20,29)           109.0149         estimate D2E/DX2                !
 ! A41   A(28,20,29)           107.5945         estimate D2E/DX2                !
 ! A42   A(20,21,22)           109.3686         estimate D2E/DX2                !
 ! A43   A(20,21,23)           109.9934         estimate D2E/DX2                !
 ! A44   A(20,21,25)           111.1813         estimate D2E/DX2                !
 ! A45   A(22,21,23)           108.6788         estimate D2E/DX2                !
 ! A46   A(22,21,25)           107.5919         estimate D2E/DX2                !
 ! A47   A(23,21,25)           109.9596         estimate D2E/DX2                !
 ! A48   A(21,22,30)           110.3087         estimate D2E/DX2                !
 ! A49   A(21,22,31)           110.21           estimate D2E/DX2                !
 ! A50   A(21,22,32)           111.0426         estimate D2E/DX2                !
 ! A51   A(30,22,31)           108.4635         estimate D2E/DX2                !
 ! A52   A(30,22,32)           108.3276         estimate D2E/DX2                !
 ! A53   A(31,22,32)           108.414          estimate D2E/DX2                !
 ! A54   A(21,23,24)           113.894          estimate D2E/DX2                !
 ! A55   A(21,23,33)           109.835          estimate D2E/DX2                !
 ! A56   A(21,23,34)           108.8958         estimate D2E/DX2                !
 ! A57   A(24,23,33)           106.4461         estimate D2E/DX2                !
 ! A58   A(24,23,34)           109.3585         estimate D2E/DX2                !
 ! A59   A(33,23,34)           108.2592         estimate D2E/DX2                !
 ! A60   A(19,24,23)           129.044          estimate D2E/DX2                !
 ! A61   A(19,24,35)            94.357          estimate D2E/DX2                !
 ! A62   A(23,24,35)           105.0084         estimate D2E/DX2                !
 ! A63   A(21,25,26)           115.4089         estimate D2E/DX2                !
 ! A64   A(21,25,36)           108.7964         estimate D2E/DX2                !
 ! A65   A(21,25,37)           108.9316         estimate D2E/DX2                !
 ! A66   A(26,25,36)           105.0916         estimate D2E/DX2                !
 ! A67   A(26,25,37)           110.3861         estimate D2E/DX2                !
 ! A68   A(36,25,37)           107.9286         estimate D2E/DX2                !
 ! A69   A(25,26,38)           110.8662         estimate D2E/DX2                !
 ! A70   A(5,38,26)            158.5566         estimate D2E/DX2                !
 ! D1    D(8,1,2,3)            -62.1202         estimate D2E/DX2                !
 ! D2    D(8,1,2,4)             57.9782         estimate D2E/DX2                !
 ! D3    D(8,1,2,6)            177.0039         estimate D2E/DX2                !
 ! D4    D(9,1,2,3)            177.7788         estimate D2E/DX2                !
 ! D5    D(9,1,2,4)            -62.1228         estimate D2E/DX2                !
 ! D6    D(9,1,2,6)             56.9029         estimate D2E/DX2                !
 ! D7    D(10,1,2,3)            57.6274         estimate D2E/DX2                !
 ! D8    D(10,1,2,4)           177.7258         estimate D2E/DX2                !
 ! D9    D(10,1,2,6)           -63.2485         estimate D2E/DX2                !
 ! D10   D(1,2,3,11)            44.6725         estimate D2E/DX2                !
 ! D11   D(1,2,3,12)           -74.9681         estimate D2E/DX2                !
 ! D12   D(1,2,3,13)           163.6305         estimate D2E/DX2                !
 ! D13   D(4,2,3,11)           -74.6106         estimate D2E/DX2                !
 ! D14   D(4,2,3,12)           165.7488         estimate D2E/DX2                !
 ! D15   D(4,2,3,13)            44.3474         estimate D2E/DX2                !
 ! D16   D(6,2,3,11)           163.3451         estimate D2E/DX2                !
 ! D17   D(6,2,3,12)            43.7045         estimate D2E/DX2                !
 ! D18   D(6,2,3,13)           -77.6969         estimate D2E/DX2                !
 ! D19   D(1,2,4,5)            174.0099         estimate D2E/DX2                !
 ! D20   D(1,2,4,14)            51.6757         estimate D2E/DX2                !
 ! D21   D(1,2,4,15)           -66.7126         estimate D2E/DX2                !
 ! D22   D(3,2,4,5)            -66.2834         estimate D2E/DX2                !
 ! D23   D(3,2,4,14)           171.3823         estimate D2E/DX2                !
 ! D24   D(3,2,4,15)            52.994          estimate D2E/DX2                !
 ! D25   D(6,2,4,5)             56.4797         estimate D2E/DX2                !
 ! D26   D(6,2,4,14)           -65.8546         estimate D2E/DX2                !
 ! D27   D(6,2,4,15)           175.7571         estimate D2E/DX2                !
 ! D28   D(1,2,6,7)           -173.6206         estimate D2E/DX2                !
 ! D29   D(1,2,6,17)            61.5837         estimate D2E/DX2                !
 ! D30   D(1,2,6,18)           -55.8385         estimate D2E/DX2                !
 ! D31   D(3,2,6,7)             66.6454         estimate D2E/DX2                !
 ! D32   D(3,2,6,17)           -58.1503         estimate D2E/DX2                !
 ! D33   D(3,2,6,18)          -175.5725         estimate D2E/DX2                !
 ! D34   D(4,2,6,7)            -55.4214         estimate D2E/DX2                !
 ! D35   D(4,2,6,17)           179.7829         estimate D2E/DX2                !
 ! D36   D(4,2,6,18)            62.3607         estimate D2E/DX2                !
 ! D37   D(2,4,5,16)           -46.827          estimate D2E/DX2                !
 ! D38   D(2,4,5,38)            61.7638         estimate D2E/DX2                !
 ! D39   D(14,4,5,16)           75.251          estimate D2E/DX2                !
 ! D40   D(14,4,5,38)         -176.1582         estimate D2E/DX2                !
 ! D41   D(15,4,5,16)         -168.009          estimate D2E/DX2                !
 ! D42   D(15,4,5,38)          -59.4181         estimate D2E/DX2                !
 ! D43   D(4,5,38,26)          -37.9035         estimate D2E/DX2                !
 ! D44   D(16,5,38,26)          75.4424         estimate D2E/DX2                !
 ! D45   D(2,6,7,19)           -73.0678         estimate D2E/DX2                !
 ! D46   D(17,6,7,19)           50.9703         estimate D2E/DX2                !
 ! D47   D(18,6,7,19)          167.0948         estimate D2E/DX2                !
 ! D48   D(6,7,19,24)          143.0215         estimate D2E/DX2                !
 ! D49   D(7,19,24,23)          37.751          estimate D2E/DX2                !
 ! D50   D(7,19,24,35)         -75.5891         estimate D2E/DX2                !
 ! D51   D(27,20,21,22)         75.0768         estimate D2E/DX2                !
 ! D52   D(27,20,21,23)       -165.6384         estimate D2E/DX2                !
 ! D53   D(27,20,21,25)        -43.5954         estimate D2E/DX2                !
 ! D54   D(28,20,21,22)        -44.5692         estimate D2E/DX2                !
 ! D55   D(28,20,21,23)         74.7157         estimate D2E/DX2                !
 ! D56   D(28,20,21,25)       -163.2414         estimate D2E/DX2                !
 ! D57   D(29,20,21,22)       -163.5188         estimate D2E/DX2                !
 ! D58   D(29,20,21,23)        -44.234          estimate D2E/DX2                !
 ! D59   D(29,20,21,25)         77.8089         estimate D2E/DX2                !
 ! D60   D(20,21,22,30)         62.1188         estimate D2E/DX2                !
 ! D61   D(20,21,22,31)        -57.6226         estimate D2E/DX2                !
 ! D62   D(20,21,22,32)       -177.7735         estimate D2E/DX2                !
 ! D63   D(23,21,22,30)        -57.9751         estimate D2E/DX2                !
 ! D64   D(23,21,22,31)       -177.7164         estimate D2E/DX2                !
 ! D65   D(23,21,22,32)         62.1326         estimate D2E/DX2                !
 ! D66   D(25,21,22,30)       -177.001          estimate D2E/DX2                !
 ! D67   D(25,21,22,31)         63.2577         estimate D2E/DX2                !
 ! D68   D(25,21,22,32)        -56.8932         estimate D2E/DX2                !
 ! D69   D(20,21,23,24)         66.2775         estimate D2E/DX2                !
 ! D70   D(20,21,23,33)        -52.9961         estimate D2E/DX2                !
 ! D71   D(20,21,23,34)       -171.3892         estimate D2E/DX2                !
 ! D72   D(22,21,23,24)       -174.0172         estimate D2E/DX2                !
 ! D73   D(22,21,23,33)         66.7091         estimate D2E/DX2                !
 ! D74   D(22,21,23,34)        -51.684          estimate D2E/DX2                !
 ! D75   D(25,21,23,24)        -56.4878         estimate D2E/DX2                !
 ! D76   D(25,21,23,33)       -175.7614         estimate D2E/DX2                !
 ! D77   D(25,21,23,34)         65.8455         estimate D2E/DX2                !
 ! D78   D(20,21,25,26)        -66.6521         estimate D2E/DX2                !
 ! D79   D(20,21,25,36)        175.5624         estimate D2E/DX2                !
 ! D80   D(20,21,25,37)         58.1424         estimate D2E/DX2                !
 ! D81   D(22,21,25,26)        173.6132         estimate D2E/DX2                !
 ! D82   D(22,21,25,36)         55.8277         estimate D2E/DX2                !
 ! D83   D(22,21,25,37)        -61.5923         estimate D2E/DX2                !
 ! D84   D(23,21,25,26)         55.4105         estimate D2E/DX2                !
 ! D85   D(23,21,25,36)        -62.3751         estimate D2E/DX2                !
 ! D86   D(23,21,25,37)       -179.7951         estimate D2E/DX2                !
 ! D87   D(21,23,24,19)        -61.7402         estimate D2E/DX2                !
 ! D88   D(21,23,24,35)         46.8454         estimate D2E/DX2                !
 ! D89   D(33,23,24,19)         59.4396         estimate D2E/DX2                !
 ! D90   D(33,23,24,35)        168.0251         estimate D2E/DX2                !
 ! D91   D(34,23,24,19)        176.1814         estimate D2E/DX2                !
 ! D92   D(34,23,24,35)        -75.2331         estimate D2E/DX2                !
 ! D93   D(21,25,26,38)         73.0843         estimate D2E/DX2                !
 ! D94   D(36,25,26,38)       -167.0775         estimate D2E/DX2                !
 ! D95   D(37,25,26,38)        -50.9517         estimate D2E/DX2                !
 ! D96   D(25,26,38,5)        -142.9088         estimate D2E/DX2                !
 --------------------------------------------------------------------------------
 Number of steps in this run=    214 maximum allowed number of steps=    228.
 GradGradGradGradGradGradGradGradGradGradGradGradGradGradGradGradGradGrad

                    Distance matrix (angstroms):
                    1          2          3          4          5
     1  C    0.000000
     2  C    1.530557   0.000000
     3  C    2.498082   1.530882   0.000000
     4  C    2.496867   1.542643   2.517679   0.000000
     5  O    3.775432   2.474916   3.031718   1.408765   0.000000
     6  C    2.482843   1.546315   2.538689   2.529714   2.946167
     7  O    3.777468   2.499170   3.086727   2.965850   2.669815
     8  H    1.087301   2.163315   2.753828   2.713679   4.065537
     9  H    1.087856   2.172912   3.456370   2.758890   4.044307
    10  H    1.087433   2.162249   2.715969   3.452324   4.611338
    11  H    2.611792   2.157128   1.087698   2.872108   3.581463
    12  H    2.869662   2.169849   1.087820   3.459557   3.925851
    13  H    3.438112   2.173204   1.084935   2.652413   2.638086
    14  H    2.649783   2.165553   3.461645   1.100296   2.054967
    15  H    2.785468   2.172513   2.699277   1.093385   2.013043
    16  H    3.892494   2.507514   3.175715   1.910909   0.976764
    17  H    2.712513   2.167024   2.753184   3.476925   3.957026
    18  H    2.661507   2.163949   3.475445   2.769071   3.291945
    19  H    4.167752   2.811299   2.882359   3.426283   3.012551
    20  C    6.710607   5.214024   5.282507   4.832265   3.539919
    21  C    7.111242   5.582657   5.215135   5.379889   4.150590
    22  C    8.640475   7.111181   6.711900   6.843274   5.553379
    23  C    6.844742   5.381030   4.834167   5.611783   4.640508
    24  O    5.555386   4.152240   3.541922   4.641238   3.943681
    25  C    6.788894   5.302470   4.736758   4.925989   3.743616
    26  O    5.502544   4.068738   3.412247   3.763655   2.804154
    27  H    6.959092   5.497340   5.667706   4.808551   3.423251
    28  H    7.445823   5.988485   6.140693   5.693866   4.457738
    29  H    5.715885   4.245492   4.465686   3.984748   2.825877
    30  H    9.085752   7.570104   7.265095   7.401014   6.135080
    31  H    9.037616   7.512804   7.219561   7.025117   5.660206
    32  H    9.112486   7.599376   6.993157   7.416962   6.188144
    33  H    7.288293   5.865882   5.496821   6.171677   5.221063
    34  H    7.530409   6.106340   5.326059   6.396977   5.471210
    35  H    5.231060   3.805018   3.008344   4.156250   3.463974
    36  H    7.430738   5.988954   5.181341   5.747826   4.679235
    37  H    7.273087   5.815160   5.413781   5.155632   3.878616
    38  H    4.975539   3.532437   3.231725   2.967233   1.870921
                    6          7          8          9         10
     6  C    0.000000
     7  O    1.408973   0.000000
     8  H    3.443338   4.624824   0.000000
     9  H    2.697054   4.000965   1.763357   0.000000
    10  H    2.737590   4.089265   1.764593   1.764451   0.000000
    11  H    3.463170   4.127900   2.424850   3.652026   2.851406
    12  H    2.668375   3.248680   3.290460   3.832153   2.663388
    13  H    2.939608   2.982543   3.659614   4.297029   3.765738
    14  H    2.801361   3.347333   2.932451   2.455034   3.675276
    15  H    3.480338   3.958652   2.555982   3.188471   3.761450
    16  H    2.422600   1.826166   4.418601   4.084956   4.602920
    17  H    1.097211   2.065464   3.724008   3.032267   2.510430
    18  H    1.095418   1.997171   3.659181   2.411431   3.028129
    19  H    1.980861   0.978030   4.943133   4.598405   4.348075
    20  C    4.735608   3.411253   7.263768   6.991268   7.218797
    21  C    5.302456   4.068394   7.570065   7.598859   7.513591
    22  C    6.788834   5.502153   9.085634   9.111746   9.038523
    23  C    4.927096   3.763935   7.402351   7.418021   7.027329
    24  O    3.745214   2.804703   6.136932   6.189921   5.662777
    25  C    5.463366   4.489297   7.033525   7.384561   7.278442
    26  O    4.489589   3.798979   5.677310   6.172062   6.003276
    27  H    5.210945   4.002671   7.409929   7.178345   7.601556
    28  H    5.278681   3.887003   8.090363   7.646943   7.896218
    29  H    3.666248   2.340692   6.338500   5.964980   6.206568
    30  H    7.033567   5.677008   9.633603   9.495950   9.425463
    31  H    7.277680   6.002457   9.424441   9.449627   9.543614
    32  H    7.385066   6.171991   9.496558   9.683509   9.451399
    33  H    5.133823   3.884024   7.963605   7.763073   7.412605
    34  H    5.785310   4.732744   8.012691   8.200901   7.644552
    35  H    3.773214   3.009862   5.662661   5.948483   5.435377
    36  H    6.220200   5.309426   7.614706   8.126296   7.832516
    37  H    6.053896   5.087279   7.447171   7.785332   7.884785
    38  H    3.974891   3.325618   5.173441   5.525920   5.606554
                   11         12         13         14         15
    11  H    0.000000
    12  H    1.764166   0.000000
    13  H    1.753203   1.769019   0.000000
    14  H    3.794225   4.300852   3.712171   0.000000
    15  H    2.633650   3.752464   2.824237   1.777620   0.000000
    16  H    3.957583   3.864117   2.808577   2.361301   2.794890
    17  H    3.656410   2.437681   3.315161   3.785253   4.310050
    18  H    4.277460   3.680896   3.912744   2.590722   3.780513
    19  H    3.959640   2.878059   2.594094   4.033559   4.276117
    20  C    6.139579   5.669952   4.465365   5.323687   5.495114
    21  C    5.988451   5.501042   4.245890   6.104816   5.864816
    22  C    7.445960   6.963195   5.716488   7.528377   7.286892
    23  C    5.695017   4.813251   3.984912   6.396792   6.171691
    24  O    4.459142   3.427893   2.825599   5.471933   5.221745
    25  C    5.278420   5.214367   3.667389   5.783863   5.132734
    26  O    3.886499   4.005376   2.341990   4.732361   3.883706
    27  H    6.415818   6.223590   4.836709   5.217880   5.366577
    28  H    7.061434   6.419466   5.387574   6.075173   6.443964
    29  H    5.387178   4.838545   3.785646   4.446439   4.768006
    30  H    8.090686   7.414139   6.338842   8.010787   7.962344
    31  H    7.895651   7.605019   6.207139   7.641613   7.410479
    32  H    7.647733   7.183163   5.966002   8.199314   7.762041
    33  H    6.445105   5.371061   4.767776   6.838317   6.861358
    34  H    6.076887   5.223190   4.446932   7.264257   6.838507
    35  H    3.800913   3.103160   2.110535   5.098035   4.572497
    36  H    5.621635   5.550263   4.101522   6.680523   5.848601
    37  H    5.873036   6.031186   4.371489   5.913996   5.280702
    38  H    3.747713   3.986698   2.287656   3.861711   3.170307
                   16         17         18         19         20
    16  H    0.000000
    17  H    3.436671   0.000000
    18  H    2.750867   1.773071   0.000000
    19  H    2.289773   2.299445   2.830240   0.000000
    20  C    3.006132   5.413349   5.179256   3.231908   0.000000
    21  C    3.803263   5.816073   5.988087   3.533097   1.530901
    22  C    5.229036   7.274147   7.429642   4.976298   2.498086
    23  C    4.155334   5.157744   5.748275   2.968277   2.517602
    24  O    3.463740   3.881016   4.680387   1.871829   3.031493
    25  C    3.771649   6.054717   6.219453   3.975332   2.538787
    26  O    3.009263   5.088044   5.309302   3.325854   3.086933
    27  H    3.098612   6.028593   5.545788   3.985354   1.087823
    28  H    3.799616   5.874209   5.620810   3.749528   1.087707
    29  H    2.110101   4.370487   4.099715   2.287113   1.084936
    30  H    5.660762   7.448356   7.613692   5.174335   2.753846
    31  H    5.432873   7.885108   7.830580   5.606991   2.715855
    32  H    5.946708   7.787081   8.125809   5.526900   3.456395
    33  H    4.571640   5.282810   5.849037   3.171445   2.699203
    34  H    5.097145   5.916610   6.681335   3.862718   3.461616
    35  H    3.217468   4.038399   4.751394   2.176139   3.175666
    36  H    4.750221   6.690589   7.065694   4.664383   3.475516
    37  H    4.036218   6.772642   6.688876   4.738032   2.753208
    38  H    2.175427   4.737907   4.663599   3.098696   2.882625
                   21         22         23         24         25
    21  C    0.000000
    22  C    1.530557   0.000000
    23  C    1.542637   2.496933   0.000000
    24  O    2.474869   3.775476   1.408797   0.000000
    25  C    1.546320   2.482806   2.529700   2.946150   0.000000
    26  O    2.499198   3.777448   2.965768   2.669702   1.408974
    27  H    2.169952   2.870696   3.459352   3.924832   2.667893
    28  H    2.157130   2.611054   2.872915   3.582489   3.463017
    29  H    2.173153   3.437842   2.651455   2.637168   2.940592
    30  H    2.163346   1.087314   2.713771   4.065612   3.443336
    31  H    2.162182   1.087420   3.452322   4.611269   2.737552
    32  H    2.172948   1.087847   2.759101   4.044542   2.696976
    33  H    2.172521   2.785534   1.093382   2.013053   3.480338
    34  H    2.165576   2.649977   1.100286   2.054988   2.801303
    35  H    2.507500   3.892506   1.910872   0.976751   2.422602
    36  H    2.163943   2.661351   2.769157   3.292187   1.095435
    37  H    2.167014   2.712516   3.476912   3.956932   1.097229
    38  H    2.811351   4.167740   3.426293   3.012472   1.980772
                   26         27         28         29         30
    26  O    0.000000
    27  H    3.247614   0.000000
    28  H    4.128301   1.764195   0.000000
    29  H    2.983965   1.769041   1.753176   0.000000
    30  H    4.624854   3.291772   2.424270   3.658847   0.000000
    31  H    4.089246   2.664593   2.849974   3.765749   1.764553
    32  H    4.000882   3.832962   3.651487   4.296843   1.763391
    33  H    3.958627   3.752584   2.634754   2.822670   2.556083
    34  H    3.347078   4.300840   3.794847   3.711378   2.932669
    35  H    1.826069   3.863004   3.958470   2.808601   4.418646
    36  H    1.997222   3.680619   4.277258   3.913497   3.659056
    37  H    2.065474   2.437277   3.655723   3.316390   3.724029
    38  H    0.978045   2.876624   3.960141   2.596047   4.943220
                   31         32         33         34         35
    31  H    0.000000
    32  H    1.764437   0.000000
    33  H    3.761434   3.188677   0.000000
    34  H    3.675450   2.455415   1.777631   0.000000
    35  H    4.602867   4.085071   2.794870   2.361133   0.000000
    36  H    3.027997   2.411210   3.780557   2.590754   2.751096
    37  H    2.510426   3.032221   4.310044   3.785282   3.436620
    38  H    4.347984   4.598319   4.276220   4.033405   2.289737
                   36         37         38
    36  H    0.000000
    37  H    1.773100   0.000000
    38  H    2.830209   2.299226   0.000000
 Framework group  C1[X(C10H24O4)]
 Deg. of freedom   108
                         Standard orientation:                         
 ---------------------------------------------------------------------
 Center     Atomic      Atomic             Coordinates (Angstroms)
 Number     Number       Type             X           Y           Z
 ---------------------------------------------------------------------
      1          6           0       -4.311293    0.073093    0.269962
      2          6           0       -2.788171    0.006991    0.134545
      3          6           0       -2.154890   -0.012078    1.528171
      4          6           0       -2.415771   -1.278988   -0.631827
      5          8           0       -1.044366   -1.385135   -0.936127
      6          6           0       -2.335879    1.249211   -0.667583
      7          8           0       -0.969801    1.282589   -1.010980
      8          1           0       -4.683154   -0.810187    0.783538
      9          1           0       -4.788192    0.127266   -0.706287
     10          1           0       -4.599856    0.951455    0.842432
     11          1           0       -2.695491   -0.705484    2.168504
     12          1           0       -2.193100    0.975416    1.982865
     13          1           0       -1.122185   -0.341920    1.485680
     14          1           0       -3.000292   -1.320662   -1.563090
     15          1           0       -2.668016   -2.155982   -0.029543
     16          1           0       -0.797394   -0.512486   -1.298835
     17          1           0       -2.612023    2.152952   -0.110028
     18          1           0       -2.870675    1.266112   -1.623433
     19          1           0       -0.417923    1.474908   -0.226768
     20          6           0        2.153660    0.012452   -1.528080
     21          6           0        2.787961   -0.007198   -0.134907
     22          6           0        4.310946   -0.074073   -0.271472
     23          6           0        2.416683    1.278861    0.631861
     24          8           0        1.045465    1.385566    0.936958
     25          6           0        2.335691   -1.249292    0.667439
     26          8           0        0.969900   -1.282010    1.012046
     27          1           0        2.189244   -0.975358   -1.982309
     28          1           0        2.695298    0.704334   -2.169198
     29          1           0        1.121754    0.344705   -1.484911
     30          1           0        4.682919    0.809091   -0.785192
     31          1           0        4.598533   -0.952449   -0.844389
     32          1           0        4.788594   -0.128767    0.704372
     33          1           0        2.668942    2.155818    0.029535
     34          1           0        3.001744    1.320147    1.562790
     35          1           0        0.798460    0.513054    1.299938
     36          1           0        2.871384   -1.266629    1.622798
     37          1           0        2.610856   -2.153094    0.109461
     38          1           0        0.417361   -1.474190    0.228248
 ---------------------------------------------------------------------
 Rotational constants (GHZ):           1.2446155           0.3407606           0.3298523
   244 basis functions,   446 primitive gaussians,   258 cartesian basis functions
    58 alpha electrons       58 beta electrons
       nuclear repulsion energy      1080.7246270202 Hartrees.
 NAtoms=   38 NActive=   38 NUniq=   38 SFac= 1.00D+00 NAtFMM=   60 NAOKFM=F Big=F
 Nuclear repulsion after empirical dispersion term =     1080.6905217657 Hartrees.
   1 Symmetry operations used in ECPInt.
 ECPInt:  NShTT=    8778 NPrTT=   35234 LenC2=    8513 LenP2D=   24583.
 LDataN:  DoStor=T MaxTD1= 4 Len=   56
 ExpMin= 1.22D-01 ExpMax= 2.27D+03 ExpMxC= 3.41D+02 IAcc=3 IRadAn=         5 AccDes= 0.00D+00
 Harris functional with IExCor= 4639 and IRadAn=       5 diagonalized for initial guess.
 HarFok:  IExCor= 4639 AccDes= 0.00D+00 IRadAn=         5 IDoV= 1 UseB2=F ITyADJ=14
 ICtDFT=  3500011 ScaDFX=  1.000000  1.000000  1.000000  1.000000
 FoFCou: FMM=F IPFlag=           0 FMFlag=      100000 FMFlg1=           0
         NFxFlg=           0 DoJE=T BraDBF=F KetDBF=T FulRan=T
         wScrn=  0.000000 ICntrl=       500 IOpCl=  0 I1Cent=   200000004 NGrid=           0
         NMat0=    1 NMatS0=      1 NMatT0=    0 NMatD0=    1 NMtDS0=    0 NMtDT0=    0
 Petite list used in FoFCou.
     Accept linear search using points  2 and  3.
     Minimum is close to point  2 DX=  1.04D-02 DF= -3.26D-07 DXR=  1.70D-02 DFR=  2.90D-04 which will be used.
     Accept linear search using points  1 and  2.
     Minimum is close to point  2 DX= -6.72D-05 DF= -1.14D-13 DXR=  6.72D-05 DFR=  3.82D-09 which will be used.
 SCF Done:  E(RwB97XD) =  -695.638604943     a.u. after    7 cycles
            Convg  =    0.4581D-09                    33 Fock formations.
              S**2 =  0.0000                  -V/T =  2.0088

 **********************************************************************

            Population analysis using the SCF Density.

 **********************************************************************

 Orbital symmetries:
       Occupied  (A) (A) (A) (A) (A) (A) (A) (A) (A) (A) (A) (A)
                 (A) (A) (A) (A) (A) (A) (A) (A) (A) (A) (A) (A)
                 (A) (A) (A) (A) (A) (A) (A) (A) (A) (A) (A) (A)
                 (A) (A) (A) (A) (A) (A) (A) (A) (A) (A) (A) (A)
                 (A) (A) (A) (A) (A) (A) (A) (A) (A) (A)
       Virtual   (A) (A) (A) (A) (A) (A) (A) (A) (A) (A) (A) (A)
                 (A) (A) (A) (A) (A) (A) (A) (A) (A) (A) (A) (A)
                 (A) (A) (A) (A) (A) (A) (A) (A) (A) (A) (A) (A)
                 (A) (A) (A) (A) (A) (A) (A) (A) (A) (A) (A) (A)
                 (A) (A) (A) (A) (A) (A) (A) (A) (A) (A) (A) (A)
                 (A) (A) (A) (A) (A) (A) (A) (A) (A) (A) (A) (A)
                 (A) (A) (A) (A) (A) (A) (A) (A) (A) (A) (A) (A)
                 (A) (A) (A) (A) (A) (A) (A) (A) (A) (A) (A) (A)
                 (A) (A) (A) (A) (A) (A) (A) (A) (A) (A) (A) (A)
                 (A) (A) (A) (A) (A) (A) (A) (A) (A) (A) (A) (A)
                 (A) (A) (A) (A) (A) (A) (A) (A) (A) (A) (A) (A)
                 (A) (A) (A) (A) (A) (A) (A) (A) (A) (A) (A) (A)
                 (A) (A) (A) (A) (A) (A) (A) (A) (A) (A) (A) (A)
                 (A) (A) (A) (A) (A) (A) (A) (A) (A) (A) (A) (A)
                 (A) (A) (A) (A) (A) (A) (A) (A) (A) (A) (A) (A)
                 (A) (A) (A) (A) (A) (A)
 The electronic state is 1-A.
 Alpha  occ. eigenvalues --  -19.25359 -19.25352 -19.25030 -19.25023 -10.33761
 Alpha  occ. eigenvalues --  -10.33758 -10.33457 -10.33453 -10.30723 -10.30719
 Alpha  occ. eigenvalues --  -10.28476 -10.28473 -10.27544 -10.27539  -1.13205
 Alpha  occ. eigenvalues --   -1.12169  -1.10821  -1.09799  -0.91422  -0.91400
 Alpha  occ. eigenvalues --   -0.78678  -0.78395  -0.77225  -0.77121  -0.76426
 Alpha  occ. eigenvalues --   -0.76336  -0.65775  -0.65636  -0.62368  -0.62182
 Alpha  occ. eigenvalues --   -0.58168  -0.57842  -0.55908  -0.55487  -0.54348
 Alpha  occ. eigenvalues --   -0.53207  -0.53045  -0.52805  -0.50546  -0.49900
 Alpha  occ. eigenvalues --   -0.49506  -0.48939  -0.47119  -0.47006  -0.46418
 Alpha  occ. eigenvalues --   -0.46132  -0.45657  -0.45596  -0.43769  -0.43283
 Alpha  occ. eigenvalues --   -0.41619  -0.41042  -0.40856  -0.39025  -0.36445
 Alpha  occ. eigenvalues --   -0.35690  -0.34624  -0.34286
 Alpha virt. eigenvalues --    0.12810   0.12910   0.15284   0.16875   0.17219
 Alpha virt. eigenvalues --    0.17295   0.18040   0.18441   0.19621   0.20271
 Alpha virt. eigenvalues --    0.21125   0.21213   0.22011   0.22121   0.23241
 Alpha virt. eigenvalues --    0.23323   0.23989   0.24639   0.25426   0.25954
 Alpha virt. eigenvalues --    0.25962   0.27771   0.27814   0.28920   0.29289
 Alpha virt. eigenvalues --    0.29628   0.30198   0.31875   0.32047   0.33058
 Alpha virt. eigenvalues --    0.33284   0.34061   0.34638   0.35556   0.36046
 Alpha virt. eigenvalues --    0.36813   0.48865   0.49430   0.50815   0.51743
 Alpha virt. eigenvalues --    0.52649   0.53347   0.56463   0.56835   0.59781
 Alpha virt. eigenvalues --    0.60293   0.61976   0.63178   0.64954   0.65058
 Alpha virt. eigenvalues --    0.66021   0.66976   0.67367   0.67442   0.69008
 Alpha virt. eigenvalues --    0.70324   0.71806   0.72042   0.73487   0.73852
 Alpha virt. eigenvalues --    0.74908   0.75346   0.77244   0.77409   0.77735
 Alpha virt. eigenvalues --    0.77858   0.78537   0.78756   0.79580   0.79845
 Alpha virt. eigenvalues --    0.80090   0.80868   0.81077   0.82062   0.82727
 Alpha virt. eigenvalues --    0.82885   0.83192   0.83931   0.84068   0.84392
 Alpha virt. eigenvalues --    0.84454   0.84954   0.85791   0.87089   0.87525
 Alpha virt. eigenvalues --    0.88388   0.90026   0.92146   0.93641   0.94398
 Alpha virt. eigenvalues --    0.96320   1.01540   1.05158   1.08757   1.14142
 Alpha virt. eigenvalues --    1.14658   1.15588   1.17547   1.21956   1.22412
 Alpha virt. eigenvalues --    1.22695   1.24844   1.24858   1.28239   1.31883
 Alpha virt. eigenvalues --    1.34256   1.34286   1.39033   1.41577   1.42860
 Alpha virt. eigenvalues --    1.47013   1.49545   1.51527   1.54568   1.54933
 Alpha virt. eigenvalues --    1.59723   1.64434   1.64778   1.67335   1.70150
 Alpha virt. eigenvalues --    1.79813   1.80385   1.80995   1.82725   1.83744
 Alpha virt. eigenvalues --    1.84383   1.89002   1.89430   1.90165   1.90456
 Alpha virt. eigenvalues --    1.95711   1.96303   2.06139   2.06364   2.07103
 Alpha virt. eigenvalues --    2.07577   2.08058   2.11380   2.11789   2.12035
 Alpha virt. eigenvalues --    2.15700   2.16254   2.19763   2.19932   2.20691
 Alpha virt. eigenvalues --    2.21191   2.24333   2.25709   2.25858   2.25863
 Alpha virt. eigenvalues --    2.26865   2.27225   2.27678   2.28591   2.28667
 Alpha virt. eigenvalues --    2.28901   2.55925   2.56114   2.57884   2.58563
 Alpha virt. eigenvalues --    2.67978   2.68555   2.69098   2.69465   2.71750
 Alpha virt. eigenvalues --    2.71852   2.75622   2.75852   2.77787   2.78751
 Alpha virt. eigenvalues --    2.90478   2.90570   2.94645   2.95062   3.02939
 Alpha virt. eigenvalues --    3.03667   3.08123   3.09039   3.10444   3.12340
 Alpha virt. eigenvalues --    3.14304   3.14728   3.47203   3.47758   3.50501
 Alpha virt. eigenvalues --    3.51160
          Condensed to atoms (all electrons):
 Mulliken charges:
               1
     1  C   -0.256269
     2  C   -0.348719
     3  C   -0.298140
     4  C    0.094092
     5  O   -0.534953
     6  C    0.060058
     7  O   -0.535911
     8  H    0.119000
     9  H    0.113682
    10  H    0.118602
    11  H    0.113906
    12  H    0.115396
    13  H    0.139401
    14  H    0.088539
    15  H    0.101750
    16  H    0.361413
    17  H    0.100389
    18  H    0.098416
    19  H    0.349438
    20  C   -0.298359
    21  C   -0.348634
    22  C   -0.256272
    23  C    0.094042
    24  O   -0.534982
    25  C    0.060025
    26  O   -0.535984
    27  H    0.115419
    28  H    0.113883
    29  H    0.139588
    30  H    0.118995
    31  H    0.118595
    32  H    0.113666
    33  H    0.101739
    34  H    0.088524
    35  H    0.361477
    36  H    0.098391
    37  H    0.100391
    38  H    0.349403
 Sum of Mulliken charges =   0.00000
 Mulliken charges with hydrogens summed into heavy atoms:
               1
     1  C    0.095016
     2  C   -0.348719
     3  C    0.070563
     4  C    0.284381
     5  O   -0.173539
     6  C    0.258864
     7  O   -0.186473
    20  C    0.070531
    21  C   -0.348634
    22  C    0.094984
    23  C    0.284305
    24  O   -0.173504
    25  C    0.258807
    26  O   -0.186581
 Electronic spatial extent (au):  <R**2>=           3778.4624
 Charge=              0.0000 electrons
 Dipole moment (field-independent basis, Debye):
    X=             -0.0039    Y=             -0.0005    Z=             -0.0014  Tot=              0.0041
   1 Symmetry operations used in ECPInt.
 ECPInt:  NShTT=    8778 NPrTT=   35234 LenC2=    8513 LenP2D=   24583.
 LDataN:  DoStor=T MaxTD1= 5 Len=  102
 Calling FoFJK, ICntrl=      2127 FMM=F ISym2X=0 I1Cent= 0 IOpClX= 0 NMat=1 NMatS=1 NMatT=0.

 GradGradGradGradGradGradGradGradGradGradGradGradGradGradGradGradGradGrad
 FormGI is forming the generalized inverse of G from B-inverse, IUseBI=4.
 Internal  Forces:  Max     0.011477024 RMS     0.003247502
 Step number   1 out of a maximum of  214
 All quantities printed in internal units (Hartrees-Bohrs-Radians)
 Mixed Optimization -- RFO/linear search
 Second derivative matrix not updated -- first step.
 ITU=  0
     Eigenvalues ---    0.00357   0.00357   0.00362   0.00362   0.00390
     Eigenvalues ---    0.00412   0.00527   0.00560   0.00918   0.00982
     Eigenvalues ---    0.01584   0.02294   0.03086   0.03342   0.03889
     Eigenvalues ---    0.03983   0.04120   0.04346   0.04649   0.04744
     Eigenvalues ---    0.04865   0.04866   0.05052   0.05084   0.05257
     Eigenvalues ---    0.05370   0.05495   0.05496   0.05534   0.05566
     Eigenvalues ---    0.05566   0.05566   0.05650   0.05650   0.05687
     Eigenvalues ---    0.05687   0.05734   0.07320   0.07765   0.09639
     Eigenvalues ---    0.09849   0.09958   0.09991   0.11531   0.12006
     Eigenvalues ---    0.12064   0.13529   0.13698   0.14060   0.14099
     Eigenvalues ---    0.14242   0.14461   0.14894   0.15371   0.15990
     Eigenvalues ---    0.16000   0.16000   0.16000   0.16000   0.16000
     Eigenvalues ---    0.16000   0.16000   0.16000   0.16000   0.16000
     Eigenvalues ---    0.16000   0.16000   0.16065   0.18121   0.19744
     Eigenvalues ---    0.20570   0.22109   0.27677   0.27967   0.28082
     Eigenvalues ---    0.28286   0.29340   0.29342   0.29372   0.29372
     Eigenvalues ---    0.33649   0.33650   0.33990   0.33992   0.34192
     Eigenvalues ---    0.34194   0.34424   0.34425   0.35062   0.35063
     Eigenvalues ---    0.35065   0.35066   0.35079   0.35080   0.35111
     Eigenvalues ---    0.35112   0.35125   0.35126   0.35404   0.35405
     Eigenvalues ---    0.41488   0.44165   0.44175   0.44196   0.49755
     Eigenvalues ---    0.51768   0.52018   0.52021
 Linear search not attempted -- first point.
 Iteration  1 RMS(Cart)=  0.03333745 RMS(Int)=  0.00049721
 Iteration  2 RMS(Cart)=  0.00058346 RMS(Int)=  0.00006188
 Iteration  3 RMS(Cart)=  0.00000039 RMS(Int)=  0.00006188
 Variable       Old X    -DE/DX   Delta X   Delta X   Delta X     New X
                                 (Linear)    (Quad)   (Total)
    R1        2.89233   0.00304   0.00000   0.01011   0.01011   2.90244
    R2        2.05470   0.01124   0.00000   0.03136   0.03136   2.08606
    R3        2.05575   0.01147   0.00000   0.03206   0.03206   2.08781
    R4        2.05495   0.01134   0.00000   0.03165   0.03165   2.08660
    R5        2.89295   0.00407   0.00000   0.01354   0.01354   2.90649
    R6        2.91517   0.00050   0.00000   0.00170   0.00170   2.91688
    R7        2.92211  -0.00118   0.00000  -0.00411  -0.00411   2.91801
    R8        2.05545   0.01089   0.00000   0.03043   0.03043   2.08588
    R9        2.05568   0.01141   0.00000   0.03188   0.03188   2.08756
   R10        2.05023   0.01021   0.00000   0.02825   0.02825   2.07848
   R11        2.66218   0.00487   0.00000   0.01084   0.01084   2.67302
   R12        2.07926   0.00615   0.00000   0.01788   0.01788   2.09714
   R13        2.06620   0.00682   0.00000   0.01941   0.01941   2.08561
   R14        1.84582   0.00264   0.00000   0.00500   0.00500   1.85081
   R15        3.53553  -0.00148   0.00000  -0.02438  -0.02438   3.51115
   R16        2.66257   0.00203   0.00000   0.00453   0.00453   2.66710
   R17        2.07343   0.00720   0.00000   0.02075   0.02075   2.09418
   R18        2.07004   0.00606   0.00000   0.01735   0.01735   2.08739
   R19        1.84821   0.00303   0.00000   0.00577   0.00577   1.85398
   R20        3.53724  -0.00149   0.00000  -0.02446  -0.02446   3.51278
   R21        2.89298   0.00408   0.00000   0.01358   0.01358   2.90656
   R22        2.05569   0.01140   0.00000   0.03187   0.03187   2.08756
   R23        2.05547   0.01089   0.00000   0.03041   0.03041   2.08588
   R24        2.05023   0.01020   0.00000   0.02823   0.02823   2.07846
   R25        2.89233   0.00304   0.00000   0.01012   0.01012   2.90245
   R26        2.91516   0.00050   0.00000   0.00173   0.00173   2.91689
   R27        2.92212  -0.00118   0.00000  -0.00409  -0.00409   2.91803
   R28        2.05473   0.01123   0.00000   0.03133   0.03133   2.08606
   R29        2.05493   0.01135   0.00000   0.03168   0.03168   2.08661
   R30        2.05573   0.01148   0.00000   0.03207   0.03207   2.08781
   R31        2.66224   0.00485   0.00000   0.01081   0.01081   2.67305
   R32        2.06619   0.00682   0.00000   0.01941   0.01941   2.08561
   R33        2.07924   0.00615   0.00000   0.01790   0.01790   2.09714
   R34        1.84579   0.00265   0.00000   0.00502   0.00502   1.85081
   R35        2.66258   0.00203   0.00000   0.00452   0.00452   2.66710
   R36        2.07007   0.00605   0.00000   0.01732   0.01732   2.08740
   R37        2.07346   0.00719   0.00000   0.02072   0.02072   2.09418
   R38        1.84824   0.00304   0.00000   0.00578   0.00578   1.85402
    A1        1.92522   0.00105   0.00000   0.00562   0.00559   1.93081
    A2        1.93800   0.00161   0.00000   0.01081   0.01076   1.94876
    A3        1.92361   0.00136   0.00000   0.00760   0.00757   1.93117
    A4        1.89063  -0.00124   0.00000  -0.00635  -0.00639   1.88424
    A5        1.89311  -0.00154   0.00000  -0.01157  -0.01158   1.88153
    A6        1.89218  -0.00139   0.00000  -0.00705  -0.00711   1.88507
    A7        1.90885   0.00060   0.00000   0.00764   0.00766   1.91652
    A8        1.89672  -0.00026   0.00000  -0.00092  -0.00095   1.89577
    A9        1.87788  -0.00026   0.00000  -0.00198  -0.00198   1.87589
   A10        1.91985   0.00017   0.00000   0.00370   0.00363   1.92347
   A11        1.94039  -0.00027   0.00000  -0.00290  -0.00295   1.93744
   A12        1.91917   0.00001   0.00000  -0.00554  -0.00547   1.91370
   A13        1.91587   0.00170   0.00000   0.00989   0.00985   1.92572
   A14        1.93336   0.00122   0.00000   0.00747   0.00743   1.94079
   A15        1.94109   0.00175   0.00000   0.01060   0.01055   1.95164
   A16        1.89144  -0.00152   0.00000  -0.00932  -0.00935   1.88209
   A17        1.87793  -0.00180   0.00000  -0.01108  -0.01113   1.86681
   A18        1.90264  -0.00154   0.00000  -0.00870  -0.00874   1.89390
   A19        1.98791   0.00065   0.00000   0.00447   0.00439   1.99230
   A20        1.90054  -0.00030   0.00000  -0.00336  -0.00330   1.89724
   A21        1.91696  -0.00053   0.00000  -0.00297  -0.00308   1.91389
   A22        1.90866   0.00038   0.00000   0.00466   0.00466   1.91332
   A23        1.85785   0.00047   0.00000   0.00994   0.00999   1.86784
   A24        1.88944  -0.00072   0.00000  -0.01353  -0.01358   1.87586
   A25        1.83282   0.00289   0.00000   0.02280   0.02278   1.85560
   A26        2.25199  -0.00091   0.00000   0.00280   0.00272   2.25472
   A27        1.64695  -0.00126   0.00000  -0.00333  -0.00350   1.64345
   A28        2.01424  -0.00373   0.00000  -0.01993  -0.01998   1.99425
   A29        1.90125   0.00088   0.00000   0.00195   0.00187   1.90313
   A30        1.89889   0.00075   0.00000   0.00517   0.00534   1.90422
   A31        1.92661   0.00143   0.00000   0.00617   0.00617   1.93278
   A32        1.83414   0.00189   0.00000   0.01590   0.01593   1.85008
   A33        1.88371  -0.00111   0.00000  -0.00859  -0.00862   1.87509
   A34        1.93514   0.00291   0.00000   0.01257   0.01257   1.94771
   A35        2.76592   0.00249   0.00000   0.01153   0.01124   2.77717
   A36        1.93348   0.00122   0.00000   0.00742   0.00738   1.94086
   A37        1.91584   0.00170   0.00000   0.00991   0.00986   1.92570
   A38        1.94100   0.00177   0.00000   0.01071   0.01066   1.95165
   A39        1.89147  -0.00153   0.00000  -0.00938  -0.00941   1.88206
   A40        1.90267  -0.00154   0.00000  -0.00874  -0.00878   1.89389
   A41        1.87788  -0.00180   0.00000  -0.01106  -0.01111   1.86677
   A42        1.90884   0.00060   0.00000   0.00762   0.00764   1.91648
   A43        1.91975   0.00018   0.00000   0.00382   0.00375   1.92350
   A44        1.94048  -0.00027   0.00000  -0.00290  -0.00294   1.93754
   A45        1.89680  -0.00027   0.00000  -0.00099  -0.00103   1.89578
   A46        1.87783  -0.00025   0.00000  -0.00201  -0.00201   1.87582
   A47        1.91916   0.00000   0.00000  -0.00555  -0.00548   1.91368
   A48        1.92525   0.00104   0.00000   0.00558   0.00556   1.93081
   A49        1.92353   0.00137   0.00000   0.00766   0.00763   1.93115
   A50        1.93806   0.00160   0.00000   0.01077   0.01072   1.94878
   A51        1.89305  -0.00154   0.00000  -0.01153  -0.01153   1.88152
   A52        1.89067  -0.00124   0.00000  -0.00639  -0.00643   1.88425
   A53        1.89218  -0.00139   0.00000  -0.00705  -0.00711   1.88507
   A54        1.98783   0.00066   0.00000   0.00462   0.00454   1.99237
   A55        1.91698  -0.00053   0.00000  -0.00295  -0.00306   1.91392
   A56        1.90059  -0.00031   0.00000  -0.00348  -0.00342   1.89717
   A57        1.85783   0.00047   0.00000   0.01000   0.01005   1.86788
   A58        1.90867   0.00037   0.00000   0.00457   0.00457   1.91324
   A59        1.88948  -0.00072   0.00000  -0.01357  -0.01362   1.87586
   A60        2.25224  -0.00088   0.00000   0.00306   0.00298   2.25522
   A61        1.64684  -0.00126   0.00000  -0.00332  -0.00350   1.64334
   A62        1.83274   0.00288   0.00000   0.02276   0.02274   1.85548
   A63        2.01427  -0.00373   0.00000  -0.01990  -0.01995   1.99432
   A64        1.89886   0.00076   0.00000   0.00518   0.00535   1.90420
   A65        1.90122   0.00087   0.00000   0.00195   0.00187   1.90309
   A66        1.83419   0.00189   0.00000   0.01585   0.01588   1.85007
   A67        1.92660   0.00143   0.00000   0.00618   0.00618   1.93278
   A68        1.88371  -0.00111   0.00000  -0.00860  -0.00863   1.87508
   A69        1.93498   0.00294   0.00000   0.01269   0.01269   1.94767
   A70        2.76733   0.00245   0.00000   0.01135   0.01107   2.77841
    D1       -1.08420   0.00000   0.00000  -0.00035  -0.00034  -1.08454
    D2        1.01191   0.00041   0.00000   0.00813   0.00810   1.02001
    D3        3.08930   0.00013   0.00000  -0.00008  -0.00003   3.08927
    D4        3.10283  -0.00017   0.00000  -0.00312  -0.00311   3.09971
    D5       -1.08425   0.00023   0.00000   0.00536   0.00532  -1.07893
    D6        0.99314  -0.00004   0.00000  -0.00285  -0.00281   0.99034
    D7        1.00579  -0.00038   0.00000  -0.00631  -0.00632   0.99947
    D8        3.10190   0.00003   0.00000   0.00218   0.00212   3.10402
    D9       -1.10390  -0.00025   0.00000  -0.00604  -0.00601  -1.10990
   D10        0.77968   0.00041   0.00000   0.03116   0.03117   0.81085
   D11       -1.30844   0.00044   0.00000   0.03168   0.03169  -1.27675
   D12        2.85589   0.00036   0.00000   0.03039   0.03040   2.88630
   D13       -1.30220   0.00025   0.00000   0.02535   0.02535  -1.27685
   D14        2.89286   0.00029   0.00000   0.02587   0.02587   2.91874
   D15        0.77401   0.00021   0.00000   0.02458   0.02458   0.79859
   D16        2.85091   0.00030   0.00000   0.03178   0.03176   2.88267
   D17        0.76279   0.00034   0.00000   0.03230   0.03229   0.79507
   D18       -1.35607   0.00026   0.00000   0.03101   0.03100  -1.32507
   D19        3.03705  -0.00001   0.00000   0.01321   0.01322   3.05026
   D20        0.90191  -0.00073   0.00000   0.00662   0.00664   0.90855
   D21       -1.16436   0.00064   0.00000   0.02677   0.02674  -1.13762
   D22       -1.15686   0.00066   0.00000   0.02418   0.02418  -1.13268
   D23        2.99119  -0.00005   0.00000   0.01759   0.01760   3.00879
   D24        0.92492   0.00132   0.00000   0.03774   0.03771   0.96263
   D25        0.98576   0.00045   0.00000   0.01930   0.01925   1.00501
   D26       -1.14938  -0.00027   0.00000   0.01271   0.01267  -1.13670
   D27        3.06754   0.00110   0.00000   0.03286   0.03278   3.10032
   D28       -3.03025   0.00018   0.00000   0.00755   0.00756  -3.02269
   D29        1.07484   0.00035   0.00000   0.01261   0.01262   1.08746
   D30       -0.97457   0.00076   0.00000   0.01889   0.01889  -0.95568
   D31        1.16318  -0.00024   0.00000   0.00115   0.00116   1.16435
   D32       -1.01491  -0.00007   0.00000   0.00621   0.00623  -1.00869
   D33       -3.06432   0.00034   0.00000   0.01249   0.01250  -3.05182
   D34       -0.96729  -0.00028   0.00000   0.00222   0.00227  -0.96502
   D35        3.13780  -0.00011   0.00000   0.00728   0.00733  -3.13805
   D36        1.08840   0.00030   0.00000   0.01356   0.01360   1.10200
   D37       -0.81729  -0.00005   0.00000   0.00475   0.00465  -0.81264
   D38        1.07798   0.00042   0.00000   0.02320   0.02309   1.10107
   D39        1.31338   0.00029   0.00000   0.00696   0.00691   1.32029
   D40       -3.07454   0.00076   0.00000   0.02540   0.02535  -3.04919
   D41       -2.93231  -0.00011   0.00000  -0.00119  -0.00125  -2.93356
   D42       -1.03704   0.00035   0.00000   0.01725   0.01718  -1.01986
   D43       -0.66154  -0.00199   0.00000  -0.05154  -0.05160  -0.71314
   D44        1.31672   0.00039   0.00000  -0.02242  -0.02255   1.29417
   D45       -1.27527   0.00064   0.00000   0.02102   0.02119  -1.25408
   D46        0.88960   0.00012   0.00000   0.01340   0.01347   0.90307
   D47        2.91635   0.00054   0.00000   0.01501   0.01521   2.93157
   D48        2.49620   0.00053   0.00000  -0.03497  -0.03489   2.46130
   D49        0.65888   0.00198   0.00000   0.05149   0.05155   0.71043
   D50       -1.31928  -0.00039   0.00000   0.02229   0.02243  -1.29685
   D51        1.31034  -0.00044   0.00000  -0.03191  -0.03192   1.27842
   D52       -2.89094  -0.00029   0.00000  -0.02612  -0.02613  -2.91706
   D53       -0.76088  -0.00034   0.00000  -0.03248  -0.03247  -0.79335
   D54       -0.77788  -0.00040   0.00000  -0.03129  -0.03130  -0.80918
   D55        1.30403  -0.00025   0.00000  -0.02551  -0.02551   1.27852
   D56       -2.84910  -0.00030   0.00000  -0.03187  -0.03185  -2.88095
   D57       -2.85394  -0.00036   0.00000  -0.03062  -0.03063  -2.88458
   D58       -0.77203  -0.00021   0.00000  -0.02484  -0.02484  -0.79687
   D59        1.35802  -0.00026   0.00000  -0.03120  -0.03119   1.32684
   D60        1.08418   0.00000   0.00000   0.00044   0.00043   1.08461
   D61       -1.00570   0.00038   0.00000   0.00633   0.00634  -0.99936
   D62       -3.10273   0.00018   0.00000   0.00313   0.00312  -3.09961
   D63       -1.01186  -0.00041   0.00000  -0.00813  -0.00809  -1.01995
   D64       -3.10174  -0.00004   0.00000  -0.00224  -0.00218  -3.10392
   D65        1.08442  -0.00024   0.00000  -0.00544  -0.00540   1.07902
   D66       -3.08925  -0.00013   0.00000   0.00016   0.00010  -3.08915
   D67        1.10406   0.00025   0.00000   0.00604   0.00601   1.11007
   D68       -0.99297   0.00004   0.00000   0.00284   0.00279  -0.99018
   D69        1.15676  -0.00065   0.00000  -0.02373  -0.02373   1.13303
   D70       -0.92496  -0.00132   0.00000  -0.03749  -0.03745  -0.96241
   D71       -2.99131   0.00006   0.00000  -0.01724  -0.01725  -3.00855
   D72       -3.03717   0.00002   0.00000  -0.01276  -0.01277  -3.04994
   D73        1.16429  -0.00064   0.00000  -0.02652  -0.02649   1.13781
   D74       -0.90206   0.00073   0.00000  -0.00627  -0.00628  -0.90834
   D75       -0.98590  -0.00043   0.00000  -0.01894  -0.01889  -1.00478
   D76       -3.06762  -0.00110   0.00000  -0.03269  -0.03260  -3.10022
   D77        1.14922   0.00027   0.00000  -0.01244  -0.01240   1.13682
   D78       -1.16330   0.00023   0.00000  -0.00133  -0.00135  -1.16465
   D79        3.06414  -0.00035   0.00000  -0.01264  -0.01265   3.05149
   D80        1.01478   0.00007   0.00000  -0.00636  -0.00637   1.00840
   D81        3.03012  -0.00018   0.00000  -0.00769  -0.00770   3.02242
   D82        0.97438  -0.00076   0.00000  -0.01900  -0.01900   0.95538
   D83       -1.07499  -0.00035   0.00000  -0.01272  -0.01273  -1.08772
   D84        0.96709   0.00029   0.00000  -0.00225  -0.00230   0.96479
   D85       -1.08865  -0.00030   0.00000  -0.01356  -0.01360  -1.10225
   D86       -3.13802   0.00012   0.00000  -0.00728  -0.00733   3.13784
   D87       -1.07757  -0.00042   0.00000  -0.02351  -0.02340  -1.10097
   D88        0.81761   0.00004   0.00000  -0.00493  -0.00483   0.81278
   D89        1.03742  -0.00035   0.00000  -0.01740  -0.01734   1.02008
   D90        2.93259   0.00011   0.00000   0.00117   0.00123   2.93383
   D91        3.07494  -0.00076   0.00000  -0.02560  -0.02555   3.04939
   D92       -1.31307  -0.00029   0.00000  -0.00703  -0.00698  -1.32005
   D93        1.27556  -0.00064   0.00000  -0.02121  -0.02138   1.25418
   D94       -2.91605  -0.00055   0.00000  -0.01521  -0.01541  -2.93146
   D95       -0.88927  -0.00013   0.00000  -0.01363  -0.01370  -0.90298
   D96       -2.49423  -0.00054   0.00000   0.03467   0.03460  -2.45963
         Item               Value     Threshold  Converged?
 Maximum Force            0.011477     0.000015     NO 
 RMS     Force            0.003248     0.000010     NO 
 Maximum Displacement     0.147894     0.000060     NO 
 RMS     Displacement     0.033602     0.000040     NO 
 GradGradGradGradGradGradGradGradGradGradGradGradGradGradGradGradGradGrad

                    Distance matrix (angstroms):
                    1          2          3          4          5
     1  C    0.000000
     2  C    1.535907   0.000000
     3  C    2.515084   1.538047   0.000000
     4  C    2.501083   1.543544   2.527481   0.000000
     5  O    3.788399   2.483924   3.034756   1.414501   0.000000
     6  C    2.483587   1.544142   2.540227   2.523819   2.957277
     7  O    3.772231   2.483422   3.068304   2.936759   2.650613
     8  H    1.103895   2.184533   2.783332   2.733148   4.088485
     9  H    1.104820   2.198189   3.491824   2.776972   4.074926
    10  H    1.104183   2.185013   2.744045   3.474929   4.643091
    11  H    2.657572   2.182641   1.103799   2.885615   3.575471
    12  H    2.885812   2.194247   1.104689   3.489020   3.960162
    13  H    3.474753   2.198395   1.099883   2.688404   2.653146
    14  H    2.655768   2.170878   3.479105   1.109760   2.070469
    15  H    2.777362   2.178697   2.726271   1.103656   2.032915
    16  H    3.932168   2.536653   3.181242   1.933532   0.979409
    17  H    2.723975   2.174631   2.755502   3.483559   3.975137
    18  H    2.659633   2.172782   3.489021   2.776766   3.324370
    19  H    4.167297   2.794189   2.853041   3.388712   2.970635
    20  C    6.704428   5.201846   5.261420   4.784498   3.476590
    21  C    7.117662   5.582946   5.202051   5.351735   4.107306
    22  C    8.652788   7.117645   6.704670   6.827603   5.525908
    23  C    6.828685   5.352609   4.785582   5.557632   4.571694
    24  O    5.527449   4.108663   3.477978   4.572433   3.862891
    25  C    6.821703   5.335744   4.760140   4.933675   3.739403
    26  O    5.530919   4.099258   3.436863   3.769092   2.796931
    27  H    7.001850   5.540368   5.705116   4.815959   3.421554
    28  H    7.411871   5.948080   6.097791   5.627185   4.384077
    29  H    5.679630   4.200857   4.419018   3.887487   2.704881
    30  H    9.098467   7.574714   7.256709   7.384362   6.107202
    31  H    9.076952   7.548975   7.245043   7.038308   5.663244
    32  H    9.143614   7.625148   7.002892   7.423900   6.183555
    33  H    7.287998   5.850456   5.458888   6.132672   5.167992
    34  H    7.518266   6.083594   5.279754   6.351745   5.413145
    35  H    5.184029   3.748103   2.935385   4.074638   3.375878
    36  H    7.480666   6.038407   5.221815   5.773038   4.690781
    37  H    7.314759   5.860872   5.453824   5.176863   3.892728
    38  H    4.987878   3.548201   3.242289   2.962128   1.858021
                    6          7          8          9         10
     6  C    0.000000
     7  O    1.411368   0.000000
     8  H    3.461390   4.632395   0.000000
     9  H    2.713055   4.013108   1.786421   0.000000
    10  H    2.755183   4.106581   1.784150   1.787197   0.000000
    11  H    3.487153   4.122112   2.472053   3.713446   2.911453
    12  H    2.695352   3.272224   3.313027   3.869164   2.678103
    13  H    2.942213   2.949479   3.715744   4.351603   3.808191
    14  H    2.789897   3.317049   2.958279   2.464675   3.697467
    15  H    3.484204   3.947440   2.550890   3.187591   3.774227
    16  H    2.456677   1.813842   4.468097   4.147553   4.659158
    17  H    1.108193   2.080344   3.750988   3.059777   2.529365
    18  H    1.104600   2.017825   3.676551   2.414574   3.037803
    19  H    1.993424   0.981083   4.950353   4.618405   4.374065
    20  C    4.760526   3.437556   7.256158   7.002513   7.245220
    21  C    5.336243   4.099735   7.574412   7.625039   7.549451
    22  C    6.822323   5.531538   9.098053   9.143456   9.077538
    23  C    4.934774   3.769621   7.385220   7.424849   7.039862
    24  O    3.740758   2.797479   6.108594   6.185026   5.665062
    25  C    5.526766   4.546431   7.060196   7.436167   7.338918
    26  O    4.546287   3.844155   5.699687   6.218558   6.058181
    27  H    5.285886   4.076826   7.449697   7.234356   7.676473
    28  H    5.260762   3.867251   8.062884   7.626405   7.891424
    29  H    3.675277   2.361959   6.297128   5.945488   6.210821
    30  H    7.061141   5.700522   9.650031   9.526919   9.464069
    31  H    7.339198   6.058706   9.463013   9.506226   9.610435
    32  H    7.436859   6.219113   9.526661   9.735450   9.506995
    33  H    5.150103   3.897844   7.965352   7.785964   7.438625
    34  H    5.798930   4.745533   7.996970   8.213181   7.658674
    35  H    3.759745   2.999063   5.612309   5.923650   5.419770
    36  H    6.297105   5.377507   7.657739   8.194951   7.909083
    37  H    6.127206   5.153828   7.481880   7.843223   7.954552
    38  H    4.014144   3.353025   5.183015   5.556114   5.644186
                   11         12         13         14         15
    11  H    0.000000
    12  H    1.784841   0.000000
    13  H    1.770991   1.789313   0.000000
    14  H    3.824526   4.333586   3.752875   0.000000
    15  H    2.649546   3.791466   2.894864   1.784760   0.000000
    16  H    3.963009   3.903866   2.801687   2.396369   2.826552
    17  H    3.688623   2.452164   3.311359   3.788824   4.324739
    18  H    4.313318   3.711799   3.934394   2.584075   3.789093
    19  H    3.939115   2.901768   2.528952   4.001466   4.257200
    20  C    6.096415   5.707173   4.418348   5.278362   5.457663
    21  C    5.946867   5.542751   4.200298   6.082493   5.849438
    22  C    7.410586   7.004443   5.679122   7.516896   7.286672
    23  C    5.627343   4.819352   3.887079   6.351555   6.132663
    24  O    4.384780   3.425006   2.704431   5.413784   5.168768
    25  C    5.258639   5.287289   3.674890   5.797702   5.148804
    26  O    3.864856   4.077434   2.361585   4.745026   3.897206
    27  H    6.425035   6.314926   4.860082   5.222204   5.378425
    28  H    7.007392   6.428804   5.320712   6.004242   6.396066
    29  H    5.320461   4.862214   3.713009   4.352283   4.680112
    30  H    8.062084   7.452735   6.296589   7.995804   7.964267
    31  H    7.889493   7.678569   6.210264   7.656774   7.436740
    32  H    7.625278   7.237076   5.945125   8.211972   7.784774
    33  H    6.396556   5.382099   4.679544   6.806513   6.838717
    34  H    6.004773   5.225893   4.352239   7.229299   6.806721
    35  H    3.706099   3.098902   1.983628   5.028654   4.504727
    36  H    5.615890   5.636711   4.124304   6.711709   5.883910
    37  H    5.867854   6.118244   4.407173   5.938437   5.307532
    38  H    3.719872   4.042013   2.303842   3.864363   3.173859
                   16         17         18         19         20
    16  H    0.000000
    17  H    3.471811   0.000000
    18  H    2.815540   1.783748   0.000000
    19  H    2.243564   2.328572   2.857957   0.000000
    20  C    2.934195   5.454853   5.221679   3.243802   0.000000
    21  C    3.746818   5.862085   6.038447   3.549426   1.538086
    22  C    5.182710   7.316236   7.480784   4.989261   2.515089
    23  C    4.073681   5.178770   5.773715   2.963294   2.527538
    24  O    3.375502   3.894655   4.691825   1.858885   3.035082
    25  C    3.758538   6.127710   6.296761   4.014813   2.540353
    26  O    2.998446   5.153878   5.377228   3.353213   3.068674
    27  H    3.096100   6.117526   5.634810   4.042261   1.104687
    28  H    3.705893   5.870889   5.617408   3.723128   1.103799
    29  H    1.983703   4.407762   4.124198   2.304818   1.099873
    30  H    5.611120   7.483783   7.658168   5.184627   2.783353
    31  H    5.418342   7.955645   7.908821   5.645501   2.743968
    32  H    5.922346   7.844801   8.195173   5.557357   3.491847
    33  H    4.503757   5.309792   5.884753   3.175194   2.726260
    34  H    5.027768   5.940521   6.712542   3.865363   3.479113
    35  H    3.128437   4.043238   4.750826   2.163010   3.181725
    36  H    4.749819   6.776766   7.155268   4.717173   3.489104
    37  H    4.041743   6.855839   6.775863   4.785287   2.755479
    38  H    2.162330   4.784735   4.716428   3.103928   2.853486
                   21         22         23         24         25
    21  C    0.000000
    22  C    1.535910   0.000000
    23  C    1.543551   2.501098   0.000000
    24  O    2.484003   3.788449   1.414520   0.000000
    25  C    1.544154   2.483536   2.523811   2.957224   0.000000
    26  O    2.483485   3.772209   2.936693   2.650472   1.411367
    27  H    2.194332   2.886694   3.488940   3.959754   2.694903
    28  H    2.182663   2.656872   2.886493   3.577018   3.487056
    29  H    2.198430   3.474572   2.687798   2.653085   2.943212
    30  H    2.184535   1.103895   2.733133   4.088581   3.461351
    31  H    2.185004   1.104187   3.474936   4.643150   2.755182
    32  H    2.198209   1.104820   2.777051   4.074921   2.712933
    33  H    2.178731   2.777506   1.103656   2.032961   3.484219
    34  H    2.170833   2.655626   1.109760   2.070426   2.789883
    35  H    2.536708   3.932082   1.933468   0.979407   2.456565
    36  H    2.172779   2.659407   2.776860   3.324410   1.104602
    37  H    2.174614   2.724007   3.483540   3.975056   1.108194
    38  H    2.794284   4.167384   3.388654   2.970511   1.993415
                   26         27         28         29         30
    26  O    0.000000
    27  H    3.271453   0.000000
    28  H    4.122685   1.784821   0.000000
    29  H    2.951036   1.789297   1.770959   0.000000
    30  H    4.632406   3.314215   2.471498   3.715097   0.000000
    31  H    4.106642   2.679153   2.910117   3.808271   1.784141
    32  H    4.012935   3.869840   3.712940   4.351510   1.786428
    33  H    3.947393   3.791661   2.650642   2.893557   2.551027
    34  H    3.316947   4.333560   3.825062   3.752437   2.958047
    35  H    1.813717   3.903361   3.964393   2.802543   4.468071
    36  H    2.017825   3.711483   4.313143   3.935220   3.676334
    37  H    2.080343   2.451668   3.687965   3.312451   3.751024
    38  H    0.981106   2.900804   3.939818   2.530877   4.950503
                   31         32         33         34         35
    31  H    0.000000
    32  H    1.787201   0.000000
    33  H    3.774319   3.187842   0.000000
    34  H    3.697364   2.464609   1.784760   0.000000
    35  H    4.659130   4.147301   2.826550   2.396141   0.000000
    36  H    3.037604   2.414248   3.789191   2.584168   2.815419
    37  H    2.529448   3.059772   4.324745   3.788838   3.471703
    38  H    4.374229   4.618341   4.257163   4.001385   2.243575
                   36         37         38
    36  H    0.000000
    37  H    1.783745   0.000000
    38  H    2.857954   2.328517   0.000000
 Framework group  C1[X(C10H24O4)]
 Deg. of freedom   108
                         Standard orientation:                         
 ---------------------------------------------------------------------
 Center     Atomic      Atomic             Coordinates (Angstroms)
 Number     Number       Type             X           Y           Z
 ---------------------------------------------------------------------
      1          6           0       -4.317695    0.019466    0.274349
      2          6           0       -2.788182   -0.004575    0.136431
      3          6           0       -2.139405   -0.026153    1.530780
      4          6           0       -2.384809   -1.264471   -0.658856
      5          8           0       -1.004180   -1.343777   -0.956161
      6          6           0       -2.373245    1.259297   -0.647680
      7          8           0       -1.004649    1.306630   -0.989242
      8          1           0       -4.676676   -0.892148    0.782953
      9          1           0       -4.814983    0.078348   -0.710468
     10          1           0       -4.641070    0.889393    0.872576
     11          1           0       -2.636272   -0.773398    2.173526
     12          1           0       -2.225321    0.957264    2.026608
     13          1           0       -1.075549   -0.301147    1.482489
     14          1           0       -2.971163   -1.293730   -1.600610
     15          1           0       -2.642891   -2.167673   -0.079482
     16          1           0       -0.744556   -0.462252   -1.294909
     17          1           0       -2.663974    2.156995   -0.066556
     18          1           0       -2.926764    1.289963   -1.603095
     19          1           0       -0.441922    1.474326   -0.203277
     20          6           0        2.139097    0.025929   -1.530959
     21          6           0        2.788074    0.004254   -0.136661
     22          6           0        4.317553   -0.020666   -0.274841
     23          6           0        2.385529    1.264521    0.658472
     24          8           0        1.005058    1.344530    0.956402
     25          6           0        2.372675   -1.259234    0.647846
     26          8           0        1.004212   -1.305728    0.990050
     27          1           0        2.222854   -0.958078   -2.025983
     28          1           0        2.637417    0.771570   -2.174441
     29          1           0        1.075843    0.303214   -1.482759
     30          1           0        4.676957    0.890684   -0.783618
     31          1           0        4.640310   -0.890836   -0.873055
     32          1           0        4.815001   -0.079741    0.709883
     33          1           0        2.643817    2.167497    0.078835
     34          1           0        2.972254    1.293677    1.599998
     35          1           0        0.745331    0.463219    1.295623
     36          1           0        2.926620   -1.290086    1.603010
     37          1           0        2.662617   -2.157190    0.066723
     38          1           0        0.441048   -1.473313    0.204347
 ---------------------------------------------------------------------
 Rotational constants (GHZ):           1.2478711           0.3403300           0.3300293
   244 basis functions,   446 primitive gaussians,   258 cartesian basis functions
    58 alpha electrons       58 beta electrons
       nuclear repulsion energy      1079.4025535588 Hartrees.
 NAtoms=   38 NActive=   38 NUniq=   38 SFac= 1.00D+00 NAtFMM=   60 NAOKFM=F Big=F
 Nuclear repulsion after empirical dispersion term =     1079.3684154367 Hartrees.
   1 Symmetry operations used in ECPInt.
 ECPInt:  NShTT=    8778 NPrTT=   35234 LenC2=    8513 LenP2D=   24567.
 LDataN:  DoStor=T MaxTD1= 4 Len=   56
 Initial guess from the checkpoint file:  "/scratch/user/peterchao1/peterchao1/6113309_1660079070000000130990947/Gau-172758.chk"
 B after Tr=    -0.000000    0.000000   -0.000000
         Rot=    0.999944   -0.009738   -0.000519   -0.004004 Ang=  -1.21 deg.
 ExpMin= 1.22D-01 ExpMax= 2.27D+03 ExpMxC= 3.41D+02 IAcc=3 IRadAn=         5 AccDes= 0.00D+00
 Harris functional with IExCor= 4639 and IRadAn=       5 diagonalized for initial guess.
 HarFok:  IExCor= 4639 AccDes= 0.00D+00 IRadAn=         5 IDoV= 1 UseB2=F ITyADJ=14
 ICtDFT=  3500011 ScaDFX=  1.000000  1.000000  1.000000  1.000000
 FoFCou: FMM=F IPFlag=           0 FMFlag=      100000 FMFlg1=           0
         NFxFlg=           0 DoJE=T BraDBF=F KetDBF=T FulRan=T
         wScrn=  0.000000 ICntrl=       500 IOpCl=  0 I1Cent=   200000004 NGrid=           0
         NMat0=    1 NMatS0=      1 NMatT0=    0 NMatD0=    1 NMtDS0=    0 NMtDT0=    0
 Petite list used in FoFCou.
     Accept linear search using points  3 and  4.
     Minimum is close to point  3 DX=  1.00D-01 DF= -3.05D-06 DXR=  8.36D-02 DFR=  7.04D-03 which will be used.
     Accept linear search using points  1 and  2.
     Minimum is close to point  2 DX= -7.76D-02 DF= -9.71D-07 DXR=  7.59D-02 DFR=  6.76D-03 which will be used.
     Accept linear search using points  1 and  2.
     Accept linear search using points  1 and  2.
     Minimum is close to point  2 DX= -4.70D-05 DF= -1.14D-13 DXR=  4.70D-05 DFR=  1.95D-09 which will be used.
 SCF Done:  E(RwB97XD) =  -695.641922466     a.u. after    7 cycles
            Convg  =    0.8578D-09                    30 Fock formations.
[...]
 ,0.00001914,-0.00000789,0.00297622,0.00046142,-0.00282191,-0.00004462,
 -0.00167161,-0.00114993,0.00353295,-0.00074219,-0.00456112,0.00076357,
 -0.00062696,-0.00134001,-0.09961410,0.00701279,0.10077145,-0.04191863,
 -0.00056549,0.02417715,-0.00093412,-0.00003772,0.00018988,0.00084745,0
 .00117479,-0.00013057,0.00034897,-0.00005701,-0.00050159,-0.00000225,-
 0.00002718,0.00017907,-0.00001118,-0.00006283,-0.00005877,0.00005556,0
 .00016254,0.00004486,0.00011110,0.00018499,-0.00009120,-0.00007758,-0.
 00043787,-0.00012566,0.00570466,-0.00081193,-0.00569078,0.12970482,0.0
 0000077,0.00001508,0.00001095,-0.00001052,-0.00001454,-0.00002193,0.00
 002562,0.00002519,0.00000096,-0.00002362,-0.00002707,-0.00001661,0.000
 03313,0.00005288,0.00012005,0.00012272,0.00002120,0.00004403,-0.000202
 43,0.00014424,0.00026876,-0.00000379,0.00000221,-0.00000347,-0.0000064
 6,-0.00000219,0.00000453,0.00000413,-0.00000098,0.00000003,-0.00001506
 ,0.00000466,-0.00000152,0.00000329,-0.00000203,0.00000832,0.00000632,-
 0.00001821,0.00000525,-0.00000479,0.00000110,0.00000727,0.00000932,0.0
 0000302,0.00000010,-0.00011445,-0.00008423,-0.00008301,0.00000522,0.00
 000021,-0.00000634,-0.00002809,-0.00000115,0.00000583,0.00052476,-0.00
 006394,-0.00045812,-0.00176513,-0.00468809,-0.00142977,0.01159479,-0.0
 0144702,-0.02573253,0.00130867,0.00068930,-0.00040792,0.00482324,-0.05
 605518,-0.00353603,-0.00317751,0.00451163,0.00138975,0.00060250,0.0017
 0344,-0.00131425,0.00008839,-0.00000987,0.00049089,0.00056000,0.000189
 61,-0.00167109,-0.00018133,0.00015479,-0.00023177,0.00005713,-0.000026
 12,0.00023255,-0.00017044,-0.00004000,0.00008884,0.00013983,0.00000812
 ,0.00033064,-0.00069683,-0.00008459,0.00027091,-0.01221600,0.00295057,
 0.02216793,-0.00149363,0.05276007,-0.00000857,-0.00000576,0.00001205,0
 .00004444,0.00000653,0.00000361,-0.00000832,-0.00001787,0.00000055,-0.
 00016087,0.00000043,-0.00002714,0.00020545,-0.00005804,0.00010519,-0.0
 0022412,0.00001828,-0.00001711,0.00016776,0.00005233,0.00029232,0.0000
 0788,-0.00000859,0.00000259,-0.00000154,0.00000066,-0.00000293,0.00000
 426,0.00000858,0.00000157,0.00002113,-0.00001154,0.00000372,-0.0000029
 0,0.00001136,-0.00000163,-0.00001520,0.00001839,-0.00002348,0.00001942
 ,0.00000727,-0.00000431,0.00001998,-0.00001113,0.00001275,-0.00019051,
 0.00004856,-0.00004895,0.00003468,0.00001245,0.00002303,0.00001140,-0.
 00000837,-0.00000641,-0.00017411,-0.00006577,-0.00026855,-0.00148457,-
 0.00414195,-0.00054143,0.00783701,0.00081661,-0.01501107,0.00093101,0.
 00051214,0.00002489,0.10301278,-0.00433417,-0.24427509,-0.00470900,-0.
 00102270,0.01604054,-0.00017305,0.00116568,0.00023108,0.00005928,-0.00
 026684,0.00023621,0.00054943,-0.00028023,-0.00107821,-0.00007276,0.000
 05858,0.00041070,-0.00010408,0.00015038,0.00028551,0.00002502,-0.00002
 208,-0.00011040,-0.00024724,0.00005453,0.00041756,-0.00099605,-0.00047
 279,0.00034739,0.00729441,-0.00181754,-0.01266017,-0.11193435,0.009667
 39,0.25477407,0.00003831,-0.00000643,-0.00060418,0.00016181,0.00003312
 ,0.00092236,-0.00191449,-0.00141934,0.00032003,0.00014413,0.00043980,0
 .00038689,-0.00085097,-0.00065240,-0.00065207,0.00008060,-0.00054619,0
 .00053336,-0.00202197,0.00174202,-0.00028918,-0.00004872,0.00000683,0.
 00003332,0.00025686,0.00001251,-0.00011273,-0.00005254,-0.00000436,0.0
 0004759,0.00109729,-0.00002649,-0.00001500,0.00013351,0.00003326,-0.00
 004057,-0.00192807,0.00260992,-0.00126631,-0.00003228,-0.00011445,-0.0
 0019051,-0.00000193,0.00003226,0.00004165,0.00023578,0.00015698,0.0007
 9402,-0.00000268,-0.00008515,0.00001408,-0.00003505,0.00006581,-0.0002
 0668,0.00343123,-0.00465930,0.00158504,0.00027344,0.00014558,-0.000380
 39,0.00103632,-0.00050881,-0.00175640,0.00000441,0.00073260,0.00065487
 ,-0.02309355,0.04030526,-0.02128166,-0.07132836,0.05434100,-0.02750400
 ,-0.00182384,-0.00671859,-0.00227074,-0.00954232,0.00295537,0.00211474
 ,0.00002484,0.00007869,0.00017892,-0.00007270,-0.00005524,0.00015016,0
 .00006484,-0.00009383,0.00009522,0.00017834,-0.00010404,0.00011230,0.0
 0039171,0.00004273,0.00015836,-0.00009224,-0.00001293,0.00000270,-0.00
 626413,-0.00103198,-0.00046289,0.00011729,0.00065225,0.00051082,0.1097
 1339,-0.00000094,-0.00032180,0.00015140,-0.00022277,0.00019447,-0.0001
 8016,0.00081563,-0.00101132,0.00014182,0.00179807,0.00016571,0.0006886
 9,-0.00348602,-0.00109444,0.00200886,-0.00159142,0.00057443,-0.0006102
 0,0.00339920,-0.00189262,-0.00204262,0.00011084,-0.00002556,0.00003596
 ,-0.00006458,0.00003815,0.00001988,-0.00009958,-0.00003726,-0.00005751
 ,0.00028292,-0.00016299,-0.00002118,-0.00093656,-0.00032740,-0.0002250
 7,0.00229757,0.00194418,0.00079976,-0.00052419,-0.00008423,0.00004856,
 0.00000903,-0.00009974,-0.00007216,0.00015699,0.00204990,-0.00078322,-
 0.00001688,-0.00016506,0.00007308,0.00035996,-0.00008715,0.00000578,-0
 .00535768,0.00006451,0.00478834,0.00017032,-0.00113904,0.00002541,-0.0
 0129588,0.00249943,-0.00113317,0.00012573,-0.00252164,0.00006684,0.009
 48020,0.00647612,0.00125516,0.09337564,-0.35278025,0.14008074,-0.01802
 318,-0.00000462,-0.00378428,0.00680556,0.00261663,0.00469259,-0.000130
 34,-0.00020631,-0.00048276,0.00015462,-0.00008998,0.00050791,-0.000040
 01,0.00060355,0.00006500,0.00076986,-0.00009529,0.00030407,-0.00064102
 ,-0.00020836,-0.00027252,0.00003278,0.00022727,-0.00003030,-0.00383808
 ,0.00139708,-0.00205157,-0.00269916,-0.00051124,0.00048524,-0.09182748
 ,0.34586477,0.00002857,0.00006328,-0.00036939,0.00026441,-0.00007129,0
 .00035180,-0.00037140,0.00001127,-0.00109247,0.00118832,0.00002887,0.0
 0012872,-0.00126382,0.00088224,0.00009992,0.00205722,-0.00006200,0.000
 56705,-0.00203325,-0.00134195,0.00093647,-0.00008937,0.00004492,0.0000
 0044,0.00011789,-0.00000233,-0.00003476,-0.00005951,-0.00004564,0.0000
 1592,-0.00005067,-0.00002629,-0.00014983,-0.00029544,-0.00016976,-0.00
 005629,-0.00089159,0.00042544,0.00296068,-0.00019535,-0.00008301,-0.00
 004895,-0.00011339,0.00009272,-0.00004402,0.00079403,-0.00078322,-0.00
 094541,-0.00026988,-0.00013048,-0.00014923,-0.00031219,0.00005766,-0.0
 0005277,0.00206424,0.00545453,-0.00301736,-0.00032736,-0.00026359,-0.0
 0059189,0.00115890,0.00083244,0.00046500,-0.00018127,0.00043395,0.0003
 6566,-0.00773364,0.01031153,-0.00171193,-0.04167398,0.13071421,-0.0724
 7851,-0.00256676,-0.00327001,0.00085514,0.00265168,0.00410607,-0.00751
 908,0.00018603,0.00006866,0.00016018,0.00030128,-0.00000787,0.00021754
 ,0.00011477,0.00001647,-0.00066977,0.00015625,-0.00007853,0.00004036,0
 .00034082,0.00002255,0.00005395,0.00021544,0.00000239,-0.00015009,-0.0
 0224648,-0.00045340,0.00032407,0.00122719,-0.00088521,0.00024944,0.048
 08807,-0.14154118,0.08246101,0.00001230,-0.00005916,-0.00001153,-0.000
 03775,0.00006276,-0.00000460,0.00009469,-0.00006215,-0.00003667,0.0006
 9894,-0.00002779,0.00036410,-0.00185129,-0.00012341,0.00131115,0.00007
 398,0.00010499,-0.00002728,0.00004161,-0.00030438,0.00001204,0.0000052
 1,0.00000980,0.00000183,-0.00000497,0.00000581,0.00000689,-0.00002560,
 -0.00001701,-0.00001236,-0.00002917,0.00001270,0.00000729,-0.00007427,
 -0.00004385,-0.00001819,0.00004850,0.00012790,0.00011720,-0.00024581,-
 0.00002809,0.00001140,-0.00002388,0.00001429,-0.00004685,-0.00003505,0
 .00035995,-0.00031219,-0.00000794,-0.00003054,-0.00001331,-0.00000744,
 0.00000527,0.00000949,-0.00010249,0.00014813,0.00002306,-0.00021878,0.
 00153352,-0.00134192,0.00347190,0.00094301,-0.00555533,0.00062610,0.00
 106421,-0.00186947,-0.00049389,-0.00004290,0.00019181,0.00052050,-0.00
 071149,-0.00002148,-0.10898852,-0.00919547,0.10890506,-0.03870344,0.00
 252418,0.02706174,-0.00006598,0.00009130,0.00016737,0.00040056,0.00010
 613,-0.00046501,0.00003414,0.00006493,-0.00002443,0.00003404,-0.000216
 18,-0.00007720,0.00004259,-0.00016814,0.00004806,-0.00023799,0.0005602
 4,-0.00017324,0.00005487,-0.00011538,-0.00010882,0.00009874,-0.0002373
 6,0.00001202,-0.00033867,0.00123825,0.00049116,0.14252850,-0.00000109,
 0.00001158,-0.00001018,0.00001175,-0.00001139,0.00001746,-0.00001967,0
 .00000325,-0.00001058,-0.00009005,0.00002268,-0.00001081,0.00008077,0.
 00003755,-0.00005827,0.00002477,-0.00002677,0.00000349,-0.00004664,0.0
 0002154,-0.00009821,-0.00000278,-0.00000093,0.00000025,0.00000593,-0.0
 0000116,-0.00000400,0.00000204,0.00000155,0.00000259,0.00001232,-0.000
 00267,-0.00000287,0.00000190,0.00000151,0.00000077,-0.00001847,-0.0000
 1048,0.00001340,0.00001914,-0.00000115,-0.00000837,-0.00000305,-0.0000
 0055,0.00000149,0.00006580,-0.00008715,0.00005766,-0.00001362,0.,-0.00
 000251,0.00000527,0.00000021,-0.00000442,-0.00006586,-0.00000657,0.000
 14261,0.00240940,-0.00430001,0.00149542,-0.01234174,-0.00233901,0.0250
 7257,-0.00135279,0.00071959,0.00037025,-0.00094790,0.00165275,0.001304
 19,0.00011899,-0.00011499,-0.00044770,-0.00757272,-0.05518374,0.008123
 03,0.00069887,0.00291360,0.00036690,0.00014356,0.00026788,0.00016196,-
 0.00062065,0.00013271,0.00159420,-0.00001690,0.00003587,-0.00012501,-0
 .00021646,-0.00000243,-0.00032673,0.00017110,-0.00004361,-0.00011698,0
 .00076292,-0.00001887,-0.00022258,0.00027214,0.00024405,-0.00023180,0.
 00030152,-0.00042574,-0.00067994,-0.00016501,-0.00023136,0.00034785,0.
 00486332,0.05280814,-0.00000611,-0.00000101,0.00000723,0.00004126,0.00
 000574,0.00000474,-0.00000813,0.00000538,-0.00001138,-0.00012517,0.000
 00305,0.00002151,-0.00006449,-0.00003319,0.00035897,-0.00014827,0.0000
 1697,-0.00001741,0.00021266,0.00003787,0.00007347,0.00000494,-0.000006
 47,0.00000209,-0.00000050,-0.00000002,-0.00000271,0.00000373,0.0000062
 8,0.00000126,0.00000862,-0.00000735,0.00000379,0.00001183,0.00001209,-
 0.00000045,-0.00001517,-0.00001525,0.00000984,-0.00000789,0.00000583,-
 0.00000641,0.00001651,-0.00000580,0.00000688,-0.00020669,0.00000578,-0
 .00005277,0.00002828,0.00001057,0.00001877,0.00000949,-0.00000442,-0.0
 0000284,-0.00003690,-0.00007442,-0.00008589,-0.00196043,0.00361153,-0.
 00078020,0.00796997,0.00002510,-0.01485262,0.00104713,-0.00042684,0.00
 005022,0.00004443,-0.00107679,0.00035055,-0.00005833,0.00020677,0.0003
 1973,0.11827233,0.00907449,-0.24745160,-0.00908990,0.00015293,0.014978
 83,-0.00009240,0.00006139,0.00053685,0.00053463,0.00042532,-0.00099925
 ,0.00001655,-0.00002325,0.00003432,-0.00021158,-0.00011412,0.00044528,
 0.00002673,0.00002737,-0.00011794,-0.00106086,0.00041741,0.00037126,-0
 .00021259,-0.00003246,0.00016162,-0.00002552,0.00061990,0.00055760,0.0
 0020620,-0.00019446,-0.00034643,-0.12018217,-0.01507025,0.25732702,-0.
 00000413,0.00000026,0.00009438,-0.00001927,-0.00000583,-0.00014456,0.0
 0019888,-0.00009798,-0.00001071,0.00005052,-0.00004257,-0.00000718,-0.
 00021912,0.00023020,0.00056058,-0.00001880,0.00008388,-0.00002215,0.00
 005723,-0.00006878,0.00011971,0.00000858,-0.00000068,-0.00000827,-0.00
 004260,-0.00000153,0.00002138,0.00001077,0.00000189,-0.00000695,-0.000
 05839,0.00000448,0.00000070,-0.00011500,-0.00004013,0.00000378,0.00011
 629,0.00027057,0.00005213,-0.00004882,0.00000522,0.00003468,0.00000207
 ,-0.00001131,-0.00002180,-0.00000268,-0.00001689,-0.00026988,0.0000058
 0,0.00000548,-0.00000606,-0.00000794,-0.00001362,0.00002828,0.00000665
 ,0.00013271,-0.00011421,-0.00004763,-0.00030664,-0.00007529,0.00284619
 ,0.00508699,0.00431258,0.00071176,0.00059546,0.00064421,-0.00141030,0.
 00155949,-0.00156806,0.00104876,-0.00156531,0.00060337,-0.05701009,-0.
 03000399,-0.01529975,-0.02445145,-0.03063743,-0.02574650,0.00012545,-0
 .00016710,0.00013421,-0.00004442,0.00010196,0.00006467,-0.00001303,-0.
 00000568,-0.00011971,0.00010118,-0.00021218,0.00001155,-0.00024952,0.0
 0011328,-0.00042261,0.00006228,0.00001326,0.00001456,0.00058050,0.0004
 9005,0.00018919,0.00013305,-0.00027803,-0.00021503,-0.00069892,0.00291
 617,-0.00019621,0.00503291,0.01361062,0.00756287,0.07064301,0.00000233
 ,0.00001751,0.00002102,0.00000142,-0.00001017,-0.00003425,0.00007842,0
 .00002514,-0.00001323,-0.00002931,-0.00003037,-0.00000979,-0.00003788,
 0.00007307,0.00033952,0.00011251,0.00000016,0.00003868,-0.00021107,0.0
 0011524,0.00018970,-0.00000416,0.00000286,-0.00000628,-0.00001150,-0.0
 0000362,0.00000792,0.00000856,0.00000170,0.00000073,-0.00002483,0.0000
 0734,0.00000067,-0.00000025,0.00000071,0.00001378,0.00000279,-0.000014
 27,0.00001275,-0.00001793,0.00000021,0.00001245,0.00000717,0.00000326,
 -0.00000945,-0.00008516,-0.00016506,-0.00013048,0.00000547,0.00000886,
 -0.00000557,-0.00003054,0.,0.00001057,0.00036736,-0.00001178,-0.000291
 91,-0.00020738,0.00089528,-0.00196471,-0.00403699,-0.02348905,-0.01558
 193,-0.00108432,0.00022698,-0.00048990,0.00343124,-0.00306761,0.005013
 18,-0.00095486,0.00085940,-0.00008623,-0.03389904,-0.22245763,-0.11223
 204,-0.00452671,0.00658986,0.00220072,-0.00014651,0.00031788,0.0013870
 1,0.00017484,0.00050279,-0.00000680,-0.00001704,0.00001531,0.00007503,
 0.00011561,0.00029840,0.00030211,0.00094136,0.00030638,0.00040867,0.00
 000966,-0.00001501,0.00010991,-0.00040721,-0.00164441,-0.00083253,0.00
 009019,0.00026109,-0.00000381,0.00040104,-0.00002636,0.00022975,0.0010
 0964,0.00335248,0.00208969,0.03921829,0.23634131,0.00000759,-0.0000182
 5,0.00003518,-0.00005570,0.00001401,-0.00007069,0.00012916,-0.00003461
 ,0.00000230,0.00027170,-0.00007682,0.00011224,-0.00066512,0.00001277,0
 .00039522,0.00007048,0.00005750,-0.00000368,-0.00007773,-0.00011141,0.
 00007283,0.00000296,0.00000490,-0.00000622,-0.00002072,0.00000041,0.00
 001524,-0.00000362,-0.00000501,-0.00000792,-0.00003175,0.00000509,-0.0
 0000023,-0.00004969,-0.00002041,-0.00000248,0.00005032,0.00012137,0.00
 003711,-0.00009382,-0.00000634,0.00002303,-0.00001449,0.00000613,-0.00
 003125,0.00001408,0.00007307,-0.00014923,-0.00000606,-0.00000557,-0.00
 001374,-0.00001331,-0.00000251,0.00001877,0.00004797,0.00009371,-0.000
 08200,0.00014590,0.00142634,0.00147593,0.00231113,0.01522085,0.0073109
 3,0.00090272,0.00001033,0.00041940,-0.00173002,0.00253534,-0.00188890,
 0.00054278,-0.00117169,0.00023976,-0.01997705,-0.11309477,-0.12659151,
 -0.01057463,-0.00644562,-0.00206640,-0.00015703,-0.00009391,-0.0002389
 3,0.00000913,-0.00011991,0.00021306,0.00011796,0.00000609,-0.00015608,
 0.00020370,-0.00005114,0.00002764,0.00001359,-0.00024898,0.00011558,-0
 .00015895,-0.00007462,-0.00003257,0.00019206,0.00077118,0.00082010,-0.
 00008301,0.00021405,0.00017349,0.00004045,0.00166642,-0.00018891,-0.00
 448877,-0.02173449,-0.01140779,0.03172545,0.12013338,0.13170737,-0.000
 18800,0.00078756,0.00040016,0.00028259,-0.00103043,-0.00030402,-0.0001
 3198,0.00062880,0.00012778,-0.01070174,-0.00017483,-0.00364492,0.00415
 241,0.00322062,-0.00463804,0.00013919,-0.00116179,0.00048471,-0.001953
 06,0.00369549,0.00079473,-0.00007962,-0.00008361,-0.00004842,-0.000060
 38,-0.00007962,-0.00003821,0.00036155,0.00018966,0.00012809,-0.0000646
 2,-0.00005769,-0.00007765,0.00047256,0.00034746,0.00027669,0.00031515,
 -0.00092611,-0.00157771,0.00297623,0.00052477,-0.00017411,0.00049427,-
 0.00004525,0.00057334,0.00343124,-0.00535758,0.00206425,0.00000665,0.0
 0036736,0.00004796,-0.00010249,-0.00006586,-0.00003690,0.00278572,-0.0
 0053575,-0.00142943,0.00040457,0.00010914,-0.00063814,0.00057471,0.001
 21845,-0.00016847,-0.00010733,-0.00079198,0.00048543,-0.00023617,0.000
 75950,0.00054278,-0.00162391,-0.00421801,0.00149726,-0.03025398,0.0073
 2645,0.02341240,-0.17848951,0.04280570,0.14764064,-0.00004115,0.000051
 50,-0.00018922,0.00005210,-0.00023651,0.00028395,0.00037852,0.00013394
 ,-0.00023617,0.00042543,-0.00019100,-0.00000689,-0.00009378,0.00006702
 ,-0.00005149,0.00002665,0.00003149,-0.00008102,0.00007051,-0.00039137,
 0.00002453,-0.00016582,0.00006335,-0.00004594,0.00275935,0.00649645,-0
 .00057469,-0.00232715,-0.00008674,-0.00250511,0.00272021,-0.00024520,0
 .00140232,0.20379108,-0.00001458,-0.00014663,-0.00019546,-0.00018687,0
 .00005002,0.00054955,-0.00075367,-0.00012480,0.00028454,-0.00043039,-0
 .00021084,-0.00071047,0.00255137,-0.00802428,-0.00020669,-0.00114782,-
 0.00012085,-0.00016989,0.00135565,0.00038107,-0.00074073,0.00005996,-0
 .00002097,0.00004479,0.00007836,0.00001492,-0.00003475,-0.00004184,-0.
 00000907,-0.00000307,0.00051063,-0.00001158,0.00015738,0.00030286,0.00
 001162,0.00007075,-0.00062206,-0.00026362,-0.00180817,0.00046140,-0.00
 006394,-0.00006577,0.00049652,-0.00008950,0.00008346,-0.00465929,0.000
 06455,0.00545455,0.00013271,-0.00001178,0.00009371,0.00014812,-0.00000
 657,-0.00007442,-0.00053576,-0.00133194,0.00037104,0.00076105,0.000488
 82,0.00042174,0.00097881,-0.00029400,-0.00120416,0.00021159,-0.0000782
 5,0.00031382,0.00157601,-0.00016091,-0.00024534,-0.00172818,-0.0002835
 7,0.00178789,-0.00241351,-0.00158805,0.00362388,0.05873154,-0.03652901
 ,-0.07640237,-0.00022069,-0.00016539,-0.00022833,-0.00033222,-0.000122
 93,-0.00019371,-0.00020225,-0.00038184,0.00080487,0.00000688,0.0000020
 9,0.00003508,-0.00011784,-0.00005518,-0.00008165,-0.00008963,-0.000043
 67,0.00004557,-0.00020713,0.00003577,-0.00004922,-0.00032775,0.0000037
 9,0.00013372,0.00324500,-0.00159219,-0.00493104,-0.00346704,0.00058162
 ,0.00026464,-0.00096459,0.00071208,0.00094312,-0.05314535,0.04938502,0
 .00017365,-0.00071338,-0.00074590,-0.00107915,0.00068891,0.00088493,-0
 .00092762,0.00005593,0.00034951,0.00700718,-0.00133060,0.00696252,-0.0
 0886426,0.00096324,-0.01043638,0.00063611,0.00051524,-0.00015264,0.000
 30462,-0.00261611,-0.00077204,-0.00000209,0.00009164,0.00005093,0.0002
 3306,0.00008041,-0.00005215,-0.00034210,-0.00015452,-0.00010258,-0.000
 08150,0.00003086,-0.00010086,0.00045788,0.00005390,-0.00027128,-0.0007
 0563,-0.00138521,-0.00043028,-0.00282191,-0.00045813,-0.00026854,-0.00
 069021,0.00037738,-0.00038924,0.00158508,0.00478828,-0.00301744,-0.000
 11421,-0.00029191,-0.00008200,0.00002306,0.00014260,-0.00008589,-0.001
 42942,0.00037103,0.00116159,-0.00044965,-0.00018244,0.00058843,-0.0026
 7416,-0.00056537,0.00111903,-0.00001687,0.00095474,-0.00099611,0.00007
 521,-0.00037246,-0.00039066,0.00058001,0.00254772,-0.00087971,-0.00773
 975,0.00621254,0.01633694,0.18627955,-0.07722991,-0.26905109,-0.000353
 13,-0.00028165,-0.00024967,0.00051103,-0.00008762,-0.00030679,0.000062
 02,0.00102455,-0.00059564,-0.00042588,0.00017476,-0.00021444,0.0000322
 7,-0.00011313,0.00008923,0.00030495,-0.00006956,-0.00008905,-0.0000741
 2,0.00030434,0.00000426,0.00007850,-0.00014935,-0.00012898,0.00004215,
 -0.00442915,-0.00063629,-0.00395086,0.00008961,0.00049385,-0.00192335,
 -0.00089833,-0.00027667,-0.16372047,0.07186115,0.26268108\\0.00000016,
 -0.00000035,-0.00000036,-0.00000089,-0.00000043,-0.00000126,-0.0000000
 5,-0.00000030,-0.00000002,0.00000091,0.00000088,0.00000052,-0.00000025
 ,-0.00000103,-0.00000109,0.00000264,-0.00000022,0.00000085,-0.00000143
 ,-0.00000051,-0.00000010,0.00000015,-0.00000029,-0.00000017,0.00000006
 ,0.00000006,-0.00000090,0.00000019,0.00000030,-0.00000002,0.00000021,-
 0.00000052,-0.00000021,0.00000035,0.00000007,0.00000032,0.00000009,-0.
 00000024,-0.00000026,-0.00000024,0.00000004,-0.00000054,0.00000022,0.,
 -0.00000040,-0.00000083,0.00000044,0.00000004,-0.00000017,-0.00000022,
 0.00000021,0.00000002,0.00000046,-0.00000013,-0.00000006,-0.00000075,-
 0.00000005,0.,0.00000026,0.,0.00000092,0.00000048,0.00000125,-0.000000
 14,0.00000031,0.00000034,-0.00000065,-0.00000084,-0.00000046,0.0000002
 3,0.00000168,0.00000096,-0.00000293,0.00000011,-0.00000062,0.00000190,
 0.00000013,-0.00000005,-0.00000039,-0.00000009,-0.00000033,-0.00000022
 ,0.00000050,0.00000019,0.00000005,0.00000024,0.00000029,-0.00000012,0.
 00000027,0.00000016,-0.00000022,-0.00000032,0.00000001,-0.00000005,-0.
 00000006,0.00000089,-0.00000024,0.00000004,0.00000042,0.00000022,-0.00
 000005,0.00000053,0.00000060,-0.00000050,0.00000011,-0.00000007,-0.000
 00056,0.00000011,0.00000029,0.00000024,-0.00000022,-0.00000026,0.00000
 075,-0.00000003\\\@


 A MAN IS NEVER SO BRILLIANT AS WHEN HE TAKES THE WORDS RIGHT OUT
 OF YOUR MOUTH. -- ARNOT SHEPPARD, JR.
 File lengths (MBytes):  RWF=    280 Int=      0 D2E=      0 Chk=      6 Scr=      1
 Normal termination of Gaussian 16 at Tue Aug  9 17:10:18 2022.
real 3948.83
user 15642.28
sys 20.58
