 Entering Gaussian System, Link 0=g16
 Input=gaussian_test.inp
 Output=gaussian_test.log
 Initial command:
 /sw/restricted/lms/sw/Gaussian/g16_B01/g16/l1.exe "/scratch/user/peterchao1/peterchao1/6113325_1660079103000000807784384/Gau-109713.inp" -scrdir="/scratch/user/peterchao1/peterchao1/6113325_1660079103000000807784384/"
 Entering Link 1 = /sw/restricted/lms/sw/Gaussian/g16_B01/g16/l1.exe PID=    109717.
  
 Copyright (c) 1988-2017, Gaussian, Inc.  All Rights Reserved.
  
 This is part of the Gaussian(R) 16 program.  It is based on
 the Gaussian(R) 09 system (copyright 2009, Gaussian, Inc.),
 the Gaussian(R) 03 system (copyright 2003, Gaussian, Inc.),
 the Gaussian(R) 98 system (copyright 1998, Gaussian, Inc.),
 the Gaussian(R) 94 system (copyright 1995, Gaussian, Inc.),
 the Gaussian 92(TM) system (copyright 1992, Gaussian, Inc.),
 the Gaussian 90(TM) system (copyright 1990, Gaussian, Inc.),
 the Gaussian 88(TM) system (copyright 1988, Gaussian, Inc.),
 the Gaussian 86(TM) system (copyright 1986, Carnegie Mellon
 University), and the Gaussian 82(TM) system (copyright 1983,
 Carnegie Mellon University). Gaussian is a federally registered
 trademark of Gaussian, Inc.
  
 This software contains proprietary and confidential information,
 including trade secrets, belonging to Gaussian, Inc.
  
 This software is provided under written license and may be
 used, copied, transmitted, or stored only in accord with that
 written license.
  
 The following legend is applicable only to US Government
 contracts under FAR:
  
                    RESTRICTED RIGHTS LEGEND
  
 Use, reproduction and disclosure by the US Government is
 subject to restrictions as set forth in subparagraphs (a)
 and (c) of the Commercial Computer Software - Restricted
 Rights clause in FAR 52.227-19.
  
 Gaussian, Inc.
 340 Quinnipiac St., Bldg. 40, Wallingford CT 06492
  
  
 ---------------------------------------------------------------
 Warning -- This program may not be used in any manner that
 competes with the business of Gaussian, Inc. or will provide
 assistance to any competitor of Gaussian, Inc.  The licensee
 of this program is prohibited from giving any competitor of
 Gaussian, Inc. access to this program.  By using this program,
 the user acknowledges that Gaussian, Inc. is engaged in the
 business of creating and licensing software in the field of
 computational chemistry and represents and warrants to the
 licensee that it is not a competitor of Gaussian, Inc. and that
 it will not use this program in any manner prohibited above.
 ---------------------------------------------------------------
  

 Cite this work as:
 Gaussian 16, Revision B.01,
 M. J. Frisch, G. W. Trucks, H. B. Schlegel, G. E. Scuseria, 
 M. A. Robb, J. R. Cheeseman, G. Scalmani, V. Barone, 
 G. A. Petersson, H. Nakatsuji, X. Li, M. Caricato, A. V. Marenich, 
 J. Bloino, B. G. Janesko, R. Gomperts, B. Mennucci, H. P. Hratchian, 
 J. V. Ortiz, A. F. Izmaylov, J. L. Sonnenberg, D. Williams-Young, 
 F. Ding, F. Lipparini, F. Egidi, J. Goings, B. Peng, A. Petrone, 
 T. Henderson, D. Ranasinghe, V. G. Zakrzewski, J. Gao, N. Rega, 
 G. Zheng, W. Liang, M. Hada, M. Ehara, K. Toyota, R. Fukuda, 
 J. Hasegawa, M. Ishida, T. Nakajima, Y. Honda, O. Kitao, H. Nakai, 
 T. Vreven, K. Throssell, J. A. Montgomery, Jr., J. E. Peralta, 
 F. Ogliaro, M. J. Bearpark, J. J. Heyd, E. N. Brothers, K. N. Kudin, 
 V. N. Staroverov, T. A. Keith, R. Kobayashi, J. Normand, 
 K. Raghavachari, A. P. Rendell, J. C. Burant, S. S. Iyengar, 
 J. Tomasi, M. Cossi, J. M. Millam, M. Klene, C. Adamo, R. Cammi, 
 J. W. Ochterski, R. L. Martin, K. Morokuma, O. Farkas, 
 J. B. Foresman, and D. J. Fox, Gaussian, Inc., Wallingford CT, 2016.
 
 ******************************************
 Gaussian 16:  ES64L-G16RevB.01 20-Dec-2017
                 9-Aug-2022 
 ******************************************
 %nprocshared=4
 Will use up to    4 processors via shared memory.
 %mem=8000mb
 ----------------------------------------------------------------------
 #T wB97XD/def2svpp opt=tight freq int(grid=ultrafine) scf=(verytight,q
 c)
 ----------------------------------------------------------------------
 -----
 dimer
 -----
 Symbolic Z-matrix:
 Charge =  0 Multiplicity = 1
 C                     3.31312   0.8519   -1.64345 
 C                     2.67039   0.08375  -0.50021 
 C                     2.11399  -1.27544  -1.00555 
 O                     1.66714  -2.13895  -0.00069 
 C                     3.68993  -0.14971   0.65422 
 O                     3.12801  -0.68355   1.80232 
 N                     1.5786    0.88533   0.07467 
 O                     0.81994   0.31835   0.84093 
 O                     1.49066   2.05414  -0.20668 
 H                     2.59021   1.01357  -2.44005 
 H                     4.15517   0.29225  -2.04007 
 H                     3.666     1.82157  -1.30163 
 H                     2.93848  -1.78954  -1.50918 
 H                     1.32922  -1.0761   -1.74445 
 H                     0.74886  -1.91692   0.2331 
 H                     4.13959   0.80749   0.93777 
 H                     4.47932  -0.80112   0.24884 
 H                     2.63837  -1.48771   1.55266 
 C                    -3.39633   0.82306  -1.42109 
 C                    -2.63138   0.3981   -0.17249 
 C                    -2.12044   1.64559   0.61356 
 O                    -1.59586   1.33788   1.86022 
 C                    -3.48123  -0.50157   0.74427 
 O                    -3.88511  -1.68827   0.11927 
 N                    -1.42982  -0.33477  -0.60377 
 O                    -1.15647  -1.38682  -0.05915 
 O                    -0.74192   0.16159  -1.46815 
 H                    -2.72864   1.29722  -2.13642 
 H                    -4.17989   1.5248   -1.15171 
 H                    -3.8578   -0.05018  -1.87882 
 H                    -2.98247   2.29389   0.79112 
 H                    -1.4017    2.18007  -0.02275 
 H                    -0.69358   0.98241   1.7625 
 H                    -4.39397   0.04313   0.99485 
 H                    -2.9286   -0.69739   1.67013 
 H                    -3.12628  -2.28592   0.08346 
 
 Add virtual bond connecting atoms O26        and H15        Dist= 3.78D+00.
 Add virtual bond connecting atoms H33        and O8         Dist= 3.58D+00.

 GradGradGradGradGradGradGradGradGradGradGradGradGradGradGradGradGradGrad
 Initialization pass.
                           ----------------------------
                           !    Initial Parameters    !
                           ! (Angstroms and Degrees)  !
 --------------------------                            --------------------------
 ! Name  Definition              Value          Derivative Info.                !
 --------------------------------------------------------------------------------
 ! R1    R(1,2)                  1.5199         estimate D2E/DX2                !
 ! R2    R(1,10)                 1.0878         estimate D2E/DX2                !
 ! R3    R(1,11)                 1.0861         estimate D2E/DX2                !
 ! R4    R(1,12)                 1.087          estimate D2E/DX2                !
 ! R5    R(2,3)                  1.5532         estimate D2E/DX2                !
 ! R6    R(2,5)                  1.5578         estimate D2E/DX2                !
 ! R7    R(2,7)                  1.4714         estimate D2E/DX2                !
 ! R8    R(3,4)                  1.3982         estimate D2E/DX2                !
 ! R9    R(3,13)                 1.0944         estimate D2E/DX2                !
 ! R10   R(3,14)                 1.0962         estimate D2E/DX2                !
 ! R11   R(4,15)                 0.9732         estimate D2E/DX2                !
 ! R12   R(5,6)                  1.3852         estimate D2E/DX2                !
 ! R13   R(5,16)                 1.0949         estimate D2E/DX2                !
 ! R14   R(5,17)                 1.1008         estimate D2E/DX2                !
 ! R15   R(6,18)                 0.974          estimate D2E/DX2                !
 ! R16   R(7,8)                  1.2183         estimate D2E/DX2                !
 ! R17   R(7,9)                  1.2054         estimate D2E/DX2                !
 ! R18   R(8,33)                 1.8924         estimate D2E/DX2                !
 ! R19   R(15,26)                1.9992         estimate D2E/DX2                !
 ! R20   R(19,20)                1.5247         estimate D2E/DX2                !
 ! R21   R(19,28)                1.0873         estimate D2E/DX2                !
 ! R22   R(19,29)                1.0858         estimate D2E/DX2                !
 ! R23   R(19,30)                1.0886         estimate D2E/DX2                !
 ! R24   R(20,21)                1.5605         estimate D2E/DX2                !
 ! R25   R(20,23)                1.5402         estimate D2E/DX2                !
 ! R26   R(20,25)                1.472          estimate D2E/DX2                !
 ! R27   R(21,22)                1.3871         estimate D2E/DX2                !
 ! R28   R(21,31)                1.0931         estimate D2E/DX2                !
 ! R29   R(21,32)                1.0987         estimate D2E/DX2                !
 ! R30   R(22,33)                0.9747         estimate D2E/DX2                !
 ! R31   R(23,24)                1.4007         estimate D2E/DX2                !
 ! R32   R(23,34)                1.092          estimate D2E/DX2                !
 ! R33   R(23,35)                1.0959         estimate D2E/DX2                !
 ! R34   R(24,36)                0.9666         estimate D2E/DX2                !
 ! R35   R(25,26)                1.2158         estimate D2E/DX2                !
 ! R36   R(25,27)                1.2111         estimate D2E/DX2                !
 ! A1    A(2,1,10)             110.1759         estimate D2E/DX2                !
 ! A2    A(2,1,11)             110.0061         estimate D2E/DX2                !
 ! A3    A(2,1,12)             110.5842         estimate D2E/DX2                !
 ! A4    A(10,1,11)            108.9289         estimate D2E/DX2                !
 ! A5    A(10,1,12)            108.2665         estimate D2E/DX2                !
 ! A6    A(11,1,12)            108.8328         estimate D2E/DX2                !
 ! A7    A(1,2,3)              110.4282         estimate D2E/DX2                !
 ! A8    A(1,2,5)              110.879          estimate D2E/DX2                !
 ! A9    A(1,2,7)              109.4101         estimate D2E/DX2                !
 ! A10   A(3,2,5)              110.1465         estimate D2E/DX2                !
 ! A11   A(3,2,7)              109.7576         estimate D2E/DX2                !
 ! A12   A(5,2,7)              106.1246         estimate D2E/DX2                !
 ! A13   A(2,3,4)              114.9045         estimate D2E/DX2                !
 ! A14   A(2,3,13)             106.9135         estimate D2E/DX2                !
 ! A15   A(2,3,14)             108.4605         estimate D2E/DX2                !
 ! A16   A(4,3,13)             106.342          estimate D2E/DX2                !
 ! A17   A(4,3,14)             111.5888         estimate D2E/DX2                !
 ! A18   A(13,3,14)            108.335          estimate D2E/DX2                !
 ! A19   A(3,4,15)             109.468          estimate D2E/DX2                !
 ! A20   A(2,5,6)              113.9842         estimate D2E/DX2                !
 ! A21   A(2,5,16)             109.2496         estimate D2E/DX2                !
 ! A22   A(2,5,17)             106.5648         estimate D2E/DX2                !
 ! A23   A(6,5,16)             106.7902         estimate D2E/DX2                !
 ! A24   A(6,5,17)             111.5955         estimate D2E/DX2                !
 ! A25   A(16,5,17)            108.5534         estimate D2E/DX2                !
 ! A26   A(5,6,18)             108.038          estimate D2E/DX2                !
 ! A27   A(2,7,8)              117.0186         estimate D2E/DX2                !
 ! A28   A(2,7,9)              119.4177         estimate D2E/DX2                !
 ! A29   A(8,7,9)              123.5484         estimate D2E/DX2                !
 ! A30   A(7,8,33)             129.871          estimate D2E/DX2                !
 ! A31   A(4,15,26)            157.6104         estimate D2E/DX2                !
 ! A32   A(20,19,28)           110.6224         estimate D2E/DX2                !
 ! A33   A(20,19,29)           109.817          estimate D2E/DX2                !
 ! A34   A(20,19,30)           109.4774         estimate D2E/DX2                !
 ! A35   A(28,19,29)           108.9362         estimate D2E/DX2                !
 ! A36   A(28,19,30)           109.4805         estimate D2E/DX2                !
 ! A37   A(29,19,30)           108.4714         estimate D2E/DX2                !
 ! A38   A(19,20,21)           110.7292         estimate D2E/DX2                !
 ! A39   A(19,20,23)           111.927          estimate D2E/DX2                !
 ! A40   A(19,20,25)           107.9603         estimate D2E/DX2                !
 ! A41   A(21,20,23)           110.3533         estimate D2E/DX2                !
 ! A42   A(21,20,25)           106.1601         estimate D2E/DX2                !
 ! A43   A(23,20,25)           109.5104         estimate D2E/DX2                !
 ! A44   A(20,21,22)           113.5281         estimate D2E/DX2                !
 ! A45   A(20,21,31)           107.3213         estimate D2E/DX2                !
 ! A46   A(20,21,32)           108.1406         estimate D2E/DX2                !
 ! A47   A(22,21,31)           106.4877         estimate D2E/DX2                !
 ! A48   A(22,21,32)           112.3976         estimate D2E/DX2                !
 ! A49   A(31,21,32)           108.7506         estimate D2E/DX2                !
 ! A50   A(21,22,33)           109.9306         estimate D2E/DX2                !
 ! A51   A(20,23,24)           112.8548         estimate D2E/DX2                !
 ! A52   A(20,23,34)           107.8426         estimate D2E/DX2                !
 ! A53   A(20,23,35)           109.2082         estimate D2E/DX2                !
 ! A54   A(24,23,34)           106.4971         estimate D2E/DX2                !
 ! A55   A(24,23,35)           111.7769         estimate D2E/DX2                !
 ! A56   A(34,23,35)           108.4668         estimate D2E/DX2                !
 ! A57   A(23,24,36)           108.3009         estimate D2E/DX2                !
 ! A58   A(20,25,26)           118.8876         estimate D2E/DX2                !
 ! A59   A(20,25,27)           117.95           estimate D2E/DX2                !
 ! A60   A(26,25,27)           123.1384         estimate D2E/DX2                !
 ! A61   A(15,26,25)           120.6112         estimate D2E/DX2                !
 ! A62   A(8,33,22)            156.52           estimate D2E/DX2                !
 ! D1    D(10,1,2,3)            57.9591         estimate D2E/DX2                !
 ! D2    D(10,1,2,5)          -179.6673         estimate D2E/DX2                !
 ! D3    D(10,1,2,7)           -62.9517         estimate D2E/DX2                !
 ! D4    D(11,1,2,3)           -62.1455         estimate D2E/DX2                !
 ! D5    D(11,1,2,5)            60.2281         estimate D2E/DX2                !
 ! D6    D(11,1,2,7)           176.9437         estimate D2E/DX2                !
 ! D7    D(12,1,2,3)           177.6091         estimate D2E/DX2                !
 ! D8    D(12,1,2,5)           -60.0173         estimate D2E/DX2                !
 ! D9    D(12,1,2,7)            56.6983         estimate D2E/DX2                !
 ! D10   D(1,2,3,4)            171.5906         estimate D2E/DX2                !
 ! D11   D(1,2,3,13)            53.8532         estimate D2E/DX2                !
 ! D12   D(1,2,3,14)           -62.7714         estimate D2E/DX2                !
 ! D13   D(5,2,3,4)             48.7883         estimate D2E/DX2                !
 ! D14   D(5,2,3,13)           -68.9492         estimate D2E/DX2                !
 ! D15   D(5,2,3,14)           174.4263         estimate D2E/DX2                !
 ! D16   D(7,2,3,4)            -67.7059         estimate D2E/DX2                !
 ! D17   D(7,2,3,13)           174.5567         estimate D2E/DX2                !
 ! D18   D(7,2,3,14)            57.9321         estimate D2E/DX2                !
 ! D19   D(1,2,5,6)            171.7577         estimate D2E/DX2                !
 ! D20   D(1,2,5,16)            52.4006         estimate D2E/DX2                !
 ! D21   D(1,2,5,17)           -64.6962         estimate D2E/DX2                !
 ! D22   D(3,2,5,6)            -65.7049         estimate D2E/DX2                !
 ! D23   D(3,2,5,16)           174.9379         estimate D2E/DX2                !
 ! D24   D(3,2,5,17)            57.8412         estimate D2E/DX2                !
 ! D25   D(7,2,5,6)             53.038          estimate D2E/DX2                !
 ! D26   D(7,2,5,16)           -66.3191         estimate D2E/DX2                !
 ! D27   D(7,2,5,17)           176.5841         estimate D2E/DX2                !
 ! D28   D(1,2,7,8)            167.6138         estimate D2E/DX2                !
 ! D29   D(1,2,7,9)            -13.7567         estimate D2E/DX2                !
 ! D30   D(3,2,7,8)             46.2966         estimate D2E/DX2                !
 ! D31   D(3,2,7,9)           -135.0739         estimate D2E/DX2                !
 ! D32   D(5,2,7,8)            -72.7024         estimate D2E/DX2                !
 ! D33   D(5,2,7,9)            105.9271         estimate D2E/DX2                !
 ! D34   D(2,3,4,15)            84.6227         estimate D2E/DX2                !
 ! D35   D(13,3,4,15)         -157.3175         estimate D2E/DX2                !
 ! D36   D(14,3,4,15)          -39.3757         estimate D2E/DX2                !
 ! D37   D(3,4,15,26)           40.6698         estimate D2E/DX2                !
 ! D38   D(2,5,6,18)            53.1431         estimate D2E/DX2                !
 ! D39   D(16,5,6,18)          173.8835         estimate D2E/DX2                !
 ! D40   D(17,5,6,18)          -67.6345         estimate D2E/DX2                !
 ! D41   D(2,7,8,33)          -179.3541         estimate D2E/DX2                !
 ! D42   D(9,7,8,33)             2.0783         estimate D2E/DX2                !
 ! D43   D(7,8,33,22)           67.2657         estimate D2E/DX2                !
 ! D44   D(4,15,26,25)         -58.9904         estimate D2E/DX2                !
 ! D45   D(28,19,20,21)         66.935          estimate D2E/DX2                !
 ! D46   D(28,19,20,23)       -169.4765         estimate D2E/DX2                !
 ! D47   D(28,19,20,25)        -48.8825         estimate D2E/DX2                !
 ! D48   D(29,19,20,21)        -53.3412         estimate D2E/DX2                !
 ! D49   D(29,19,20,23)         70.2474         estimate D2E/DX2                !
 ! D50   D(29,19,20,25)       -169.1587         estimate D2E/DX2                !
 ! D51   D(30,19,20,21)       -172.3318         estimate D2E/DX2                !
 ! D52   D(30,19,20,23)        -48.7432         estimate D2E/DX2                !
 ! D53   D(30,19,20,25)         71.8507         estimate D2E/DX2                !
 ! D54   D(19,20,21,22)        170.7128         estimate D2E/DX2                !
 ! D55   D(19,20,21,31)         53.3234         estimate D2E/DX2                !
 ! D56   D(19,20,21,32)        -63.8389         estimate D2E/DX2                !
 ! D57   D(23,20,21,22)         46.2235         estimate D2E/DX2                !
 ! D58   D(23,20,21,31)        -71.166          estimate D2E/DX2                !
 ! D59   D(23,20,21,32)        171.6717         estimate D2E/DX2                !
 ! D60   D(25,20,21,22)        -72.3555         estimate D2E/DX2                !
 ! D61   D(25,20,21,31)        170.2551         estimate D2E/DX2                !
 ! D62   D(25,20,21,32)         53.0928         estimate D2E/DX2                !
 ! D63   D(19,20,23,24)         60.6523         estimate D2E/DX2                !
 ! D64   D(19,20,23,34)        -56.6961         estimate D2E/DX2                !
 ! D65   D(19,20,23,35)       -174.3754         estimate D2E/DX2                !
 ! D66   D(21,20,23,24)       -175.5479         estimate D2E/DX2                !
 ! D67   D(21,20,23,34)         67.1036         estimate D2E/DX2                !
 ! D68   D(21,20,23,35)        -50.5756         estimate D2E/DX2                !
 ! D69   D(25,20,23,24)        -59.0361         estimate D2E/DX2                !
 ! D70   D(25,20,23,34)       -176.3845         estimate D2E/DX2                !
 ! D71   D(25,20,23,35)         65.9362         estimate D2E/DX2                !
 ! D72   D(19,20,25,26)       -133.3599         estimate D2E/DX2                !
 ! D73   D(19,20,25,27)         48.3669         estimate D2E/DX2                !
 ! D74   D(21,20,25,26)        107.8686         estimate D2E/DX2                !
 ! D75   D(21,20,25,27)        -70.4047         estimate D2E/DX2                !
 ! D76   D(23,20,25,26)        -11.2651         estimate D2E/DX2                !
 ! D77   D(23,20,25,27)        170.4616         estimate D2E/DX2                !
 ! D78   D(20,21,22,33)         78.2835         estimate D2E/DX2                !
 ! D79   D(31,21,22,33)       -163.8431         estimate D2E/DX2                !
 ! D80   D(32,21,22,33)        -44.859          estimate D2E/DX2                !
 ! D81   D(21,22,33,8)          -8.9319         estimate D2E/DX2                !
 ! D82   D(20,23,24,36)         75.7046         estimate D2E/DX2                !
 ! D83   D(34,23,24,36)       -166.1566         estimate D2E/DX2                !
 ! D84   D(35,23,24,36)        -47.8585         estimate D2E/DX2                !
 ! D85   D(20,25,26,15)       -145.5155         estimate D2E/DX2                !
 ! D86   D(27,25,26,15)         32.6629         estimate D2E/DX2                !
 --------------------------------------------------------------------------------
 Number of steps in this run=    194 maximum allowed number of steps=    216.
 GradGradGradGradGradGradGradGradGradGradGradGradGradGradGradGradGradGrad

                    Distance matrix (angstroms):
                    1          2          3          4          5
     1  C    0.000000
     2  C    1.519916   0.000000
     3  C    2.523964   1.553168   0.000000
     4  O    3.788543   2.489260   1.398233   0.000000
     5  C    2.534661   1.557782   2.550622   2.911639   0.000000
     6  O    3.776935   2.469789   3.043469   2.739194   1.385233
     7  N    2.441639   1.471399   2.474353   3.026512   2.421748
     8  O    3.559881   2.297357   2.761194   2.732103   2.913887
     9  O    2.613625   2.315242   3.480344   4.201851   3.230305
    10  H    1.087803   2.152664   2.743016   4.091562   3.483839
    11  H    1.086074   2.149235   2.773859   4.032378   2.769661
    12  H    1.087021   2.157202   3.476756   4.623154   2.777026
    13  H    2.671252   2.144552   1.094409   2.003475   2.816740
    14  H    2.768261   2.166135   1.096171   2.069912   3.490675
    15  H    4.214642   2.869267   1.951747   0.973239   3.456912
    16  H    2.710670   2.179486   3.495445   3.959195   1.094912
    17  H    2.770063   2.148561   2.719054   3.124166   1.100828
    18  H    4.017986   2.585502   2.620011   1.944297   1.924377
    19  C    6.713193   6.180585   5.911004   6.035706   7.447696
    20  C    6.140584   5.321184   5.100320   4.994340   6.398632
    21  C    5.936972   5.160611   5.392989   5.389419   6.081541
    22  O    6.050621   5.034422   5.367034   5.118449   5.622003
    23  C    7.327777   6.303474   5.913310   5.453596   7.180349
    24  O    7.834170   6.818976   6.117587   5.571805   7.748197
    25  N    4.998458   4.122812   3.688473   3.634542   5.275279
    26  O    5.243960   4.123344   3.406462   2.922652   5.052415
    27  O    4.117110   3.547788   3.230362   3.639979   4.923679
    28  H    6.078175   5.770546   5.598973   5.974234   7.146978
    29  H    7.539222   7.030466   6.890259   6.995407   8.246178
    30  H    7.231272   6.673514   6.158423   6.198010   7.962062
    31  H    6.902237   6.205402   6.476260   6.472699   7.107089
    32  H    5.159476   4.604824   5.026575   5.298317   5.640105
    33  H    5.260333   4.152551   4.543382   4.292394   4.661012
    34  H    8.186202   7.220939   6.934960   6.518403   8.093363
    35  H    7.234576   6.055507   5.737684   5.098089   6.718394
    36  H    7.368447   6.289467   5.446782   4.796412   7.165881
                    6          7          8          9         10
     6  O    0.000000
     7  N    2.801224   0.000000
     8  O    2.693563   1.218272   0.000000
     9  O    3.769881   1.205407   2.135490   0.000000
    10  H    4.600784   2.713598   3.792362   2.698096   0.000000
    11  H    4.095274   3.385640   4.407333   3.683090   1.769004
    12  H    4.024875   2.669827   3.866560   2.446449   1.762438
    13  H    3.496450   3.393047   3.801895   4.308891   2.974095
    14  H    3.996173   2.686751   2.981287   3.491306   2.537850
    15  H    3.105482   2.926803   2.317529   4.063616   4.373104
    16  H    1.998489   2.703636   3.356887   3.143362   3.721928
    17  H    2.062324   3.359853   3.872318   4.158377   3.753928
    18  H    0.974042   2.989798   2.659905   4.117918   4.711740
    19  C    7.431508   5.195298   4.811278   5.183916   6.075621
    20  C    6.183892   4.245290   3.597922   4.442397   5.725875
    21  C    5.863820   3.814623   3.234059   3.725558   5.649267
    22  O    5.138537   3.670183   2.813275   3.783090   6.010052
    23  C    6.695873   5.289028   4.379694   5.670600   7.021250
    24  O    7.281899   6.039672   5.165741   6.558266   7.468592
    25  N    5.165730   3.316557   2.752301   3.793915   4.620666
    26  O    4.724031   3.558260   2.761153   4.343878   5.046599
    27  O    5.136793   2.879052   2.792105   3.187080   3.574006
    28  H    7.330592   4.859110   4.734475   4.700993   5.335054
    29  H    8.185883   5.922267   5.515842   5.773082   6.910532
    30  H    7.921719   5.851995   5.423484   5.985841   6.559221
    31  H    6.872093   4.827080   4.285270   4.589333   6.567678
    32  H    5.661231   3.250852   3.024506   2.900936   4.810339
    33  H    4.169119   2.832133   1.892350   3.130043   5.333442
    34  H    7.600018   6.101445   5.223437   6.333773   7.843402
    35  H    6.058067   5.036400   3.971251   5.533819   7.090706
    36  H    6.681188   5.673877   4.788392   6.343223   7.066327
                   11         12         13         14         15
    11  H    0.000000
    12  H    1.767307   0.000000
    13  H    2.469015   3.689505   0.000000
    14  H    3.153693   3.748751   1.775973   0.000000
    15  H    4.653027   4.984112   2.801103   2.225870   0.000000
    16  H    3.022134   2.503512   3.764945   4.317462   4.406362
    17  H    2.557275   3.153400   2.538068   3.737914   3.893790
    18  H    4.286807   4.489362   3.091282   3.571312   2.344290
    19  C    7.595390   7.133566   6.852973   5.103151   5.237024
    20  C    7.039625   6.554257   6.131547   4.508956   4.117021
    21  C    6.946694   6.097693   6.472931   4.986782   4.590113
    22  O    7.027090   6.157802   6.457079   5.232311   4.328852
    23  C    8.166842   7.788816   6.924564   5.446490   4.489787
    24  O    8.557531   8.447323   7.015947   5.571126   4.641006
    25  N    5.800704   5.577113   4.692347   3.076197   2.819604
    26  O    5.912430   5.923997   4.362726   3.019177   1.999175
    27  O    4.932098   4.713069   4.165800   2.428539   3.071946
    28  H    6.957444   6.470183   6.483654   4.717254   5.295122
    29  H    8.472402   7.852937   7.860273   6.120975   6.168935
    30  H    8.021903   7.774588   7.025060   5.289209   5.400581
    31  H    7.935239   6.986047   7.551381   6.031299   5.653766
    32  H    6.205817   5.238858   6.066662   4.585280   4.634185
    33  H    6.200495   5.394348   5.619550   4.541787   3.581306
    34  H    9.075267   8.567365   7.962008   6.442923   5.556142
    35  H    8.057583   7.659321   6.761903   5.470990   4.132310
    36  H    8.010981   8.057607   6.290007   4.965517   3.895545
                   16         17         18         19         20
    16  H    0.000000
    17  H    1.782606   0.000000
    18  H    2.810647   2.358069   0.000000
    19  C    7.896487   8.212946   7.113396   0.000000
    20  C    6.873599   7.223419   5.856851   1.524706   0.000000
    21  C    6.324202   7.048144   5.774582   2.538547   1.560505
    22  O    5.833323   6.639260   5.099733   3.778054   2.467267
    23  C    7.734857   7.981579   6.251036   2.539815   1.540165
    24  O    8.443615   8.412348   6.682110   2.986377   2.451513
    25  N    5.890622   5.988519   4.746535   2.423996   1.472029
    26  O    5.818687   5.674510   4.124185   3.428618   2.318222
    27  O    5.480400   5.579982   4.824088   2.735994   2.303207
    28  H    7.540762   7.877006   7.083075   1.087349   2.162151
    29  H    8.607804   9.074882   7.929537   1.085807   2.150864
    30  H    8.522154   8.637043   7.486107   1.088594   2.148633
    31  H    7.276988   8.096384   6.817199   2.688581   2.155415
    32  H    5.788993   6.599064   5.679497   2.788432   2.170246
    33  H    4.906144   5.677235   4.152994   4.179169   2.800122
    34  H    8.567910   8.944526   7.218611   2.727695   2.143683
    35  H    7.263625   7.543744   5.624009   3.476514   2.164178
    36  H    7.943044   7.750947   6.002237   3.464446   2.741243
                   21         22         23         24         25
    21  C    0.000000
    22  O    1.387098   0.000000
    23  C    2.545418   2.860687   0.000000
    24  O    3.804346   4.174824   1.400716   0.000000
    25  N    2.425018   2.982717   2.460355   2.895380   0.000000
    26  O    3.252277   3.361700   2.614128   2.751035   1.215784
    27  O    2.904503   3.631938   3.583078   3.977634   1.211088
    28  H    2.837897   4.154275   3.478569   3.916472   2.588312
    29  H    2.715162   3.972894   2.861657   3.467876   3.364697
    30  H    3.479372   4.585142   2.688157   2.583889   2.757148
    31  H    1.093114   1.994892   2.839991   4.138085   3.356532
    32  H    1.098705   2.071856   3.479080   4.599088   2.581243
    33  H    1.948287   0.974698   3.318130   4.474216   2.806462
    34  H    2.807523   3.202285   1.092049   2.005821   3.388889
    35  H    2.694255   2.440208   1.095881   2.074108   2.747441
    36  H    4.092621   4.316365   1.935609   0.966589   2.675304
                   26         27         28         29         30
    26  O    0.000000
    27  O    2.134175   0.000000
    28  H    3.740433   2.383971   0.000000
    29  H    4.337318   3.711897   1.768498   0.000000
    30  H    3.520655   3.149958   1.776752   1.764371   0.000000
    31  H    4.195810   3.830287   3.102948   2.408302   3.659161
    32  H    3.575495   2.568808   2.647225   3.069576   3.801508
    33  H    3.024216   3.333642   4.409325   4.576156   4.933331
    34  H    3.692836   4.406570   3.761766   2.617038   2.924747
    35  H    2.570240   3.920228   4.302120   3.803504   3.725229
    36  H    2.169994   3.752729   4.233779   4.142147   3.063366
                   31         32         33         34         35
    31  H    0.000000
    32  H    1.781623   0.000000
    33  H    2.811151   2.263393   0.000000
    34  H    2.664534   3.815193   3.894151   0.000000
    35  H    3.118216   3.671107   2.797418   1.775298   0.000000
    36  H    4.636392   4.788588   4.406721   2.803952   2.253896
                   36
    36  H    0.000000
 Framework group  C1[X(C8H18N2O8)]
 Deg. of freedom   102
                         Standard orientation:                         
 ---------------------------------------------------------------------
 Center     Atomic      Atomic             Coordinates (Angstroms)
 Number     Number       Type             X           Y           Z
 ---------------------------------------------------------------------
      1          6           0       -3.316769   -0.964362   -1.544216
      2          6           0       -2.671965   -0.126605   -0.452183
      3          6           0       -2.131886    1.206169   -1.039004
      4          8           0       -1.684908    2.129536   -0.088919
      5          6           0       -3.684392    0.163762    0.695582
      6          8           0       -3.118247    0.767196    1.806536
      7          7           0       -1.568466   -0.884611    0.158334
      8          8           0       -0.808910   -0.268255    0.884534
      9          8           0       -1.472202   -2.066803   -0.056524
     10          1           0       -2.598759   -1.165132   -2.336345
     11          1           0       -4.166951   -0.435548   -1.965055
     12          1           0       -3.658159   -1.915876   -1.144606
     13          1           0       -2.964949    1.683545   -1.564216
     14          1           0       -1.351221    0.971627   -1.771904
     15          1           0       -0.762837    1.929115    0.149428
     16          1           0       -4.123132   -0.779470    1.037126
     17          1           0       -4.482827    0.784136    0.260310
     18          1           0       -2.637876    1.559922    1.507227
     19          6           0        3.393695   -0.865394   -1.380401
     20          6           0        2.634860   -0.376276   -0.151719
     21          6           0        2.141450   -1.581098    0.708587
     22          8           0        1.624006   -1.207085    1.940012
     23          6           0        3.483783    0.581604    0.704962
     24          8           0        3.871965    1.734031    0.009812
     25          7           0        1.423344    0.320413   -0.614022
     26          8           0        1.144830    1.399507   -0.128103
     27          8           0        0.733130   -0.230447   -1.442811
     28          1           0        2.724673   -1.385387   -2.061830
     29          1           0        4.185677   -1.543839   -1.077989
     30          1           0        3.843625   -0.015840   -1.891143
     31          1           0        3.010674   -2.210767    0.915625
     32          1           0        1.422543   -2.157231    0.109924
     33          1           0        0.717798   -0.865524    1.829743
     34          1           0        4.403357    0.059964    0.978542
     35          1           0        2.936752    0.825315    1.622740
     36          1           0        3.107506    2.322133   -0.053692
 ---------------------------------------------------------------------
 Rotational constants (GHZ):           0.7608234           0.2596288           0.2477480
   288 basis functions,   522 primitive gaussians,   306 cartesian basis functions
    72 alpha electrons       72 beta electrons
       nuclear repulsion energy      1630.1321375814 Hartrees.
 NAtoms=   36 NActive=   36 NUniq=   36 SFac= 1.00D+00 NAtFMM=   60 NAOKFM=F Big=F
 Nuclear repulsion after empirical dispersion term =     1630.1021167030 Hartrees.
   1 Symmetry operations used in ECPInt.
 ECPInt:  NShTT=   10440 NPrTT=   41904 LenC2=    9875 LenP2D=   27376.
 LDataN:  DoStor=T MaxTD1= 4 Len=   56
 ExpMin= 1.22D-01 ExpMax= 2.27D+03 ExpMxC= 3.41D+02 IAcc=3 IRadAn=         5 AccDes= 0.00D+00
 Harris functional with IExCor= 4639 and IRadAn=       5 diagonalized for initial guess.
 HarFok:  IExCor= 4639 AccDes= 0.00D+00 IRadAn=         5 IDoV= 1 UseB2=F ITyADJ=14
 ICtDFT=  3500011 ScaDFX=  1.000000  1.000000  1.000000  1.000000
 FoFCou: FMM=F IPFlag=           0 FMFlag=      100000 FMFlg1=           0
         NFxFlg=           0 DoJE=T BraDBF=F KetDBF=T FulRan=T
         wScrn=  0.000000 ICntrl=       500 IOpCl=  0 I1Cent=   200000004 NGrid=           0
         NMat0=    1 NMatS0=      1 NMatT0=    0 NMatD0=    1 NMtDS0=    0 NMtDT0=    0
 Petite list used in FoFCou.
     Minimum is close to point  3 DX=  3.25D-02 DF= -1.60D-03 DXR=  6.10D-02 DFR=  3.75D-03 which will be used.
     Accept linear search using points  2 and  3.
     Minimum is close to point  2 DX=  1.66D-02 DF= -3.45D-06 DXR=  2.69D-02 DFR=  7.24D-04 which will be used.
     Accept linear search using points  1 and  2.
     Accept linear search using points  2 and  3.
     Accept linear search using points  1 and  2.
     Accept linear search using points  1 and  2.
     Minimum is close to point  2 DX= -1.86D-04 DF= -1.59D-12 DXR=  1.86D-04 DFR=  3.26D-08 which will be used.
 SCF Done:  E(RwB97XD) =  -1025.66021669     a.u. after    9 cycles
            Convg  =    0.2322D-09                    45 Fock formations.
              S**2 =  0.0000                  -V/T =  2.0073

 **********************************************************************

            Population analysis using the SCF Density.

 **********************************************************************

 Orbital symmetries:
       Occupied  (A) (A) (A) (A) (A) (A) (A) (A) (A) (A) (A) (A)
                 (A) (A) (A) (A) (A) (A) (A) (A) (A) (A) (A) (A)
                 (A) (A) (A) (A) (A) (A) (A) (A) (A) (A) (A) (A)
                 (A) (A) (A) (A) (A) (A) (A) (A) (A) (A) (A) (A)
                 (A) (A) (A) (A) (A) (A) (A) (A) (A) (A) (A) (A)
                 (A) (A) (A) (A) (A) (A) (A) (A) (A) (A) (A) (A)
       Virtual   (A) (A) (A) (A) (A) (A) (A) (A) (A) (A) (A) (A)
                 (A) (A) (A) (A) (A) (A) (A) (A) (A) (A) (A) (A)
                 (A) (A) (A) (A) (A) (A) (A) (A) (A) (A) (A) (A)
                 (A) (A) (A) (A) (A) (A) (A) (A) (A) (A) (A) (A)
                 (A) (A) (A) (A) (A) (A) (A) (A) (A) (A) (A) (A)
                 (A) (A) (A) (A) (A) (A) (A) (A) (A) (A) (A) (A)
                 (A) (A) (A) (A) (A) (A) (A) (A) (A) (A) (A) (A)
                 (A) (A) (A) (A) (A) (A) (A) (A) (A) (A) (A) (A)
                 (A) (A) (A) (A) (A) (A) (A) (A) (A) (A) (A) (A)
                 (A) (A) (A) (A) (A) (A) (A) (A) (A) (A) (A) (A)
                 (A) (A) (A) (A) (A) (A) (A) (A) (A) (A) (A) (A)
                 (A) (A) (A) (A) (A) (A) (A) (A) (A) (A) (A) (A)
                 (A) (A) (A) (A) (A) (A) (A) (A) (A) (A) (A) (A)
                 (A) (A) (A) (A) (A) (A) (A) (A) (A) (A) (A) (A)
                 (A) (A) (A) (A) (A) (A) (A) (A) (A) (A) (A) (A)
                 (A) (A) (A) (A) (A) (A) (A) (A) (A) (A) (A) (A)
                 (A) (A) (A) (A) (A) (A) (A) (A) (A) (A) (A) (A)
                 (A) (A) (A) (A) (A) (A) (A) (A) (A) (A) (A) (A)
 The electronic state is 1-A.
 Alpha  occ. eigenvalues --  -19.32247 -19.31825 -19.30943 -19.30889 -19.26897
 Alpha  occ. eigenvalues --  -19.25639 -19.25105 -19.24688 -14.70535 -14.69727
 Alpha  occ. eigenvalues --  -10.37358 -10.36843 -10.36430 -10.36146 -10.35879
 Alpha  occ. eigenvalues --  -10.34924 -10.31005 -10.30412  -1.36881  -1.35885
 Alpha  occ. eigenvalues --   -1.18661  -1.17842  -1.13875  -1.12588  -1.12057
 Alpha  occ. eigenvalues --   -1.11639  -0.96684  -0.96444  -0.82050  -0.81711
 Alpha  occ. eigenvalues --   -0.79593  -0.79566  -0.78801  -0.78161  -0.70061
 Alpha  occ. eigenvalues --   -0.69023  -0.67640  -0.65918  -0.65101  -0.64266
 Alpha  occ. eigenvalues --   -0.63361  -0.62859  -0.61950  -0.61278  -0.59405
 Alpha  occ. eigenvalues --   -0.57249  -0.55814  -0.55141  -0.54725  -0.53693
 Alpha  occ. eigenvalues --   -0.52626  -0.52457  -0.51317  -0.51109  -0.50364
 Alpha  occ. eigenvalues --   -0.49130  -0.48805  -0.47545  -0.45468  -0.43906
 Alpha  occ. eigenvalues --   -0.43769  -0.43013  -0.42549  -0.41620  -0.41437
 Alpha  occ. eigenvalues --   -0.41234  -0.40187  -0.39830  -0.37756  -0.36842
 Alpha  occ. eigenvalues --   -0.35610  -0.35358
 Alpha virt. eigenvalues --   -0.02291  -0.00924   0.12621   0.13663   0.14754
 Alpha virt. eigenvalues --    0.15231   0.16132   0.17215   0.17672   0.18664
 Alpha virt. eigenvalues --    0.20599   0.20671   0.21245   0.21648   0.21701
 Alpha virt. eigenvalues --    0.22368   0.22949   0.23488   0.23736   0.24565
 Alpha virt. eigenvalues --    0.25328   0.26139   0.26536   0.27843   0.28305
 Alpha virt. eigenvalues --    0.28472   0.29546   0.30775   0.31260   0.32105
 Alpha virt. eigenvalues --    0.32704   0.34245   0.37304   0.38433   0.44475
 Alpha virt. eigenvalues --    0.45936   0.50674   0.51376   0.52129   0.52791
 Alpha virt. eigenvalues --    0.54336   0.54670   0.55113   0.56430   0.57263
 Alpha virt. eigenvalues --    0.59245   0.60510   0.60726   0.61205   0.61625
 Alpha virt. eigenvalues --    0.62662   0.64255   0.64962   0.67072   0.67824
 Alpha virt. eigenvalues --    0.68145   0.69280   0.69903   0.71051   0.71854
 Alpha virt. eigenvalues --    0.72523   0.73900   0.74735   0.75246   0.75772
 Alpha virt. eigenvalues --    0.76137   0.76966   0.78160   0.78402   0.78607
 Alpha virt. eigenvalues --    0.79323   0.79787   0.79833   0.80020   0.80543
 Alpha virt. eigenvalues --    0.80905   0.81996   0.82349   0.83277   0.84026
 Alpha virt. eigenvalues --    0.86109   0.87814   0.91649   0.92751   0.95144
 Alpha virt. eigenvalues --    0.97539   1.00323   1.01417   1.02267   1.02952
 Alpha virt. eigenvalues --    1.05906   1.07164   1.08296   1.08698   1.09831
 Alpha virt. eigenvalues --    1.11704   1.12390   1.15713   1.16241   1.16488
 Alpha virt. eigenvalues --    1.17935   1.19698   1.20528   1.21608   1.22745
 Alpha virt. eigenvalues --    1.23880   1.25514   1.25720   1.28218   1.30062
 Alpha virt. eigenvalues --    1.32348   1.34522   1.35284   1.36863   1.40466
 Alpha virt. eigenvalues --    1.41192   1.44288   1.47364   1.48288   1.50252
 Alpha virt. eigenvalues --    1.51623   1.54041   1.58460   1.60215   1.62717
 Alpha virt. eigenvalues --    1.66938   1.68614   1.69257   1.72594   1.74471
 Alpha virt. eigenvalues --    1.78004   1.80236   1.80781   1.80960   1.84156
 Alpha virt. eigenvalues --    1.86277   1.87960   1.89279   1.89313   1.91187
 Alpha virt. eigenvalues --    1.92999   1.96000   2.00192   2.01305   2.04127
 Alpha virt. eigenvalues --    2.05574   2.08882   2.12281   2.13616   2.14342
 Alpha virt. eigenvalues --    2.16309   2.17237   2.18646   2.18939   2.20626
 Alpha virt. eigenvalues --    2.20969   2.22303   2.23149   2.25876   2.28191
 Alpha virt. eigenvalues --    2.30524   2.32337   2.37280   2.38388   2.46106
 Alpha virt. eigenvalues --    2.48649   2.52421   2.53612   2.55504   2.56494
 Alpha virt. eigenvalues --    2.61616   2.62824   2.64986   2.66093   2.67874
 Alpha virt. eigenvalues --    2.68152   2.69140   2.69867   2.71043   2.72153
 Alpha virt. eigenvalues --    2.72651   2.73454   2.73947   2.75203   2.75359
 Alpha virt. eigenvalues --    2.79273   2.86591   2.88276   2.90650   2.92293
 Alpha virt. eigenvalues --    2.93001   2.95102   3.03068   3.05489   3.09245
 Alpha virt. eigenvalues --    3.09435   3.10111   3.10946   3.12580   3.13892
 Alpha virt. eigenvalues --    3.15467   3.17768   3.23668   3.23996   3.35392
 Alpha virt. eigenvalues --    3.36719   3.47161   3.47448   3.49679   3.50568
 Alpha virt. eigenvalues --    3.53269   3.53948   3.82849   3.83359   3.84380
 Alpha virt. eigenvalues --    3.87253
          Condensed to atoms (all electrons):
 Mulliken charges:
               1
     1  C   -0.229331
     2  C   -0.303767
     3  C    0.061024
     4  O   -0.508775
     5  C    0.116594
     6  O   -0.482713
     7  N    0.292029
     8  O   -0.295621
     9  O   -0.222636
    10  H    0.141728
    11  H    0.130199
    12  H    0.146635
    13  H    0.115058
    14  H    0.132868
    15  H    0.354917
    16  H    0.114091
    17  H    0.104416
    18  H    0.333426
    19  C   -0.250981
    20  C   -0.280063
    21  C    0.078966
    22  O   -0.487931
    23  C    0.102324
    24  O   -0.495687
    25  N    0.276728
    26  O   -0.279560
    27  O   -0.238982
    28  H    0.151118
    29  H    0.131248
    30  H    0.146958
    31  H    0.116683
    32  H    0.127366
    33  H    0.335801
    34  H    0.112397
    35  H    0.125193
    36  H    0.328280
 Sum of Mulliken charges =   0.00000
 Mulliken charges with hydrogens summed into heavy atoms:
               1
     1  C    0.189230
     2  C   -0.303767
     3  C    0.308951
     4  O   -0.153858
     5  C    0.335101
     6  O   -0.149286
     7  N    0.292029
     8  O   -0.295621
     9  O   -0.222636
    19  C    0.178343
    20  C   -0.280063
    21  C    0.323015
    22  O   -0.152130
    23  C    0.339914
    24  O   -0.167407
    25  N    0.276728
    26  O   -0.279560
    27  O   -0.238982
 Electronic spatial extent (au):  <R**2>=           4844.9295
 Charge=              0.0000 electrons
 Dipole moment (field-independent basis, Debye):
    X=             -1.0561    Y=             -0.6196    Z=             -3.4711  Tot=              3.6807
   1 Symmetry operations used in ECPInt.
 ECPInt:  NShTT=   10440 NPrTT=   41904 LenC2=    9875 LenP2D=   27376.
 LDataN:  DoStor=T MaxTD1= 5 Len=  102
 Calling FoFJK, ICntrl=      2127 FMM=F ISym2X=0 I1Cent= 0 IOpClX= 0 NMat=1 NMatS=1 NMatT=0.

 GradGradGradGradGradGradGradGradGradGradGradGradGradGradGradGradGradGrad
 FormGI is forming the generalized inverse of G from B-inverse, IUseBI=4.
 Internal  Forces:  Max     0.022828073 RMS     0.003575408
 Step number   1 out of a maximum of  194
 All quantities printed in internal units (Hartrees-Bohrs-Radians)
 Mixed Optimization -- RFO/linear search
 Second derivative matrix not updated -- first step.
 ITU=  0
     Eigenvalues ---    0.00230   0.00235   0.00299   0.00439   0.00502
     Eigenvalues ---    0.00554   0.00657   0.00753   0.01065   0.01144
     Eigenvalues ---    0.01661   0.01682   0.01887   0.01887   0.02409
     Eigenvalues ---    0.03793   0.04048   0.04315   0.04381   0.04547
     Eigenvalues ---    0.04744   0.04767   0.04890   0.05095   0.05239
     Eigenvalues ---    0.05462   0.05687   0.05731   0.05769   0.05831
     Eigenvalues ---    0.05871   0.05937   0.05963   0.05986   0.06016
     Eigenvalues ---    0.07605   0.08795   0.09156   0.11586   0.11666
     Eigenvalues ---    0.11723   0.11784   0.11859   0.14011   0.14086
     Eigenvalues ---    0.14320   0.14522   0.14900   0.15262   0.15415
     Eigenvalues ---    0.16000   0.16000   0.16000   0.16000   0.16000
     Eigenvalues ---    0.16000   0.16000   0.16000   0.17274   0.19464
     Eigenvalues ---    0.19962   0.21652   0.22104   0.22125   0.23430
     Eigenvalues ---    0.24368   0.24994   0.24996   0.26543   0.27000
     Eigenvalues ---    0.27234   0.28504   0.29918   0.30375   0.33591
     Eigenvalues ---    0.33826   0.34109   0.34142   0.34251   0.34282
     Eigenvalues ---    0.34308   0.34455   0.34577   0.34976   0.35068
     Eigenvalues ---    0.35121   0.35159   0.35270   0.35302   0.35535
     Eigenvalues ---    0.45415   0.45502   0.47425   0.48158   0.50566
     Eigenvalues ---    0.52560   0.52574   0.54080   0.94622   0.96134
     Eigenvalues ---    0.99443   1.02152
 Linear search not attempted -- first point.
 Iteration  1 RMS(Cart)=  0.14342841 RMS(Int)=  0.00330922
 Iteration  2 RMS(Cart)=  0.00675162 RMS(Int)=  0.00047960
 Iteration  3 RMS(Cart)=  0.00003569 RMS(Int)=  0.00047938
 Iteration  4 RMS(Cart)=  0.00000006 RMS(Int)=  0.00047938
 Variable       Old X    -DE/DX   Delta X   Delta X   Delta X     New X
                                 (Linear)    (Quad)   (Total)
    R1        2.87223   0.00177   0.00000   0.00562   0.00562   2.87785
    R2        2.05565   0.00974   0.00000   0.02694   0.02694   2.08259
    R3        2.05238   0.01097   0.00000   0.03018   0.03018   2.08257
    R4        2.05417   0.00842   0.00000   0.02323   0.02323   2.07741
    R5        2.93506   0.00084   0.00000   0.00160   0.00169   2.93676
    R6        2.94378   0.00240   0.00000   0.00855   0.00855   2.95234
    R7        2.78054   0.02082   0.00000   0.05594   0.05597   2.83651
    R8        2.64228   0.00020   0.00000   0.00109   0.00154   2.64382
    R9        2.06813   0.00536   0.00000   0.01515   0.01515   2.08328
   R10        2.07146   0.00526   0.00000   0.01494   0.01494   2.08640
   R11        1.83915   0.00232   0.00000   0.00460   0.00460   1.84375
   R12        2.61771  -0.00068   0.00000  -0.00139  -0.00139   2.61633
   R13        2.06908   0.00552   0.00000   0.01562   0.01562   2.08470
   R14        2.08026   0.00627   0.00000   0.01810   0.01810   2.09836
   R15        1.84067   0.00007   0.00000   0.00014   0.00014   1.84081
   R16        2.30220   0.00327   0.00000   0.00308   0.00275   2.30495
   R17        2.27789   0.00382   0.00000   0.00370   0.00370   2.28159
   R18        3.57602  -0.00026   0.00000  -0.00948  -0.00951   3.56651
   R19        3.77789   0.00230   0.00000   0.04120   0.04106   3.81895
   R20        2.88128   0.00236   0.00000   0.00762   0.00762   2.88890
   R21        2.05479   0.00852   0.00000   0.02352   0.02352   2.07832
   R22        2.05188   0.01074   0.00000   0.02952   0.02952   2.08140
   R23        2.05714   0.00919   0.00000   0.02549   0.02549   2.08263
   R24        2.94893   0.00068   0.00000   0.00415   0.00409   2.95302
   R25        2.91049  -0.00131   0.00000  -0.00442  -0.00442   2.90607
   R26        2.78173   0.02283   0.00000   0.06307   0.06302   2.84475
   R27        2.62124   0.00200   0.00000   0.00517   0.00558   2.62682
   R28        2.06569   0.00613   0.00000   0.01724   0.01724   2.08292
   R29        2.07625   0.00569   0.00000   0.01629   0.01629   2.09254
   R30        1.84191   0.00011   0.00000   0.00002   0.00013   1.84204
   R31        2.64697  -0.00007   0.00000  -0.00016  -0.00016   2.64681
   R32        2.06367   0.00641   0.00000   0.01798   0.01798   2.08166
   R33        2.07091   0.00377   0.00000   0.01070   0.01070   2.08162
   R34        1.82659   0.00048   0.00000   0.00088   0.00088   1.82747
   R35        2.29750   0.00771   0.00000   0.00772   0.00727   2.30477
   R36        2.28862  -0.00031   0.00000  -0.00031  -0.00031   2.28831
    A1        1.92293   0.00207   0.00000   0.01315   0.01309   1.93602
    A2        1.91997  -0.00236   0.00000  -0.01646  -0.01641   1.90356
    A3        1.93006   0.00171   0.00000   0.01156   0.01149   1.94155
    A4        1.90117  -0.00029   0.00000  -0.00474  -0.00468   1.89648
    A5        1.88961  -0.00121   0.00000  -0.00199  -0.00215   1.88746
    A6        1.89949   0.00006   0.00000  -0.00166  -0.00162   1.89787
    A7        1.92734  -0.00105   0.00000  -0.02244  -0.02211   1.90523
    A8        1.93520  -0.00246   0.00000  -0.02212  -0.02233   1.91287
    A9        1.90957   0.00031   0.00000  -0.00191  -0.00192   1.90765
   A10        1.92242   0.00147   0.00000   0.00997   0.00931   1.93173
   A11        1.91563  -0.00088   0.00000  -0.00149  -0.00252   1.91312
   A12        1.85222   0.00274   0.00000   0.04040   0.04086   1.89309
   A13        2.00546   0.00545   0.00000   0.02406   0.02380   2.02926
   A14        1.86599  -0.00494   0.00000  -0.03343  -0.03278   1.83322
   A15        1.89299   0.00067   0.00000   0.01031   0.00963   1.90262
   A16        1.85602   0.00045   0.00000   0.00117   0.00108   1.85710
   A17        1.94759  -0.00271   0.00000  -0.00232  -0.00225   1.94534
   A18        1.89080   0.00074   0.00000  -0.00302  -0.00303   1.88777
   A19        1.91058  -0.00023   0.00000   0.00984   0.01099   1.92157
   A20        1.98940   0.00652   0.00000   0.03254   0.03251   2.02191
   A21        1.90677  -0.00197   0.00000  -0.01018  -0.01063   1.89614
   A22        1.85991  -0.00467   0.00000  -0.03142  -0.03165   1.82825
   A23        1.86384  -0.00077   0.00000   0.00975   0.00968   1.87352
   A24        1.94771   0.00039   0.00000   0.01166   0.01194   1.95965
   A25        1.89461   0.00030   0.00000  -0.01459  -0.01512   1.87950
   A26        1.88562  -0.00359   0.00000  -0.02102  -0.02102   1.86460
   A27        2.04236  -0.00114   0.00000  -0.00435  -0.00539   2.03697
   A28        2.08423   0.00255   0.00000   0.01026   0.01012   2.09435
   A29        2.15633  -0.00139   0.00000  -0.00474  -0.00487   2.15146
   A30        2.26668  -0.00084   0.00000  -0.00705  -0.00585   2.26083
   A31        2.75082   0.00446   0.00000   0.02134   0.02334   2.77416
   A32        1.93072   0.00175   0.00000   0.01199   0.01197   1.94269
   A33        1.91667  -0.00200   0.00000  -0.01407  -0.01406   1.90261
   A34        1.91074   0.00043   0.00000   0.00319   0.00314   1.91388
   A35        1.90130  -0.00003   0.00000  -0.00139  -0.00135   1.89995
   A36        1.91079  -0.00046   0.00000   0.00193   0.00185   1.91265
   A37        1.89318   0.00027   0.00000  -0.00191  -0.00193   1.89125
   A38        1.93259   0.00029   0.00000  -0.00517  -0.00489   1.92770
   A39        1.95349  -0.00144   0.00000  -0.01419  -0.01451   1.93898
   A40        1.88426   0.00059   0.00000   0.00230   0.00236   1.88663
   A41        1.92603   0.00021   0.00000  -0.00306  -0.00313   1.92290
   A42        1.85284  -0.00048   0.00000   0.01141   0.01065   1.86350
   A43        1.91132   0.00090   0.00000   0.01050   0.01101   1.92233
   A44        1.98144   0.00415   0.00000   0.02928   0.02918   2.01062
   A45        1.87311  -0.00388   0.00000  -0.03553  -0.03484   1.83827
   A46        1.88741  -0.00036   0.00000   0.00481   0.00368   1.89109
   A47        1.85856   0.00054   0.00000  -0.00153  -0.00149   1.85707
   A48        1.96171  -0.00097   0.00000   0.00884   0.00865   1.97036
   A49        1.89806   0.00026   0.00000  -0.00992  -0.01007   1.88799
   A50        1.91865   0.00221   0.00000   0.02746   0.02813   1.94678
   A51        1.96969   0.00218   0.00000   0.01269   0.01254   1.98223
   A52        1.88221  -0.00289   0.00000  -0.02662  -0.02665   1.85556
   A53        1.90604  -0.00046   0.00000   0.00242   0.00208   1.90812
   A54        1.85872   0.00019   0.00000  -0.00162  -0.00152   1.85720
   A55        1.95087   0.00085   0.00000   0.02069   0.02046   1.97134
   A56        1.89310  -0.00008   0.00000  -0.01056  -0.01068   1.88242
   A57        1.89021  -0.00268   0.00000  -0.01570  -0.01570   1.87450
   A58        2.07498   0.00070   0.00000   0.00268   0.00317   2.07815
   A59        2.05862  -0.00066   0.00000  -0.00292  -0.00357   2.05504
   A60        2.14917  -0.00008   0.00000  -0.00088  -0.00150   2.14767
   A61        2.10506   0.00036   0.00000   0.00473   0.00273   2.10780
   A62        2.73179   0.00300   0.00000   0.01754   0.01716   2.74895
    D1        1.01158  -0.00070   0.00000   0.00115   0.00074   1.01231
    D2       -3.13579  -0.00124   0.00000  -0.01674  -0.01675   3.13065
    D3       -1.09871   0.00086   0.00000   0.01844   0.01870  -1.08001
    D4       -1.08464  -0.00015   0.00000   0.00915   0.00880  -1.07585
    D5        1.05118  -0.00069   0.00000  -0.00874  -0.00869   1.04248
    D6        3.08825   0.00141   0.00000   0.02645   0.02676   3.11501
    D7        3.09986   0.00021   0.00000   0.01447   0.01417   3.11404
    D8       -1.04750  -0.00033   0.00000  -0.00341  -0.00332  -1.05082
    D9        0.98957   0.00177   0.00000   0.03177   0.03214   1.02171
   D10        2.99482  -0.00082   0.00000  -0.03299  -0.03353   2.96129
   D11        0.93992  -0.00122   0.00000  -0.02571  -0.02591   0.91400
   D12       -1.09557   0.00018   0.00000  -0.00983  -0.01006  -1.10563
   D13        0.85152   0.00200   0.00000   0.00336   0.00293   0.85445
   D14       -1.20339   0.00160   0.00000   0.01064   0.01055  -1.19284
   D15        3.04431   0.00300   0.00000   0.02652   0.02640   3.07071
   D16       -1.18169  -0.00167   0.00000  -0.05067  -0.05125  -1.23294
   D17        3.04659  -0.00207   0.00000  -0.04339  -0.04363   3.00296
   D18        1.01111  -0.00068   0.00000  -0.02751  -0.02778   0.98333
   D19        2.99774   0.00139   0.00000   0.04437   0.04429   3.04203
   D20        0.91456  -0.00048   0.00000   0.01797   0.01798   0.93254
   D21       -1.12916   0.00272   0.00000   0.05747   0.05703  -1.07213
   D22       -1.14677  -0.00060   0.00000   0.00777   0.00790  -1.13887
   D23        3.05324  -0.00248   0.00000  -0.01863  -0.01841   3.03483
   D24        1.00952   0.00073   0.00000   0.02087   0.02064   1.03016
   D25        0.92569   0.00072   0.00000   0.03460   0.03483   0.96052
   D26       -1.15749  -0.00116   0.00000   0.00821   0.00852  -1.14897
   D27        3.08197   0.00204   0.00000   0.04770   0.04757   3.12954
   D28        2.92541  -0.00085   0.00000  -0.06714  -0.06791   2.85750
   D29       -0.24010   0.00011   0.00000  -0.01452  -0.01446  -0.25456
   D30        0.80803   0.00081   0.00000  -0.03725  -0.03800   0.77003
   D31       -2.35748   0.00177   0.00000   0.01536   0.01546  -2.34203
   D32       -1.26890  -0.00203   0.00000  -0.07136  -0.07200  -1.34090
   D33        1.84878  -0.00108   0.00000  -0.01875  -0.01855   1.83023
   D34        1.47694   0.00358   0.00000   0.06231   0.06108   1.53803
   D35       -2.74571   0.00091   0.00000   0.03542   0.03460  -2.71111
   D36       -0.68724   0.00060   0.00000   0.03124   0.03038  -0.65686
   D37        0.70982   0.00381   0.00000   0.10019   0.09912   0.80894
   D38        0.92752  -0.00114   0.00000  -0.02223  -0.02225   0.90527
   D39        3.03484  -0.00013   0.00000  -0.00819  -0.00796   3.02688
   D40       -1.18044  -0.00003   0.00000  -0.01337  -0.01358  -1.19402
   D41       -3.13032   0.00333   0.00000   0.08032   0.08103  -3.04929
   D42        0.03627   0.00227   0.00000   0.02510   0.02544   0.06171
   D43        1.17401   0.00265   0.00000   0.11620   0.11531   1.28932
   D44       -1.02958   0.00239   0.00000   0.06283   0.06238  -0.96720
   D45        1.16824  -0.00062   0.00000  -0.02398  -0.02434   1.14389
   D46       -2.95792  -0.00118   0.00000  -0.04200  -0.04209  -3.00002
   D47       -0.85316  -0.00055   0.00000  -0.03618  -0.03582  -0.88898
   D48       -0.93098  -0.00041   0.00000  -0.02079  -0.02110  -0.95208
   D49        1.22605  -0.00097   0.00000  -0.03881  -0.03885   1.18719
   D50       -2.95238  -0.00034   0.00000  -0.03299  -0.03258  -2.98496
   D51       -3.00776   0.00020   0.00000  -0.01190  -0.01221  -3.01997
   D52       -0.85073  -0.00035   0.00000  -0.02992  -0.02996  -0.88069
   D53        1.25403   0.00027   0.00000  -0.02410  -0.02369   1.23034
   D54        2.97950  -0.00117   0.00000  -0.05584  -0.05614   2.92336
   D55        0.93067  -0.00170   0.00000  -0.04769  -0.04772   0.88295
   D56       -1.11420   0.00024   0.00000  -0.01978  -0.01995  -1.13415
   D57        0.80675   0.00032   0.00000  -0.03176  -0.03205   0.77470
   D58       -1.24208  -0.00021   0.00000  -0.02361  -0.02363  -1.26571
   D59        2.99624   0.00173   0.00000   0.00430   0.00414   3.00038
   D60       -1.26284  -0.00058   0.00000  -0.04926  -0.04978  -1.31262
   D61        2.97151  -0.00111   0.00000  -0.04111  -0.04136   2.93016
   D62        0.92664   0.00082   0.00000  -0.01320  -0.01359   0.91306
   D63        1.05858  -0.00111   0.00000  -0.05002  -0.05017   1.00841
   D64       -0.98953  -0.00076   0.00000  -0.03833  -0.03837  -1.02790
   D65       -3.04342   0.00121   0.00000  -0.01210  -0.01222  -3.05565
   D66       -3.06389  -0.00161   0.00000  -0.06912  -0.06884  -3.13273
   D67        1.17118  -0.00125   0.00000  -0.05743  -0.05703   1.11415
   D68       -0.88271   0.00071   0.00000  -0.03120  -0.03089  -0.91360
   D69       -1.03037  -0.00154   0.00000  -0.05084  -0.05111  -1.08148
   D70       -3.07849  -0.00118   0.00000  -0.03915  -0.03930  -3.11779
   D71        1.15080   0.00078   0.00000  -0.01292  -0.01316   1.13765
   D72       -2.32757  -0.00106   0.00000  -0.05520  -0.05569  -2.38326
   D73        0.84416   0.00052   0.00000  -0.01497  -0.01482   0.82934
   D74        1.88266  -0.00145   0.00000  -0.05636  -0.05688   1.82578
   D75       -1.22879   0.00013   0.00000  -0.01613  -0.01601  -1.24480
   D76       -0.19661  -0.00190   0.00000  -0.06476  -0.06529  -0.26190
   D77        2.97512  -0.00032   0.00000  -0.02452  -0.02442   2.95070
   D78        1.36631   0.00187   0.00000   0.05564   0.05426   1.42057
   D79       -2.85960  -0.00020   0.00000   0.02756   0.02672  -2.83288
   D80       -0.78294  -0.00009   0.00000   0.01949   0.01836  -0.76458
   D81       -0.15589   0.00114   0.00000   0.01651   0.01459  -0.14130
   D82        1.32129   0.00150   0.00000   0.02570   0.02586   1.34715
   D83       -2.89998  -0.00069   0.00000  -0.00073  -0.00070  -2.90068
   D84       -0.83529  -0.00020   0.00000  -0.00309  -0.00327  -0.83856
   D85       -2.53972   0.00360   0.00000   0.05610   0.05720  -2.48252
   D86        0.57007   0.00192   0.00000   0.01362   0.01401   0.58409
         Item               Value     Threshold  Converged?
 Maximum Force            0.022828     0.000015     NO 
 RMS     Force            0.003575     0.000010     NO 
 Maximum Displacement     0.441388     0.000060     NO 
 RMS     Displacement     0.143765     0.000040     NO 
 GradGradGradGradGradGradGradGradGradGradGradGradGradGradGradGradGradGrad

                    Distance matrix (angstroms):
                    1          2          3          4          5
     1  C    0.000000
     2  C    1.522891   0.000000
     3  C    2.507576   1.554065   0.000000
     4  O    3.786780   2.509370   1.399047   0.000000
     5  C    2.521151   1.562309   2.563350   2.954255   0.000000
     6  O    3.785920   2.498731   3.085351   2.821457   1.384500
     7  N    2.466437   1.501017   2.496838   3.092574   2.485841
     8  O    3.574256   2.320903   2.765793   2.802031   3.019876
     9  O    2.655552   2.350094   3.502533   4.266633   3.292674
    10  H    1.102059   2.175452   2.738878   4.102157   3.494568
    11  H    1.102047   2.151778   2.741097   3.995095   2.738425
    12  H    1.099316   2.177346   3.481810   4.652562   2.774302
    13  H    2.609175   2.125876   1.102425   2.010920   2.800362
    14  H    2.763562   2.179914   1.104077   2.075218   3.514024
    15  H    4.253201   2.926516   1.961473   0.975673   3.541985
    16  H    2.692263   2.181649   3.506977   4.010751   1.103178
    17  H    2.699623   2.134769   2.718537   3.164733   1.110404
    18  H    4.009423   2.595963   2.651359   2.023242   1.909677
    19  C    7.010556   6.437111   6.027623   6.108211   7.731027
    20  C    6.333698   5.496914   5.155575   5.035419   6.620178
    21  C    6.004791   5.227692   5.341468   5.377153   6.251127
    22  O    6.057062   5.054516   5.325366   5.149146   5.763081
    23  C    7.495975   6.453301   5.998189   5.529127   7.361547
    24  O    8.139427   7.100067   6.355540   5.773332   8.031022
    25  N    5.227838   4.347519   3.759978   3.666710   5.527985
    26  O    5.408910   4.284315   3.479704   2.952328   5.223631
    27  O    4.446590   3.870430   3.324796   3.676466   5.263560
    28  H    6.431690   6.080311   5.740483   6.069399   7.487270
    29  H    7.818732   7.263579   6.992113   7.062779   8.515589
    30  H    7.580574   6.972562   6.331756   6.300647   8.262924
    31  H    6.968880   6.273513   6.430751   6.472362   7.284080
    32  H    5.225975   4.676525   4.943184   5.263246   5.833876
    33  H    5.261032   4.169782   4.517116   4.346445   4.799817
    34  H    8.309236   7.324288   6.990112   6.578371   8.232357
    35  H    7.327699   6.136407   5.771565   5.141824   6.841886
    36  H    7.711489   6.613267   5.733873   5.039007   7.483695
                    6          7          8          9         10
     6  O    0.000000
     7  N    2.919397   0.000000
     8  O    2.892566   1.219725   0.000000
     9  O    3.884670   1.207368   2.135697   0.000000
    10  H    4.645972   2.740923   3.795160   2.736287   0.000000
    11  H    4.065110   3.420757   4.428234   3.740933   1.790597
    12  H    4.048418   2.717539   3.918911   2.514851   1.782568
    13  H    3.504915   3.407126   3.817559   4.314306   2.925143
    14  H    4.060979   2.701384   2.954983   3.506122   2.535425
    15  H    3.246678   3.035860   2.423324   4.175440   4.419325
    16  H    2.011097   2.759497   3.467355   3.200995   3.723997
    17  H    2.077391   3.409118   3.973093   4.196381   3.703954
    18  H    0.974115   3.087068   2.833094   4.211341   4.740332
    19  C    7.759809   5.499717   5.000872   5.582426   6.369836
    20  C    6.471304   4.473464   3.746907   4.739331   5.906353
    21  C    6.133765   3.913374   3.281763   3.885666   5.669052
    22  O    5.401883   3.678797   2.812740   3.798822   5.972727
    23  C    6.938185   5.465840   4.495847   5.890644   7.196076
    24  O    7.600620   6.337328   5.389036   6.889923   7.795181
    25  N    5.473924   3.631055   2.988950   4.167743   4.838719
    26  O    4.943047   3.783849   2.936334   4.602702   5.222597
    27  O    5.514672   3.317630   3.097067   3.709824   3.878110
    28  H    7.711710   5.221031   4.965513   5.171816   5.674803
    29  H    8.503446   6.188551   5.670338   6.133306   7.183081
    30  H    8.251618   6.195995   5.645995   6.419406   6.925674
    31  H    7.154677   4.916201   4.329706   4.731757   6.580811
    32  H    5.956172   3.371434   3.084621   3.114317   4.800078
    33  H    4.433488   2.824965   1.887315   3.116449   5.295823
    34  H    7.805910   6.213525   5.276178   6.482672   7.972909
    35  H    6.251471   5.138495   4.034622   5.668100   7.189602
    36  H    7.025947   6.016679   5.060573   6.712787   7.431906
                   11         12         13         14         15
    11  H    0.000000
    12  H    1.789260   0.000000
    13  H    2.373774   3.642328   0.000000
    14  H    3.138710   3.764594   1.786921   0.000000
    15  H    4.652924   5.064911   2.811365   2.230753   0.000000
    16  H    2.999341   2.484299   3.742502   4.336434   4.507917
    17  H    2.448148   3.090173   2.497959   3.736486   3.964959
    18  H    4.234738   4.499128   3.097133   3.628224   2.475602
    19  C    7.847165   7.525579   6.950103   5.189883   5.299798
    20  C    7.193608   6.833898   6.175104   4.525687   4.155513
    21  C    6.996544   6.263711   6.417531   4.861861   4.587059
    22  O    7.036590   6.233289   6.426193   5.125460   4.375214
    23  C    8.304774   8.019714   7.010924   5.522346   4.562859
    24  O    8.830165   8.800557   7.258048   5.823603   4.828517
    25  N    5.971497   5.893777   4.736705   3.104036   2.844872
    26  O    6.027430   6.149501   4.421202   3.091725   2.020901
    27  O    5.180041   5.147956   4.210471   2.435985   3.097688
    28  H    7.260593   6.929010   6.596887   4.810028   5.379752
    29  H    8.715968   8.229345   7.948861   6.191340   6.228040
    30  H    8.320753   8.207764   7.178979   5.460441   5.487093
    31  H    7.987718   7.151341   7.499499   5.911136   5.663941
    32  H    6.252505   5.427529   5.971879   4.399874   4.611027
    33  H    6.210103   5.452506   5.608078   4.455377   3.656642
    34  H    9.177702   8.747643   8.023679   6.489289   5.616865
    35  H    8.126396   7.809201   6.804784   5.494497   4.177638
    36  H    8.317626   8.444024   6.579385   5.272241   4.121423
                   16         17         18         19         20
    16  H    0.000000
    17  H    1.787274   0.000000
    18  H    2.812612   2.361808   0.000000
    19  C    8.241678   8.437194   7.371810   0.000000
    20  C    7.148654   7.397696   6.084296   1.528740   0.000000
    21  C    6.555123   7.173684   5.976777   2.539341   1.562671
    22  O    6.013701   6.766967   5.317390   3.792125   2.494778
    23  C    7.951496   8.141805   6.458970   2.528689   1.537824
    24  O    8.751739   8.680083   6.976654   2.956798   2.459568
    25  N    6.198311   6.178186   4.987359   2.456178   1.505375
    26  O    6.025688   5.808914   4.303022   3.480851   2.353245
    27  O    5.890509   5.828700   5.109969   2.761931   2.330182
    28  H    7.950093   8.145424   7.383587   1.099797   2.183693
    29  H    8.940518   9.291609   8.178008   1.101429   2.155738
    30  H    8.879910   8.881405   7.751632   1.102081   2.164519
    31  H    7.516667   8.230628   7.032806   2.636548   2.137131
    32  H    6.060245   6.729323   5.888434   2.804126   2.181223
    33  H    5.073012   5.809762   4.378595   4.251235   2.874312
    34  H    8.736258   9.069510   7.397608   2.709626   2.128413
    35  H    7.418016   7.660308   5.791564   3.476256   2.167853
    36  H    8.283609   8.055404   6.325512   3.439684   2.752019
                   21         22         23         24         25
    21  C    0.000000
    22  O    1.390051   0.000000
    23  C    2.542513   2.877365   0.000000
    24  O    3.810322   4.221256   1.400632   0.000000
    25  N    2.462847   3.071813   2.495065   2.963963   0.000000
    26  O    3.267446   3.424959   2.674204   2.895339   1.219633
    27  O    2.951361   3.734099   3.608927   4.030631   1.210923
    28  H    2.841435   4.182348   3.489826   3.927336   2.643876
    29  H    2.716897   3.959021   2.825465   3.393542   3.409134
    30  H    3.495419   4.620219   2.693851   2.554718   2.781332
    31  H    1.102235   2.003113   2.824343   4.100698   3.382345
    32  H    1.107327   2.087102   3.486257   4.620883   2.613829
    33  H    1.969127   0.974766   3.372149   4.586083   2.952972
    34  H    2.756015   3.142820   1.101566   2.011709   3.420365
    35  H    2.707237   2.475953   1.101545   2.092449   2.775741
    36  H    4.118185   4.398856   1.925386   0.967054   2.743857
                   26         27         28         29         30
    26  O    0.000000
    27  O    2.136547   0.000000
    28  H    3.815511   2.436331   0.000000
    29  H    4.389543   3.762666   1.790480   0.000000
    30  H    3.583724   3.157553   1.799107   1.786747   0.000000
    31  H    4.216500   3.855302   3.041899   2.344334   3.628919
    32  H    3.581615   2.617551   2.658504   3.101392   3.827167
    33  H    3.131481   3.502904   4.503723   4.615778   5.028857
    34  H    3.753962   4.424037   3.748961   2.553195   2.952474
    35  H    2.599817   3.950141   4.325019   3.783378   3.734510
    36  H    2.329801   3.814119   4.259257   4.084061   3.019887
                   31         32         33         34         35
    31  H    0.000000
    32  H    1.789544   0.000000
    33  H    2.829707   2.296654   0.000000
    34  H    2.589013   3.778141   3.871960   0.000000
    35  H    3.142946   3.689883   2.845797   1.780710   0.000000
    36  H    4.623438   4.831886   4.561899   2.804678   2.262866
                   36
    36  H    0.000000
 Framework group  C1[X(C8H18N2O8)]
 Deg. of freedom   102
                         Standard orientation:                         
 ---------------------------------------------------------------------
 Center     Atomic      Atomic             Coordinates (Angstroms)
 Number     Number       Type             X           Y           Z
 ---------------------------------------------------------------------
      1          6           0       -3.432866   -0.880564   -1.560266
      2          6           0       -2.761821   -0.106950   -0.433139
      3          6           0       -2.122623    1.185951   -1.011887
      4          8           0       -1.660313    2.119617   -0.078148
      5          6           0       -3.818021    0.242982    0.663582
      6          8           0       -3.322619    0.841400    1.809581
      7          7           0       -1.695773   -0.961208    0.188824
      8          8           0       -0.873830   -0.390808    0.886523
      9          8           0       -1.664061   -2.146817   -0.037148
     10          1           0       -2.708427   -1.129376   -2.352614
     11          1           0       -4.232879   -0.260397   -1.996018
     12          1           0       -3.873476   -1.818192   -1.192554
     13          1           0       -2.933837    1.680422   -1.571147
     14          1           0       -1.331202    0.906000   -1.729012
     15          1           0       -0.737555    1.919384    0.167536
     16          1           0       -4.327573   -0.685752    0.971498
     17          1           0       -4.564022    0.880871    0.144374
     18          1           0       -2.785584    1.601307    1.521424
     19          6           0        3.573940   -0.751183   -1.370952
     20          6           0        2.722755   -0.357650   -0.163616
     21          6           0        2.144421   -1.630328    0.534784
     22          8           0        1.585522   -1.414719    1.789131
     23          6           0        3.537760    0.474293    0.840645
     24          8           0        4.081419    1.641780    0.290025
     25          7           0        1.545416    0.437809   -0.660883
     26          8           0        1.213864    1.445113   -0.058456
     27          8           0        0.925819   -0.001856   -1.603818
     28          1           0        2.962218   -1.220297   -2.155352
     29          1           0        4.347038   -1.465819   -1.047286
     30          1           0        4.075285    0.141864   -1.778017
     31          1           0        3.009172   -2.296031    0.689598
     32          1           0        1.447455   -2.127206   -0.167727
     33          1           0        0.674639   -1.074317    1.721399
     34          1           0        4.390800   -0.153866    1.142615
     35          1           0        2.925971    0.666326    1.736322
     36          1           0        3.366808    2.289873    0.222942
 ---------------------------------------------------------------------
 Rotational constants (GHZ):           0.7482225           0.2423734           0.2308040
   288 basis functions,   522 primitive gaussians,   306 cartesian basis functions
    72 alpha electrons       72 beta electrons
       nuclear repulsion energy      1597.2346121969 Hartrees.
 NAtoms=   36 NActive=   36 NUniq=   36 SFac= 1.00D+00 NAtFMM=   60 NAOKFM=F Big=F
 Nuclear repulsion after empirical dispersion term =     1597.2051127295 Hartrees.
   1 Symmetry operations used in ECPInt.
 ECPInt:  NShTT=   10440 NPrTT=   41904 LenC2=    9817 LenP2D=   26978.
 LDataN:  DoStor=T MaxTD1= 4 Len=   56
 Initial guess from the checkpoint file:  "/scratch/user/peterchao1/peterchao1/6113325_1660079103000000807784384/Gau-109717.chk"
 B after Tr=     0.000000   -0.000000   -0.000000
         Rot=    0.999559   -0.027927    0.007560    0.006636 Ang=  -3.40 deg.
 ExpMin= 1.22D-01 ExpMax= 2.27D+03 ExpMxC= 3.41D+02 IAcc=3 IRadAn=         5 AccDes= 0.00D+00
 Harris functional with IExCor= 4639 and IRadAn=       5 diagonalized for initial guess.
 HarFok:  IExCor= 4639 AccDes= 0.00D+00 IRadAn=         5 IDoV= 1 UseB2=F ITyADJ=14
 ICtDFT=  3500011 ScaDFX=  1.000000  1.000000  1.000000  1.000000
 FoFCou: FMM=F IPFlag=           0 FMFlag=      100000 FMFlg1=           0
         NFxFlg=           0 DoJE=T BraDBF=F KetDBF=T FulRan=T
         wScrn=  0.000000 ICntrl=       500 IOpCl=  0 I1Cent=   200000004 NGrid=           0
         NMat0=    1 NMatS0=      1 NMatT0=    0 NMatD0=    1 NMtDS0=    0 NMtDT0=    0
 Petite list used in FoFCou.
     Minimum is close to point  4 DX=  7.88D-02 DF= -1.22D-04 DXR=  6.16D-02 DFR=  3.81D-03 which will be used.
     Accept linear search using points  1 and  2.
     Accept linear search using points  1 and  2.
     Accept linear search using points  1 and  2.
 Restarting incremental Fock formation.
     Accept linear search using points  1 and  2.
     Accept linear search using points  2 and  3.
     Accept linear search using points  1 and  2.
     Accept linear search using points  1 and  2.
     Accept linear search using points  1 and  2.
     Minimum is close to point  2 DX= -2.39D-04 DF= -9.78D-12 DXR=  2.40D-04 DFR=  5.72D-08 which will be used.
 SCF Done:  E(RwB97XD) =  -1025.66324225     a.u. after   15 cycles
            Convg  =    0.3507D-08                    63 Fock formations.
              S**2 =  0.0000                  -V/T =  2.0077
   1 Symmetry operations used in ECPInt.
 ECPInt:  NShTT=   10440 NPrTT=   41904 LenC2=    9817 LenP2D=   26978.
 LDataN:  DoStor=T MaxTD1= 5 Len=  102
 Calling FoFJK, ICntrl=      2127 FMM=F ISym2X=0 I1Cent= 0 IOpClX= 0 NMat=1 NMatS=1 NMatT=0.

 GradGradGradGradGradGradGradGradGradGradGradGradGradGradGradGradGradGrad
 Using GEDIIS/GDIIS optimizer.
 FormGI is forming the generalized inverse of G from B-inverse, IUseBI=4.
 Internal  Forces:  Max     0.008192039 RMS     0.002021818
 Step number   2 out of a maximum of  194
 All quantities printed in internal units (Hartrees-Bohrs-Radians)
 Mixed Optimization -- RFO/linear search
 Trust test= 4.83D-01 RLast= 4.02D-01 DXMaxT set to 3.00D-01
 ITU=  0  0
 Use linear search instead of GDIIS.
     Eigenvalues ---    0.00230   0.00240   0.00283   0.00437   0.00503
     Eigenvalues ---    0.00561   0.00643   0.00800   0.01080   0.01170
     Eigenvalues ---    0.01681   0.01766   0.01879   0.01913   0.02297
     Eigenvalues ---    0.03874   0.04101   0.04376   0.04534   0.04575
     Eigenvalues ---    0.04608   0.04816   0.04922   0.05063   0.05282
     Eigenvalues ---    0.05588   0.05617   0.05720   0.05818   0.05856
     Eigenvalues ---    0.05899   0.06004   0.06051   0.06103   0.06347
     Eigenvalues ---    0.07436   0.08713   0.09826   0.11495   0.11742
     Eigenvalues ---    0.11829   0.11931   0.12041   0.13984   0.14154
     Eigenvalues ---    0.14375   0.14555   0.14855   0.15200   0.15553
     Eigenvalues ---    0.15938   0.16000   0.16000   0.16000   0.16000
     Eigenvalues ---    0.16000   0.16000   0.16221   0.17227   0.19382
     Eigenvalues ---    0.19910   0.21891   0.22094   0.22956   0.23625
     Eigenvalues ---    0.24351   0.24920   0.25277   0.25931   0.26767
     Eigenvalues ---    0.27146   0.28441   0.29932   0.30380   0.32797
     Eigenvalues ---    0.33644   0.33855   0.34124   0.34156   0.34267
     Eigenvalues ---    0.34330   0.34474   0.34545   0.34630   0.35010
     Eigenvalues ---    0.35094   0.35141   0.35193   0.35289   0.35614
     Eigenvalues ---    0.45479   0.45545   0.48063   0.48232   0.50685
     Eigenvalues ---    0.52559   0.52774   0.54094   0.94548   0.96135
     Eigenvalues ---    0.99480   1.02319
 Quartic linear search produced a step of -0.29807.
 Iteration  1 RMS(Cart)=  0.10114756 RMS(Int)=  0.00219562
 Iteration  2 RMS(Cart)=  0.00389235 RMS(Int)=  0.00038926
 Iteration  3 RMS(Cart)=  0.00000869 RMS(Int)=  0.00038924
 Iteration  4 RMS(Cart)=  0.00000002 RMS(Int)=  0.00038924
 Variable       Old X    -DE/DX   Delta X   Delta X   Delta X     New X
                                 (Linear)    (Quad)   (Total)
    R1        2.87785   0.00031  -0.00168   0.00458   0.00291   2.88075
    R2        2.08259   0.00002  -0.00803   0.01860   0.01057   2.09316
    R3        2.08257  -0.00007  -0.00900   0.02066   0.01166   2.09423
    R4        2.07741   0.00032  -0.00693   0.01664   0.00972   2.08712
    R5        2.93676  -0.00558  -0.00050  -0.01349  -0.01398   2.92277
    R6        2.95234  -0.00724  -0.00255  -0.01277  -0.01532   2.93702
    R7        2.83651   0.00193  -0.01668   0.04310   0.02660   2.86312
    R8        2.64382  -0.00253  -0.00046  -0.00458  -0.00498   2.63883
    R9        2.08328   0.00040  -0.00452   0.01124   0.00672   2.09000
   R10        2.08640   0.00051  -0.00445   0.01132   0.00687   2.09327
   R11        1.84375  -0.00246  -0.00137  -0.00073  -0.00230   1.84145
   R12        2.61633  -0.00099   0.00041  -0.00240  -0.00198   2.61434
   R13        2.08470   0.00017  -0.00466   0.01110   0.00644   2.09115
   R14        2.09836   0.00061  -0.00539   0.01372   0.00833   2.10669
   R15        1.84081   0.00090  -0.00004   0.00130   0.00126   1.84207
   R16        2.30495   0.00118  -0.00082   0.00362   0.00284   2.30778
   R17        2.28159  -0.00263  -0.00110   0.00077  -0.00033   2.28126
   R18        3.56651  -0.00083   0.00284  -0.00915  -0.00614   3.56037
   R19        3.81895  -0.00096  -0.01224   0.00864  -0.00382   3.81513
   R20        2.88890  -0.00108  -0.00227   0.00272   0.00045   2.88935
[...]
 -0.00007590,-0.00020009,-0.00005694,0.00081131,-0.00055809,-0.00152321
 ,0.00035634,-0.00057493,0.00026957,-0.00026380,-0.00129396,0.00069923,
 0.00021138,-0.00002097,-0.00012397,-0.00054951,-0.00060304,-0.00004335
 ,-0.00008995,0.00015944,-0.00013649,-0.03092253,0.02975903,0.06684051,
 0.00000779,-0.00001867,-0.00000757,-0.00001594,0.00004774,-0.00002009,
 -0.00000249,0.00000453,-0.00001153,0.00003831,-0.00002054,-0.00000113,
 -0.00001284,0.00001991,-0.00002432,0.00000854,-0.00001317,0.00002499,-
 0.00042134,-0.00016187,-0.00012440,0.00030671,-0.00020214,0.00017405,0
 .00009422,0.00011050,0.00011699,-0.00000527,-0.00000042,0.00000840,0.0
 0000778,-0.00000119,-0.00000267,-0.00000512,0.00000089,0.00000265,0.00
 000921,-0.00000815,-0.00000146,-0.00000866,0.00001241,0.00002202,-0.00
 004345,0.00001795,0.00000339,0.00000068,0.00000044,0.00000187,0.000003
 53,-0.00000599,0.00000248,-0.00001135,0.00000686,-0.00001541,-0.000073
 75,0.00000506,0.00067965,-0.00383108,-0.00093141,0.00867925,-0.1184849
 0,-0.04599525,0.10056530,0.01144289,0.00786293,-0.02738416,-0.00000439
 ,-0.00092496,-0.00141666,0.00002147,-0.00101669,0.00036287,-0.00007723
 ,-0.00005738,0.00068355,0.00017962,0.00024073,-0.00034681,0.00015189,0
 .00155503,-0.00052319,-0.00025455,-0.00039605,-0.00063883,0.00005336,-
 0.00014693,0.00004282,0.00013086,0.00010928,-0.00020079,-0.00924447,-0
 .01078180,0.01812750,0.11721848,-0.00001051,0.00002873,-0.00000032,0.0
 0001764,-0.00004049,-0.00002930,0.00001107,-0.00004576,0.00004343,-0.0
 0002837,0.00006264,-0.00002675,0.00001078,-0.00004345,0.00005689,-0.00
 001658,0.00004686,-0.00004834,0.00064387,0.00038198,0.00016656,-0.0005
 0513,-0.00003673,-0.00008072,-0.00021122,-0.00028247,-0.00014269,0.000
 00914,0.00000574,-0.00000426,-0.00001028,-0.00000140,0.00001012,0.0000
 0679,-0.00000050,-0.00000748,-0.00001746,0.00001807,-0.00000064,0.0000
 2753,-0.00000190,-0.00004187,0.00005312,-0.00008140,0.00002394,0.00000
 178,-0.00000012,-0.00000568,-0.00000972,0.00001373,-0.00000633,0.00001
 457,-0.00003269,0.00003618,0.00113577,0.00075635,0.00102679,-0.0175523
 1,-0.01774659,0.02448177,-0.04203927,-0.08273047,0.07170894,0.00260338
 ,0.00549095,-0.00437215,0.00036584,-0.00310778,-0.00489463,-0.00108399
 ,-0.00241742,0.00168978,-0.00316659,-0.00019863,0.00561974,0.00018360,
 0.00062865,-0.00112372,0.00138495,0.00128247,-0.00257924,-0.00049289,0
 .00021257,-0.00076259,0.00001461,0.00003168,-0.00010456,0.00022719,0.0
 0000279,-0.00021601,0.00818788,0.00852364,-0.01418652,0.05027805,0.088
 62223,-0.00000670,0.00001782,-0.00001932,-0.00004641,-0.00000647,-0.00
 007018,-0.00001115,0.00001972,-0.00005023,0.00001294,-0.00001523,0.000
 06305,0.00001615,0.00004378,-0.00003224,-0.00005554,-0.00000601,0.0000
 6370,0.00000328,0.00022108,-0.00000732,-0.00055533,0.00007428,0.000566
 40,-0.00004922,-0.00005347,0.00006783,-0.00000426,-0.00000061,0.000021
 78,-0.00000162,-0.00000985,0.00001009,-0.00000319,0.00000300,-0.000004
 24,0.00000344,0.00000167,0.00000680,-0.00000121,0.00000811,0.00001254,
 -0.00005544,-0.00000044,-0.00003347,0.00000471,-0.00000391,0.00000126,
 -0.00001274,0.00000584,0.00000593,0.00000891,-0.00001374,-0.00003838,-
 0.00006291,0.00030168,0.00104210,-0.00145814,-0.00200848,0.00413823,0.
 09621823,0.07392017,-0.20726109,-0.00128523,0.00887637,-0.03475375,-0.
 00032262,-0.00115899,-0.00051478,-0.00014429,-0.00034624,0.00068433,0.
 00109079,0.00078064,-0.00192220,0.00012747,-0.00047907,0.00071369,-0.0
 0057155,-0.00217248,0.00064932,-0.00002098,-0.00011816,0.00004580,-0.0
 0012858,-0.00000339,-0.00001499,0.00011885,0.00008384,0.00012697,0.002
 42993,0.00177693,-0.00122798,-0.09816741,-0.07736781,0.23738884,0.0003
 6598,-0.00087692,-0.00009980,0.00012221,0.00143728,0.00144441,0.000956
 37,0.00115268,0.00024040,-0.00129351,-0.00117998,-0.00017758,0.0000612
 5,0.00042318,-0.00129641,0.00001832,-0.00095770,0.00047161,-0.01416136
 ,-0.00484105,-0.00145562,0.00431254,0.00114055,-0.00114165,0.00381326,
 0.00294520,0.00142920,-0.00006614,0.00008749,0.00001921,0.00025401,0.0
 0009330,-0.00025834,-0.00025489,-0.00001314,0.00010128,-0.00008533,-0.
 00035017,-0.00012487,0.00015847,0.00003051,0.00013043,0.00177878,0.000
 44394,0.00015718,-0.00014317,0.00002399,-0.00002031,0.00028174,-0.0003
 1692,0.00023274,0.00013659,0.00061244,-0.00000844,-0.00002427,0.000919
 63,0.00005889,0.00083432,0.00108673,0.00165486,-0.02663092,0.00414466,
 -0.00331668,-0.40243565,0.11468422,0.06433344,-0.00109995,-0.00113263,
 0.00021417,0.00058800,0.00159049,0.00001543,0.00424887,-0.00227971,-0.
 00157691,-0.00228012,0.00080576,-0.00013300,-0.00192782,0.00029966,0.0
 0072138,-0.00000147,-0.00012363,-0.00002698,-0.00004958,-0.00006505,-0
 .00002078,0.00036681,0.00005070,0.00021669,0.00194469,-0.00106475,-0.0
 0176725,0.00270694,0.00034504,0.00290591,0.42754775,-0.00009106,0.0002
 6130,-0.00004835,-0.00045309,-0.00041292,-0.00132656,-0.00010408,-0.00
 018610,-0.00025768,-0.00000801,0.00021402,0.00026491,-0.00002747,0.000
 01491,0.00048594,-0.00027049,0.00022185,-0.00007366,0.00589035,0.00853
 448,0.00427646,-0.00300875,-0.00884391,-0.00158453,-0.00138668,-0.0046
 1843,-0.00181622,0.00001729,-0.00002120,0.00005601,-0.00007399,-0.0000
 4588,0.00011093,0.00003997,0.00000421,-0.00003554,-0.00003064,0.000100
 32,0.00005515,0.00001788,-0.00000413,-0.00004901,-0.00006189,-0.000296
 72,-0.00025780,0.00001890,-0.00001923,-0.00000512,-0.00015229,0.000127
 50,-0.00009354,0.00013721,-0.00024173,-0.00000620,-0.00013245,-0.00079
 911,-0.00043668,-0.00249069,0.00058116,-0.00061804,-0.00331957,-0.0002
 1485,0.00311759,0.12221041,-0.04730239,-0.03118769,-0.00024921,-0.0001
 1290,-0.00076863,0.00028039,-0.00014360,0.00034127,-0.00171756,0.00151
 977,-0.00281824,0.00135251,-0.00123245,0.00142470,0.00009946,-0.000680
 97,0.00046866,0.00005185,0.00010070,0.00014402,0.00016574,-0.00003127,
 0.00007187,-0.00008987,-0.00008289,-0.00017802,0.00115217,0.00075233,0
 .00078156,0.00051951,0.00019214,-0.00198694,-0.11803256,0.05281912,-0.
 00025140,0.00043193,0.00008772,-0.00010865,-0.00132175,0.00039195,-0.0
 0020872,-0.00038809,0.00006223,0.00018231,0.00038902,-0.00018093,-0.00
 003133,-0.00037843,0.00051259,0.00025471,0.00025164,-0.00048791,0.0046
 9544,0.00482100,0.00396921,-0.00332495,-0.00176605,-0.00657298,-0.0014
 1864,-0.00195478,-0.00283740,0.00004456,-0.00000022,-0.00005592,-0.000
 11889,-0.00006207,0.00010280,0.00007490,-0.00001275,-0.00002810,0.0000
 0088,0.00011122,0.00002533,-0.00000867,-0.00000805,-0.00010609,-0.0001
 3123,-0.00019507,0.00008610,0.00001216,0.00001438,-0.00000481,-0.00001
 560,0.00008262,-0.00008855,-0.00004447,-0.00009319,0.00020802,0.000107
 21,-0.00033576,-0.00023243,-0.00107302,-0.00025239,-0.00038755,-0.0411
 8866,0.01195450,0.00367383,0.11037102,-0.04229734,-0.06867452,0.000352
 14,0.00019324,0.00030442,-0.00009346,-0.00016566,-0.00025736,-0.001636
 42,-0.00206234,0.00148676,0.00028449,0.00020331,-0.00061365,0.00113136
 ,0.00081380,-0.00103445,-0.00007086,0.00006581,-0.00005805,0.00022710,
 0.00000797,0.00006304,0.00002135,-0.00007369,-0.00009889,-0.00419471,-
 0.00072294,-0.00488054,-0.00043824,0.00095968,0.00026631,-0.06348227,0
 .03157363,0.07542941,-0.00000028,-0.00000640,-0.00001412,0.00000541,0.
 00001598,-0.00000180,0.00007686,0.00007239,-0.00001656,-0.00021361,-0.
 00003220,0.00002902,0.00003056,-0.00000126,-0.00000528,-0.00005915,-0.
 00001259,-0.00001872,0.00019061,0.00015736,0.00007472,-0.00011467,-0.0
 0013518,-0.00003221,-0.00006729,-0.00014085,-0.00008192,0.00000364,0.0
 0000518,0.00000119,0.00000133,0.00000219,0.00000199,-0.00000315,-0.000
 00358,-0.00000075,-0.00002573,-0.00000463,0.00000528,0.00003031,0.0000
 0493,-0.00002000,0.00029547,-0.00005372,-0.00002626,-0.00000633,-0.000
 00423,-0.00000454,-0.00000300,0.00000259,0.00000598,0.00005866,-0.0000
 0415,0.00003512,0.00044078,0.00015834,-0.00124552,-0.00870762,0.006264
 07,0.00134156,-0.00015828,0.00089179,0.00073352,0.00032493,-0.00078900
 ,-0.00048339,-0.22064029,0.11546012,0.06948024,0.01515530,-0.01082669,
 -0.00529862,0.00012020,0.00061617,-0.00030371,-0.00043261,-0.00025241,
 0.00163733,-0.00086899,-0.00026154,0.00127051,0.00008484,-0.00016011,-
 0.00009553,0.00053650,-0.00009285,0.00002189,-0.00002133,-0.00007285,-
 0.00000845,0.00013247,-0.00067603,0.00011139,0.00024520,-0.00016800,-0
 .00006773,-0.00000907,0.00041514,-0.00006314,0.22602504,-0.00000085,0.
 00000067,-0.00000104,0.00000206,0.00000909,-0.00000366,0.00000165,-0.0
 0001465,0.00001756,-0.00002587,0.00003451,-0.00001329,-0.00000502,-0.0
 0001577,0.00001327,0.00000762,0.00001615,-0.00001708,0.00004145,0.0000
 2352,0.00000938,-0.00003465,-0.00002328,-0.00001998,-0.00001865,-0.000
 02843,-0.00001377,0.00000113,0.00000189,-0.00000094,-0.00000038,-0.000
 00008,0.00000065,-0.00000012,-0.00000040,-0.00000028,-0.00000643,0.000
 00076,-0.00000147,0.00001915,0.00001043,-0.00001301,0.00008411,-0.0000
 6114,0.00000715,-0.00000014,0.00000196,-0.00000234,0.00000022,0.000000
 82,-0.00000177,-0.00000352,-0.00001447,0.00001619,0.00001670,0.0002518
 7,-0.00006308,-0.00839817,0.00724099,0.00239901,-0.00083178,0.00036351
 ,0.00026854,0.00033175,0.00009614,-0.00012132,0.10674961,-0.11954748,-
 0.04251613,0.02381140,-0.03318555,-0.01069072,-0.00099535,-0.00143153,
 0.00338483,-0.00017091,0.00072959,-0.00005338,-0.00135029,0.00065224,0
 .00079522,-0.00013676,0.00007645,-0.00009988,-0.00001051,0.00012219,0.
 00010618,0.00006903,-0.00003928,0.00017992,-0.00016592,-0.00040168,0.0
 0026888,0.00008837,0.00015276,-0.00005321,-0.00002530,0.00010324,0.000
 04933,-0.11680239,0.14858819,0.00000129,0.00000641,0.00000803,-0.00000
 207,-0.00002097,-0.00001238,-0.00003336,-0.00001858,-0.00001590,0.0001
 0047,0.00001201,0.00002471,0.00000367,0.00001692,-0.00000768,-0.000008
 35,0.00000174,0.00002565,0.00000900,-0.00001745,-0.00001244,0.00000381
 ,0.00001799,0.00006431,0.00000439,0.00003117,0.00001533,-0.00000238,-0
 .00000491,0.00000015,-0.00000194,-0.00000097,0.00000027,0.00000338,0.0
 0000198,-0.00000011,0.00001401,0.00000157,0.00000177,-0.00003450,-0.00
 001632,0.00001801,-0.00016335,0.00003097,-0.00004053,0.00000265,-0.000
 00138,0.00000507,-0.00000421,0.00000017,0.00000080,-0.00000276,-0.0000
 0445,-0.00003624,0.00049917,-0.00081118,0.00088174,0.02367262,-0.01395
 482,-0.01020184,-0.00015158,-0.00121187,0.00081182,0.00027419,0.000027
 23,-0.00013045,0.06422953,-0.04497865,-0.07914059,0.00258237,-0.004932
 73,0.00100127,0.00017041,0.00481425,-0.00468050,-0.00018089,-0.0002899
 5,0.00117631,0.00223488,-0.00118163,-0.00153271,-0.00011130,0.00016549
 ,0.00036634,-0.00050345,0.00041033,-0.00082147,-0.00000550,-0.00004444
 ,-0.00010077,-0.00012753,0.00072413,0.00012574,-0.00039547,-0.00008458
 ,-0.00004728,0.00007229,0.00006907,-0.00014589,-0.07461424,0.04937000,
 0.08240279,0.00000149,-0.00000501,0.00000383,-0.00000214,0.00000471,0.
 00001358,-0.00001378,-0.00001474,0.00001344,0.00002837,0.00000823,-0.0
 0001962,-0.00001541,-0.00000246,-0.00000318,0.00003733,-0.00000622,0.0
 0000361,-0.00017157,-0.00008501,-0.00005397,0.00015934,0.00008447,-0.0
 0004978,0.00006300,0.00007409,0.00004690,-0.00000094,-0.00000020,-0.00
 000102,0.00000137,-0.00000001,-0.00000295,-0.00000150,0.00000080,0.000
 00104,0.00000432,-0.00000180,-0.00000369,-0.00000113,0.00000113,0.0000
 0178,-0.00000955,0.00000121,0.00002220,0.00000113,0.00000294,-0.000000
 09,0.00000496,-0.00000309,-0.00000191,-0.00002748,0.00001228,-0.000003
 53,-0.00125767,-0.00105486,0.00137004,0.00852754,-0.00006592,0.0096036
 0,0.00025181,0.00007507,-0.00085420,-0.00102396,-0.00142880,0.00051163
 ,-0.18706056,0.00453602,-0.13492118,-0.00490460,-0.00886449,-0.0071870
 1,0.00080628,0.00110609,-0.00036563,-0.00159539,0.00119218,0.00244332,
 0.00007546,-0.00024547,-0.00015276,0.00055018,-0.00016171,0.00057165,0
 .00020236,-0.00014320,0.00003950,-0.00003485,0.00007965,0.00010324,-0.
 00000840,-0.00008762,-0.00009443,-0.00000517,0.00008645,0.00005419,-0.
 00018000,-0.00049679,0.00021243,-0.01324101,0.00066219,-0.01696312,0.1
 9849293,0.00000979,-0.00002456,-0.00000730,0.00000348,0.00003293,0.000
 03252,0.00005379,0.00006216,-0.00000952,-0.00010374,-0.00005335,0.0000
 3292,0.00002020,0.00002526,-0.00004847,-0.00003862,-0.00005033,0.00002
 407,-0.00014922,-0.00002308,-0.00000451,0.00023310,-0.00005917,-0.0000
 9295,0.00007126,-0.00000837,-0.00001382,-0.00000111,0.00000380,0.00000
 310,0.00000712,0.00000231,-0.00000566,-0.00000874,-0.00000100,0.000002
 32,-0.00001126,-0.00001190,-0.00000022,0.00001168,-0.00000098,0.000001
 59,0.00011754,0.00001343,-0.00003917,-0.00000816,-0.00000279,-0.000000
 36,0.00000395,-0.00000797,0.00001064,0.00004216,0.00002376,-0.00000791
 ,-0.00201032,-0.00156140,0.00263299,0.01130559,0.00155582,0.00797593,0
 .00185119,0.00027337,0.00171603,-0.00083777,-0.00041698,-0.00141358,0.
 00786033,-0.05183081,0.00540459,-0.03092074,-0.01386249,-0.02748208,0.
 00013177,-0.00046765,-0.00002285,0.00076193,0.00015605,-0.00086456,-0.
 00033042,0.00001781,0.00007099,0.00049155,0.00017963,0.00093757,-0.000
 32692,0.00012924,-0.00027321,-0.00003733,-0.00000187,0.00016802,-0.000
 20519,-0.00002936,-0.00005854,-0.00016932,0.00012984,-0.00034431,-0.00
 072772,-0.00016662,0.00015489,0.01024338,0.00132369,0.01231811,0.00452
 164,0.06228066,-0.00000878,0.00001953,-0.00000785,0.00000177,-0.000028
 30,-0.00003309,0.00003399,0.00003822,-0.00003740,-0.00013670,0.0000127
 7,0.00005524,0.00002850,-0.00000819,0.00002230,-0.00005558,0.00001858,
 -0.00001942,0.00040337,0.00019431,0.00010765,-0.00044861,-0.00004627,0
 .00008794,-0.00015965,-0.00015054,-0.00009327,0.00000432,-0.00000125,-
 0.00000075,-0.00000698,0.,0.00000771,0.00000626,-0.00000291,-0.0000027
 2,-0.00001895,0.00000504,0.00000942,0.00001214,-0.00000721,-0.00001550
 ,0.00018178,-0.00006891,-0.00005633,-0.00000011,-0.00000476,-0.0000010
 0,-0.00001171,0.00001096,0.00000025,0.00005102,-0.00002459,0.00001970,
 0.00351731,0.00235500,-0.00335206,-0.01957736,0.00367590,-0.02110103,-
 0.00148791,-0.00104773,-0.00213842,0.00010035,-0.00249680,0.00208506,-
 0.13085994,0.00282555,-0.18473712,-0.00152815,-0.00545409,0.00195029,-
 0.00228250,0.00268698,-0.00188088,0.00080490,-0.00121634,0.00206338,-0
 .00005854,-0.00074279,0.00117484,-0.00112154,-0.00010112,-0.00106972,0
 .00003310,0.00007715,0.00024885,0.00002864,-0.00016867,0.00026062,0.00
 013388,0.00000062,-0.00006258,0.00015955,0.00020370,0.00020808,0.00045
 886,0.00038546,-0.00008572,0.00841498,0.00017549,0.00989777,0.14425525
 ,-0.00043404,0.19627990,0.00000335,0.00001313,0.00003321,-0.00000533,-
 0.00001605,-0.00001418,-0.00020147,-0.00021050,0.00007485,0.00055191,0
 .00013597,-0.00011119,-0.00008417,-0.00000228,0.00002515,0.00015155,0.
 00004160,0.00003328,-0.00038483,-0.00028724,-0.00013441,0.00028750,0.0
 0016771,0.00006149,0.00014085,0.00024793,0.00014178,-0.00000927,-0.000
 00862,-0.00000043,-0.00000057,-0.00000680,-0.00000432,0.00000507,0.000
 01035,0.00000117,0.00006804,0.00001294,-0.00001700,-0.00005962,0.00000
 916,0.00004010,-0.00072580,-0.00000169,0.00007446,0.00001413,0.0000124
 8,0.00000904,0.00000957,-0.00000898,-0.00001768,-0.00015834,-0.0000141
 0,-0.00008139,-0.00022760,0.00020966,0.00024133,0.00035396,-0.00156219
 ,-0.00036877,-0.00072810,-0.00004318,0.00033752,-0.00015751,-0.0000521
 6,0.00012511,0.01114624,-0.01319300,-0.00176554,-0.33658933,0.23908155
 ,0.03559923,0.00267537,-0.00674699,0.00498220,-0.00606916,0.00408084,-
 0.00054129,-0.00007095,0.00237224,-0.00290438,0.00010278,-0.00013347,0
 .00009031,-0.00013072,-0.00005155,-0.00011611,-0.00005765,0.00017945,-
 0.00038704,0.00004539,0.00030413,0.00002575,-0.00012550,-0.00029673,0.
 00003745,0.00014634,-0.00017165,-0.00006875,0.00081432,-0.00290345,-0.
 00057213,0.00034727,-0.00185488,-0.00086697,0.32892231,0.00001591,-0.0
 0003049,0.00000063,-0.00001644,0.00001620,0.00005846,-0.00003757,0.000
 02430,-0.00002797,0.00039000,-0.00025131,0.00001146,-0.00002396,0.0000
 9018,-0.00010060,0.00004653,-0.00013197,0.00010585,-0.00067654,-0.0002
 4328,-0.00010683,0.00064077,0.00002681,-0.00002967,0.00026823,0.000220
 51,0.00012807,-0.00001119,-0.00000383,0.00001289,0.00001352,-0.0000025
 2,-0.00001289,-0.00001341,0.00000576,0.00000568,0.00004569,-0.00000726
 ,-0.00001150,-0.00006896,-0.00002082,0.00006466,-0.00073743,0.00042491
 ,-0.00002092,-0.00000345,-0.00000259,0.00001105,0.00001889,-0.00002043
 ,0.00000501,-0.00004360,0.00012625,-0.00009655,0.00016435,0.00002132,-
 0.00005428,0.00141653,0.00029876,0.00007986,-0.00033330,-0.00047523,-0
 .00049392,0.00041537,0.00047413,0.00017629,0.03419393,-0.03415731,-0.0
 0543646,0.18606271,-0.19901702,-0.03089821,-0.00110633,-0.00331446,0.0
 0488319,0.00238590,0.00187583,-0.00216974,0.00034509,0.00047790,-0.001
 97540,-0.00004703,0.00007660,-0.00008682,-0.00011428,0.00007085,-0.000
 04399,0.00011169,-0.00008230,0.00042285,-0.00003879,0.00024816,0.00005
 088,-0.00002827,0.00018401,0.00001388,-0.00033023,-0.00008975,0.000012
 62,-0.00380895,-0.00503695,-0.00044466,0.00021824,0.00237093,-0.000680
 78,-0.21931365,0.23585414,-0.00001624,-0.00001049,-0.00002049,0.000004
 33,0.00004039,0.00002088,0.00011026,0.00007566,0.00004705,-0.00039794,
 -0.00003184,-0.00018667,-0.00003923,-0.00011745,0.00013024,0.00006606,
 0.00008221,-0.00020824,0.00024672,0.00015552,0.00013989,-0.00026127,-0
 .00002833,-0.00014918,-0.00010172,-0.00016486,-0.00013209,0.00000732,0
 .00001729,-0.00000993,0.00000407,0.00000418,0.00000604,-0.00000412,-0.
 00000917,0.00000012,-0.00002869,-0.00000406,0.00000564,0.00005510,0.00
 003421,-0.00004625,0.00061310,-0.00007203,0.00022223,-0.00000533,0.000
 00612,-0.00001801,0.00001714,0.00000584,-0.00001991,0.00000288,-0.0000
 3344,0.00020749,0.00049189,0.00018603,-0.00046307,-0.00163093,0.001265
 72,0.00081256,0.00105656,0.00036048,0.00049033,-0.00042697,0.00038292,
 -0.00073939,0.00741975,-0.00797252,-0.00139975,0.02488458,-0.02805071,
 -0.01095206,0.00074835,0.00402565,-0.00283532,0.00122721,-0.00235531,-
 0.00126072,-0.00022653,-0.00040417,0.00114082,-0.00007400,-0.00006446,
 -0.00010328,0.00006746,-0.00034206,0.00004276,-0.00049887,0.00030437,-
 0.00017690,-0.00008500,-0.00017497,-0.00005223,0.00006281,0.00005870,-
 0.00008559,0.00002848,-0.00007877,0.00016200,-0.00076223,-0.00337527,0
 .00009889,0.00140684,-0.00036324,0.00021583,-0.03396184,0.03664784,0.0
 1511632\\0.00000014,-0.00000031,0.00000048,0.00000016,-0.00000084,-0.0
 0000006,0.00000022,0.00000043,-0.00000050,-0.00000074,-0.00000024,-0.0
 0000017,0.00000003,-0.00000079,-0.00000008,-0.00000056,-0.00000155,-0.
 00000005,-0.00000017,-0.00000030,0.00000083,0.00000073,-0.00000008,0.0
 0000051,-0.00000005,-0.00000116,0.00000064,0.00000049,-0.00000013,0.00
 000071,0.00000032,-0.00000051,0.00000054,0.00000038,-0.00000080,0.0000
 0094,-0.00000018,-0.00000007,-0.00000019,-0.00000003,0.00000026,0.0000
 0005,-0.00000006,-0.00000017,-0.00000083,-0.00000003,-0.00000142,0.000
 00037,-0.00000037,-0.00000105,-0.00000011,-0.00000068,-0.00000110,-0.0
 0000038,0.00000013,0.00000128,-0.00000024,0.00000041,0.00000017,-0.000
 00022,0.00000022,0.00000053,0.00000043,0.00000068,0.00000002,0.0000004
 5,-0.00000013,0.00000049,-0.00000036,-0.00000034,0.00000037,-0.0000011
 7,-0.00000062,0.00000044,-0.00000003,-0.00000063,0.00000016,-0.0000002
 8,0.00000017,0.00000101,-0.00000043,0.00000036,0.00000142,-0.00000007,
 0.00000026,0.00000127,-0.00000011,-0.00000007,0.00000132,-0.00000067,0
 .00000041,0.00000048,0.00000052,0.00000055,0.00000066,0.00000063,-0.00
 000016,-0.00000036,0.00000035,-0.00000003,0.00000028,-0.00000023,-0.00
 000018,-0.00000012,-0.00000038,-0.00000064,0.00000042,-0.00000090\\\@


 SEE YOU NOW,
 YOUR BAIT OF FALSEHOOD TAKES THIS CARP OF TRUTH.
 AND THUS DO WE OF WISDOM AND OF REACH...
 BY INDIRECTIONS FIND DIRECTIONS OUT.    -- HAMLET, II, 1
 Job cpu time:       0 days  0 hours 49 minutes 56.0 seconds.
 Elapsed time:       0 days  0 hours 12 minutes 35.6 seconds.
 File lengths (MBytes):  RWF=    379 Int=      0 D2E=      0 Chk=      8 Scr=      1
 Normal termination of Gaussian 16 at Tue Aug  9 23:37:55 2022.
real 27172.45
user 107852.90
sys 76.46
